<event>
 4    1  0.1033139E-008  0.6441458E+03  0.7818608E-02  0.9817827E-01
         -2   -1    0    0    0  501 -0.00000000000E+00  0.00000000000E+00  0.82466471451E+03  0.82466471452E+03  0.25500000000E-02 0.  1.
          2   -1    0    0  501    0  0.00000000000E+00 -0.00000000000E+00 -0.60631061064E+03  0.60631061064E+03  0.25500000000E-02 0. -1.
    8880022    1    1    2    0    0  0.43572616852E+03  0.44908226831E+03  0.40431659073E+03  0.76052333048E+03  0.15294330000E+03 0.  0.
    8880022    1    1    2    0    0 -0.43572616852E+03 -0.44908226831E+03 -0.18596248686E+03  0.67045199469E+03  0.15294330000E+03 0.  0.
<mgrwt>
<rscale>  0 0.64414581E+03</rscale>
<asrwt>0</asrwt>
<pdfrwt beam="1">  1        2 0.93278556E-01 0.64414581E+03</pdfrwt>
<pdfrwt beam="2">  1       -2 0.12687149E+00 0.64414581E+03</pdfrwt>
<totfact> 0.23147265E+01</totfact>
</mgrwt>
</event>
<event>
 4    1  0.1033139E-008  0.8685254E+03  0.7818608E-02  0.9465805E-01
          2   -1    0    0  501    0  0.00000000000E+00  0.00000000000E+00  0.29249936625E+04  0.29249936625E+04  0.25500000000E-02 0. -1.
         -2   -1    0    0    0  501 -0.00000000000E+00 -0.00000000000E+00 -0.48211847912E+03  0.48211847912E+03  0.25500000000E-02 0.  1.
    8880022    1    1    2    0    0  0.63518525380E+03 -0.57226251261E+03  0.23832117405E+04  0.25365398761E+04  0.15294330000E+03 0.  0.
    8880022    1    1    2    0    0 -0.63518525380E+03  0.57226251261E+03  0.59663442830E+02  0.87057226547E+03  0.15294330000E+03 0.  0.
<mgrwt>
<rscale>  0 0.86852538E+03</rscale>
<asrwt>0</asrwt>
<pdfrwt beam="1">  1        2 0.44999903E+00 0.86852538E+03</pdfrwt>
<pdfrwt beam="2">  1       -2 0.74172074E-01 0.86852538E+03</pdfrwt>
<totfact> 0.33039690E+00</totfact>
</mgrwt>
</event>
<event>
 4    1  0.1033139E-008  0.5005345E+03  0.7818608E-02  0.1013640E+00
          2   -1    0    0  501    0  0.00000000000E+00  0.00000000000E+00  0.13627249687E+04  0.13627249687E+04  0.25500000000E-02 0. -1.
         -2   -1    0    0    0  501 -0.00000000000E+00 -0.00000000000E+00 -0.65433793676E+03  0.65433793676E+03  0.25500000000E-02 0.  1.
    8880022    1    1    2    0    0 -0.16825509340E+02  0.47629823951E+03 -0.50099802340E+03  0.70819049922E+03  0.15294330000E+03 0.  0.
    8880022    1    1    2    0    0  0.16825509340E+02 -0.47629823951E+03  0.12093850553E+04  0.13088724062E+04  0.15294330000E+03 0.  0.
<mgrwt>
<rscale>  0 0.50053448E+03</rscale>
<asrwt>0</asrwt>
<pdfrwt beam="1">  1        2 0.20964999E+00 0.50053448E+03</pdfrwt>
<pdfrwt beam="2">  1       -2 0.10066738E+00 0.50053448E+03</pdfrwt>
<totfact> 0.13130465E+01</totfact>
</mgrwt>
</event>
<event>
 4    1  0.1033139E-008  0.9327587E+03  0.7818608E-02  0.9385533E-01
          2   -1    0    0  501    0  0.00000000000E+00  0.00000000000E+00  0.18321097248E+04  0.18321097248E+04  0.25500000000E-02 0. -1.
         -2   -1    0    0    0  501 -0.00000000000E+00 -0.00000000000E+00 -0.71910245775E+03  0.71910245776E+03  0.25500000000E-02 0.  1.
    8880022    1    1    2    0    0 -0.71388994071E+03 -0.58052409007E+03 -0.18687635291E+03  0.95129463937E+03  0.15294330000E+03 0.  0.
    8880022    1    1    2    0    0  0.71388994071E+03  0.58052409007E+03  0.12998836200E+04  0.15999175432E+04  0.15294330000E+03 0.  0.
<mgrwt>
<rscale>  0 0.93275866E+03</rscale>
<asrwt>0</asrwt>
<pdfrwt beam="1">  1        2 0.28186303E+00 0.93275866E+03</pdfrwt>
<pdfrwt beam="2">  1       -2 0.11063115E+00 0.93275866E+03</pdfrwt>
<totfact> 0.53976918E+00</totfact>
</mgrwt>
</event>
<event>
 4    1  0.1033139E-008  0.6300918E+03  0.7818608E-02  0.9844870E-01
          2   -1    0    0  501    0  0.00000000000E+00  0.00000000000E+00  0.48470862381E+03  0.48470862381E+03  0.25500000000E-02 0. -1.
         -2   -1    0    0    0  501 -0.00000000000E+00 -0.00000000000E+00 -0.16291448534E+04  0.16291448534E+04  0.25500000000E-02 0.  1.
    8880022    1    1    2    0    0  0.20032931965E+03 -0.57748779636E+03 -0.13175070102E+04  0.14604247211E+04  0.15294330000E+03 0.  0.
    8880022    1    1    2    0    0 -0.20032931965E+03  0.57748779636E+03  0.17307078052E+03  0.65342875613E+03  0.15294330000E+03 0.  0.
<mgrwt>
<rscale>  0 0.63009177E+03</rscale>
<asrwt>0</asrwt>
<pdfrwt beam="1">  1        2 0.74570558E-01 0.63009177E+03</pdfrwt>
<pdfrwt beam="2">  1       -2 0.25063767E+00 0.63009177E+03</pdfrwt>
<totfact> 0.42578938E+00</totfact>
</mgrwt>
</event>
<event>
 4    1  0.1033139E-008  0.5257082E+03  0.7818608E-02  0.1007278E+00
          2   -1    0    0  501    0  0.00000000000E+00  0.00000000000E+00  0.27817550250E+04  0.27817550250E+04  0.25500000000E-02 0. -1.
         -2   -1    0    0    0  501 -0.00000000000E+00 -0.00000000000E+00 -0.32777895386E+03  0.32777895387E+03  0.25500000000E-02 0.  1.
    8880022    1    1    2    0    0 -0.43025200214E+03 -0.26050087424E+03  0.25249134764E+04  0.25790613035E+04  0.15294330000E+03 0.  0.
    8880022    1    1    2    0    0  0.43025200214E+03  0.26050087424E+03 -0.70937405277E+02  0.53047267537E+03  0.15294330000E+03 0.  0.
<mgrwt>
<rscale>  0 0.52570823E+03</rscale>
<asrwt>0</asrwt>
<pdfrwt beam="1">  1        2 0.42796231E+00 0.52570823E+03</pdfrwt>
<pdfrwt beam="2">  1       -2 0.50427532E-01 0.52570823E+03</pdfrwt>
<totfact> 0.97743974E+00</totfact>
</mgrwt>
</event>
<event>
 4    1  0.1033139E-008  0.4285550E+03  0.7818608E-02  0.1034317E+00
         -2   -1    0    0    0  501 -0.00000000000E+00  0.00000000000E+00  0.13378976473E+04  0.13378976473E+04  0.25500000000E-02 0.  1.
          2   -1    0    0  501    0  0.00000000000E+00 -0.00000000000E+00 -0.84939823673E+03  0.84939823674E+03  0.25500000000E-02 0. -1.
    8880022    1    1    2    0    0  0.67355026650E+02  0.39462770705E+03 -0.75713178491E+03  0.87000455144E+03  0.15294330000E+03 0. -1.
    8880022    1    1    2    0    0 -0.67355026650E+02 -0.39462770705E+03  0.12456311954E+04  0.13172913326E+04  0.15294330000E+03 0.  0.
<mgrwt>
<rscale>  0 0.42855499E+03</rscale>
<asrwt>0</asrwt>
<pdfrwt beam="1">  1        2 0.13067665E+00 0.42855499E+03</pdfrwt>
<pdfrwt beam="2">  1       -2 0.20583041E+00 0.42855499E+03</pdfrwt>
<totfact> 0.42040934E+00</totfact>
</mgrwt>
</event>
<event>
 4    1  0.1033139E-008  0.7801783E+03  0.7818608E-02  0.9589160E-01
          2   -1    0    0  501    0  0.00000000000E+00  0.00000000000E+00  0.15390305742E+04  0.15390305742E+04  0.25500000000E-02 0. -1.
         -2   -1    0    0    0  501 -0.00000000000E+00 -0.00000000000E+00 -0.79566998526E+03  0.79566998526E+03  0.25500000000E-02 0.  1.
    8880022    1    1    2    0    0 -0.33457511094E+03  0.68800144570E+03  0.11995460854E+04  0.14309398863E+04  0.15294330000E+03 0.  0.
    8880022    1    1    2    0    0  0.33457511094E+03 -0.68800144570E+03 -0.45618549648E+03  0.90376067316E+03  0.15294330000E+03 0.  0.
<mgrwt>
<rscale>  0 0.78017828E+03</rscale>
<asrwt>0</asrwt>
<pdfrwt beam="1">  1        2 0.23677394E+00 0.78017828E+03</pdfrwt>
<pdfrwt beam="2">  1       -2 0.12241077E+00 0.78017828E+03</pdfrwt>
<totfact> 0.62283453E+00</totfact>
</mgrwt>
</event>
<event>
 4    1  0.1033139E-008  0.9751594E+03  0.7818608E-02  0.9336217E-01
          2   -1    0    0  501    0  0.00000000000E+00  0.00000000000E+00  0.26830208773E+04  0.26830208773E+04  0.25500000000E-02 0. -1.
         -2   -1    0    0    0  501 -0.00000000000E+00 -0.00000000000E+00 -0.42028852109E+03  0.42028852110E+03  0.25500000000E-02 0.  1.
    8880022    1    1    2    0    0  0.87327365420E+03 -0.40612484972E+03  0.17456033739E+04  0.19995167068E+04  0.15294330000E+03 0.  0.
    8880022    1    1    2    0    0 -0.87327365420E+03  0.40612484972E+03  0.51712898228E+03  0.11037926916E+04  0.15294330000E+03 0.  0.
<mgrwt>
<rscale>  0 0.97515943E+03</rscale>
<asrwt>0</asrwt>
<pdfrwt beam="1">  1        2 0.41277244E+00 0.97515943E+03</pdfrwt>
<pdfrwt beam="2">  1       -2 0.64659773E-01 0.97515943E+03</pdfrwt>
<totfact> 0.61128175E+00</totfact>
</mgrwt>
</event>
<event>
 4    1  0.1033139E-008  0.1316171E+04  0.7818608E-02  0.9016839E-01
          2   -1    0    0  501    0  0.00000000000E+00  0.00000000000E+00  0.24224156972E+04  0.24224156972E+04  0.25500000000E-02 0. -1.
         -2   -1    0    0    0  501 -0.00000000000E+00 -0.00000000000E+00 -0.11829490449E+04  0.11829490449E+04  0.25500000000E-02 0.  1.
    8880022    1    1    2    0    0 -0.80586396978E+03  0.10293189230E+04 -0.51392477906E+03  0.14129488719E+04  0.15294330000E+03 0.  0.
    8880022    1    1    2    0    0  0.80586396978E+03 -0.10293189230E+04  0.17533914314E+04  0.21924158702E+04  0.15294330000E+03 0.  0.
<mgrwt>
<rscale>  0 0.13161709E+04</rscale>
<asrwt>0</asrwt>
<pdfrwt beam="1">  1        2 0.37267933E+00 0.13161709E+04</pdfrwt>
<pdfrwt beam="2">  1       -2 0.18199216E+00 0.13161709E+04</pdfrwt>
<totfact> 0.65144506E-01</totfact>
</mgrwt>
</event>
<event>
 4    1  0.1033139E-008  0.5786026E+03  0.7818608E-02  0.9950821E-01
          2   -1    0    0  501    0  0.00000000000E+00  0.00000000000E+00  0.22558777946E+04  0.22558777946E+04  0.25500000000E-02 0. -1.
         -2   -1    0    0    0  501 -0.00000000000E+00 -0.00000000000E+00 -0.30106194670E+03  0.30106194671E+03  0.25500000000E-02 0.  1.
    8880022    1    1    2    0    0  0.18695265144E+03 -0.52577379119E+03  0.18877873581E+04  0.19744675575E+04  0.15294330000E+03 0.  0.
    8880022    1    1    2    0    0 -0.18695265144E+03  0.52577379119E+03  0.67028489778E+02  0.58247218375E+03  0.15294330000E+03 0.  0.
<mgrwt>
<rscale>  0 0.57860265E+03</rscale>
<asrwt>0</asrwt>
<pdfrwt beam="1">  1        2 0.34705811E+00 0.57860265E+03</pdfrwt>
<pdfrwt beam="2">  1       -2 0.46317224E-01 0.57860265E+03</pdfrwt>
<totfact> 0.22690217E+01</totfact>
</mgrwt>
</event>
<event>
 4    1  0.1033139E-008  0.9085480E+03  0.7818608E-02  0.9414959E-01
         -2   -1    0    0    0  501 -0.00000000000E+00  0.00000000000E+00  0.13247106072E+04  0.13247106072E+04  0.25500000000E-02 0.  1.
          2   -1    0    0  501    0  0.00000000000E+00 -0.00000000000E+00 -0.88747068209E+03  0.88747068210E+03  0.25500000000E-02 0. -1.
    8880022    1    1    2    0    0  0.66435911385E+03  0.60057865101E+03 -0.38505112712E+03  0.98677442798E+03  0.15294330000E+03 0.  0.
    8880022    1    1    2    0    0 -0.66435911385E+03 -0.60057865101E+03  0.82229105226E+03  0.12254068613E+04  0.15294330000E+03 0. -1.
<mgrwt>
<rscale>  0 0.90854796E+03</rscale>
<asrwt>0</asrwt>
<pdfrwt beam="1">  1        2 0.13653395E+00 0.90854796E+03</pdfrwt>
<pdfrwt beam="2">  1       -2 0.20380163E+00 0.90854796E+03</pdfrwt>
<totfact> 0.37661835E+00</totfact>
</mgrwt>
</event>
<event>
 4    1  0.1033139E-008  0.1205767E+04  0.7818608E-02  0.9107823E-01
          2   -1    0    0  501    0  0.00000000000E+00  0.00000000000E+00  0.14426877416E+04  0.14426877416E+04  0.25500000000E-02 0. -1.
         -2   -1    0    0    0  501 -0.00000000000E+00 -0.00000000000E+00 -0.10650740045E+04  0.10650740045E+04  0.25500000000E-02 0.  1.
    8880022    1    1    2    0    0 -0.73491038776E+03  0.94360468565E+03  0.47968995183E+03  0.12976814647E+04  0.15294330000E+03 0.  0.
    8880022    1    1    2    0    0  0.73491038776E+03 -0.94360468565E+03 -0.10207621475E+03  0.12100802814E+04  0.15294330000E+03 0.  0.
<mgrwt>
<rscale>  0 0.12057673E+04</rscale>
<asrwt>0</asrwt>
<pdfrwt beam="1">  1        2 0.22195196E+00 0.12057673E+04</pdfrwt>
<pdfrwt beam="2">  1       -2 0.16385754E+00 0.12057673E+04</pdfrwt>
<totfact> 0.31337052E+00</totfact>
</mgrwt>
</event>
<event>
 4    1  0.1033139E-008  0.5227311E+03  0.7818608E-02  0.1008010E+00
          2   -1    0    0  501    0  0.00000000000E+00  0.00000000000E+00  0.31289733619E+04  0.31289733619E+04  0.25500000000E-02 0. -1.
         -2   -1    0    0    0  501 -0.00000000000E+00 -0.00000000000E+00 -0.61377047934E+03  0.61377047935E+03  0.25500000000E-02 0.  1.
    8880022    1    1    2    0    0 -0.48673502844E+03 -0.11377684181E+03  0.29907367287E+04  0.30360754258E+04  0.15294330000E+03 0.  0.
    8880022    1    1    2    0    0  0.48673502844E+03  0.11377684181E+03 -0.47553384611E+03  0.70666841549E+03  0.15294330000E+03 0.  0.
<mgrwt>
<rscale>  0 0.52273111E+03</rscale>
<asrwt>0</asrwt>
<pdfrwt beam="1">  1        2 0.48138052E+00 0.52273111E+03</pdfrwt>
<pdfrwt beam="2">  1       -2 0.94426227E-01 0.52273111E+03</pdfrwt>
<totfact> 0.15532253E+00</totfact>
</mgrwt>
</event>
<event>
 4    1  0.1033139E-008  0.8546416E+03  0.7818608E-02  0.9484128E-01
         -2   -1    0    0    0  501 -0.00000000000E+00  0.00000000000E+00  0.32906636437E+03  0.32906636438E+03  0.25500000000E-02 0.  1.
          2   -1    0    0  501    0  0.00000000000E+00 -0.00000000000E+00 -0.22314521341E+04  0.22314521341E+04  0.25500000000E-02 0. -1.
    8880022    1    1    2    0    0 -0.53678461272E+03  0.64721160763E+03 -0.10442993365E+04  0.13494344529E+04  0.15294330000E+03 0.  1.
    8880022    1    1    2    0    0  0.53678461272E+03 -0.64721160763E+03 -0.85808643321E+03  0.12110840455E+04  0.15294330000E+03 0. -1.
<mgrwt>
<rscale>  0 0.85464158E+03</rscale>
<asrwt>0</asrwt>
<pdfrwt beam="1">  1        2 0.34330032E+00 0.85464158E+03</pdfrwt>
<pdfrwt beam="2">  1       -2 0.50625596E-01 0.85464158E+03</pdfrwt>
<totfact> 0.18740322E+01</totfact>
</mgrwt>
</event>
<event>
 4    1  0.1033139E-008  0.5457520E+03  0.7818608E-02  0.1002482E+00
         -2   -1    0    0    0  501 -0.00000000000E+00  0.00000000000E+00  0.38494556023E+03  0.38494556024E+03  0.25500000000E-02 0.  1.
          2   -1    0    0  501    0  0.00000000000E+00 -0.00000000000E+00 -0.23359087372E+04  0.23359087372E+04  0.25500000000E-02 0. -1.
    8880022    1    1    2    0    0  0.38639728788E+03  0.35376645476E+03  0.13704973834E+03  0.56269694542E+03  0.15294330000E+03 0.  0.
    8880022    1    1    2    0    0 -0.38639728788E+03 -0.35376645476E+03 -0.20880129153E+04  0.21581573520E+04  0.15294330000E+03 0.  0.
<mgrwt>
<rscale>  0 0.54575198E+03</rscale>
<asrwt>0</asrwt>
<pdfrwt beam="1">  1        2 0.35937057E+00 0.54575198E+03</pdfrwt>
<pdfrwt beam="2">  1       -2 0.59222395E-01 0.54575198E+03</pdfrwt>
<totfact> 0.12483448E+01</totfact>
</mgrwt>
</event>
<event>
 4    1  0.1033139E-008  0.7483026E+03  0.7818608E-02  0.9638017E-01
          2   -1    0    0  501    0  0.00000000000E+00  0.00000000000E+00  0.26868346079E+04  0.26868346079E+04  0.25500000000E-02 0. -1.
         -2   -1    0    0    0  501 -0.00000000000E+00 -0.00000000000E+00 -0.14177442854E+04  0.14177442854E+04  0.25500000000E-02 0.  1.
    8880022    1    1    2    0    0 -0.54561657056E+03 -0.48874099398E+03 -0.12609089126E+04  0.14662360452E+04  0.15294330000E+03 0.  0.
    8880022    1    1    2    0    0  0.54561657056E+03  0.48874099398E+03  0.25299992351E+04  0.26383428481E+04  0.15294330000E+03 0.  0.
<mgrwt>
<rscale>  0 0.74830265E+03</rscale>
<asrwt>0</asrwt>
<pdfrwt beam="1">  1        2 0.41335917E+00 0.74830265E+03</pdfrwt>
<pdfrwt beam="2">  1       -2 0.21811451E+00 0.74830265E+03</pdfrwt>
<totfact> 0.29345667E-01</totfact>
</mgrwt>
</event>
<event>
 4    1  0.1033139E-008  0.4353581E+03  0.7818608E-02  0.1032181E+00
         -2   -1    0    0    0  501 -0.00000000000E+00  0.00000000000E+00  0.15331904122E+04  0.15331904122E+04  0.25500000000E-02 0.  1.
          2   -1    0    0  501    0  0.00000000000E+00 -0.00000000000E+00 -0.32886841325E+03  0.32886841326E+03  0.25500000000E-02 0. -1.
    8880022    1    1    2    0    0 -0.37858534758E+03  0.15105674173E+03 -0.13335089291E+03  0.45532309219E+03  0.15294330000E+03 0. -1.
    8880022    1    1    2    0    0  0.37858534758E+03 -0.15105674173E+03  0.13376728919E+04  0.14067357333E+04  0.15294330000E+03 0.  0.
<mgrwt>
<rscale>  0 0.43535808E+03</rscale>
<asrwt>0</asrwt>
<pdfrwt beam="1">  1        2 0.50595140E-01 0.43535808E+03</pdfrwt>
<pdfrwt beam="2">  1       -2 0.23587545E+00 0.43535808E+03</pdfrwt>
<totfact> 0.83443123E+00</totfact>
</mgrwt>
</event>
<event>
 4    1  0.1033139E-008  0.8772208E+03  0.7818608E-02  0.9454513E-01
          2   -1    0    0  501    0  0.00000000000E+00  0.00000000000E+00  0.12282202862E+04  0.12282202862E+04  0.25500000000E-02 0. -1.
         -2   -1    0    0    0  501 -0.00000000000E+00 -0.00000000000E+00 -0.94067884433E+03  0.94067884433E+03  0.25500000000E-02 0.  1.
    8880022    1    1    2    0    0  0.47217909195E+03 -0.72330601007E+03 -0.48292495549E+03  0.10013654901E+04  0.15294330000E+03 0.  0.
    8880022    1    1    2    0    0 -0.47217909195E+03  0.72330601007E+03  0.77046639731E+03  0.11675336404E+04  0.15294330000E+03 0.  0.
<mgrwt>
<rscale>  0 0.87722080E+03</rscale>
<asrwt>0</asrwt>
<pdfrwt beam="1">  1        2 0.18895697E+00 0.87722080E+03</pdfrwt>
<pdfrwt beam="2">  1       -2 0.14471982E+00 0.87722080E+03</pdfrwt>
<totfact> 0.60309636E+00</totfact>
</mgrwt>
</event>
<event>
 4    1  0.1033139E-008  0.4201658E+03  0.7818608E-02  0.1037012E+00
         -2   -1    0    0    0  501 -0.00000000000E+00  0.00000000000E+00  0.25111544150E+03  0.25111544151E+03  0.25500000000E-02 0.  1.
          2   -1    0    0  501    0  0.00000000000E+00 -0.00000000000E+00 -0.90165810752E+03  0.90165810752E+03  0.25500000000E-02 0. -1.
    8880022    1    1    2    0    0  0.27499150209E+03 -0.27843735444E+03 -0.59580644614E+03  0.72905737829E+03  0.15294330000E+03 0.  0.
    8880022    1    1    2    0    0 -0.27499150209E+03  0.27843735444E+03 -0.54736219877E+02  0.42371617074E+03  0.15294330000E+03 0.  0.
<mgrwt>
<rscale>  0 0.42016585E+03</rscale>
<asrwt>0</asrwt>
<pdfrwt beam="1">  1        2 0.13871663E+00 0.42016585E+03</pdfrwt>
<pdfrwt beam="2">  1       -2 0.38633145E-01 0.42016585E+03</pdfrwt>
<totfact> 0.19159340E+02</totfact>
</mgrwt>
</event>
<event>
 4    1  0.1033139E-008  0.2757956E+03  0.7818608E-02  0.1098008E+00
         -2   -1    0    0    0  501 -0.00000000000E+00  0.00000000000E+00  0.10492285784E+03  0.10492285788E+03  0.25500000000E-02 0.  1.
          2   -1    0    0  501    0  0.00000000000E+00 -0.00000000000E+00 -0.18797493840E+04  0.18797493840E+04  0.25500000000E-02 0. -1.
    8880022    1    1    2    0    0  0.18649439139E+02 -0.22874388593E+03 -0.10962178242E+03  0.29678301017E+03  0.15294330000E+03 0.  0.
    8880022    1    1    2    0    0 -0.18649439139E+02  0.22874388593E+03 -0.16652047437E+04  0.16878892317E+04  0.15294330000E+03 0.  1.
<mgrwt>
<rscale>  0 0.27579561E+03</rscale>
<asrwt>0</asrwt>
<pdfrwt beam="1">  1        2 0.28919219E+00 0.27579561E+03</pdfrwt>
<pdfrwt beam="2">  1       -2 0.16141979E-01 0.27579561E+03</pdfrwt>
<totfact> 0.26125095E+02</totfact>
</mgrwt>
</event>
<event>
 4    1  0.1381980E-008  0.9526047E+03  0.7818608E-02  0.9362111E-01
          2   -1    0    0  501    0  0.00000000000E+00  0.00000000000E+00  0.19631206529E+04  0.19631206529E+04  0.25500000000E-02 0. -1.
         -2   -1    0    0    0  501 -0.00000000000E+00 -0.00000000000E+00 -0.15919281003E+04  0.15919281003E+04  0.25500000000E-02 0.  1.
    8880022    1    1    2    0    0  0.15795980369E+03 -0.92688333083E+03 -0.13117797937E+04  0.16211791661E+04  0.15294330000E+03 0.  0.
    8880022    1    1    2    0    0 -0.15795980369E+03  0.92688333083E+03  0.16829723462E+04  0.19338695871E+04  0.15294330000E+03 0.  0.
<mgrwt>
<rscale>  0 0.95260467E+03</rscale>
<asrwt>0</asrwt>
<pdfrwt beam="1">  1        2 0.30201856E+00 0.95260467E+03</pdfrwt>
<pdfrwt beam="2">  1       -2 0.24491202E+00 0.95260467E+03</pdfrwt>
<totfact> 0.48882773E-01</totfact>
</mgrwt>
</event>
<event>
 4    1  0.1033139E-008  0.5038902E+03  0.7818608E-02  0.1012768E+00
          2   -1    0    0  501    0  0.00000000000E+00  0.00000000000E+00  0.16316434735E+04  0.16316434735E+04  0.25500000000E-02 0. -1.
         -2   -1    0    0    0  501 -0.00000000000E+00 -0.00000000000E+00 -0.11317417702E+04  0.11317417702E+04  0.25500000000E-02 0.  1.
    8880022    1    1    2    0    0  0.40230672941E+03 -0.26203627407E+03  0.15331417304E+04  0.16138243188E+04  0.15294330000E+03 0.  0.
    8880022    1    1    2    0    0 -0.40230672941E+03  0.26203627407E+03 -0.10332400271E+04  0.11495609249E+04  0.15294330000E+03 0.  0.
<mgrwt>
<rscale>  0 0.50389023E+03</rscale>
<asrwt>0</asrwt>
<pdfrwt beam="1">  1        2 0.25102207E+00 0.50389023E+03</pdfrwt>
<pdfrwt beam="2">  1       -2 0.17411412E+00 0.50389023E+03</pdfrwt>
<totfact> 0.23203818E+00</totfact>
</mgrwt>
</event>
<event>
 4    1  0.1033139E-008  0.6283105E+03  0.7818608E-02  0.9848351E-01
          2   -1    0    0  501    0  0.00000000000E+00  0.00000000000E+00  0.35970400378E+04  0.35970400378E+04  0.25500000000E-02 0. -1.
         -2   -1    0    0    0  501 -0.00000000000E+00 -0.00000000000E+00 -0.20868810221E+03  0.20868810223E+03  0.25500000000E-02 0.  1.
    8880022    1    1    2    0    0  0.55753310268E+03 -0.24604738171E+03  0.30043872327E+04  0.30693837772E+04  0.15294330000E+03 0.  0.
    8880022    1    1    2    0    0 -0.55753310268E+03  0.24604738171E+03  0.38396470293E+03  0.73634436288E+03  0.15294330000E+03 0.  0.
<mgrwt>
<rscale>  0 0.62831053E+03</rscale>
<asrwt>0</asrwt>
<pdfrwt beam="1">  1        2 0.55339077E+00 0.62831053E+03</pdfrwt>
<pdfrwt beam="2">  1       -2 0.32105862E-01 0.62831053E+03</pdfrwt>
<totfact> 0.69847714E+00</totfact>
</mgrwt>
</event>
<event>
 4    1  0.1033139E-008  0.1257910E+04  0.7818608E-02  0.9063625E-01
         -2   -1    0    0    0  501 -0.00000000000E+00  0.00000000000E+00  0.26336362986E+04  0.26336362986E+04  0.25500000000E-02 0.  1.
          2   -1    0    0  501    0  0.00000000000E+00 -0.00000000000E+00 -0.83135666757E+03  0.83135666758E+03  0.25500000000E-02 0. -1.
    8880022    1    1    2    0    0  0.65348187869E+02 -0.12468663628E+04  0.18134656249E+04  0.22070331529E+04  0.15294330000E+03 0.  0.
    8880022    1    1    2    0    0 -0.65348187869E+02  0.12468663628E+04 -0.11185993844E+02  0.12579598133E+04  0.15294330000E+03 0.  0.
<mgrwt>
<rscale>  0 0.12579101E+04</rscale>
<asrwt>0</asrwt>
<pdfrwt beam="1">  1        2 0.12790102E+00 0.12579101E+04</pdfrwt>
<pdfrwt beam="2">  1       -2 0.40517482E+00 0.12579101E+04</pdfrwt>
<totfact> 0.22019304E-01</totfact>
</mgrwt>
</event>
<event>
 4    1  0.1033139E-008  0.1290054E+04  0.7818608E-02  0.9037490E-01
         -2   -1    0    0    0  501 -0.00000000000E+00  0.00000000000E+00  0.98993041447E+03  0.98993041447E+03  0.25500000000E-02 0.  1.
          2   -1    0    0  501    0  0.00000000000E+00 -0.00000000000E+00 -0.19020428960E+04  0.19020428960E+04  0.25500000000E-02 0. -1.
    8880022    1    1    2    0    0  0.38166519343E+03  0.12227755820E+04 -0.94880615098E+03  0.16013972677E+04  0.15294330000E+03 0.  0.
    8880022    1    1    2    0    0 -0.38166519343E+03 -0.12227755820E+04  0.36693669454E+02  0.12905760428E+04  0.15294330000E+03 0.  0.
<mgrwt>
<rscale>  0 0.12900543E+04</rscale>
<asrwt>0</asrwt>
<pdfrwt beam="1">  1        2 0.29262198E+00 0.12900543E+04</pdfrwt>
<pdfrwt beam="2">  1       -2 0.15229699E+00 0.12900543E+04</pdfrwt>
<totfact> 0.20995454E+00</totfact>
</mgrwt>
</event>
<event>
 4    1  0.1033139E-008  0.4551218E+03  0.7818608E-02  0.1026206E+00
          2   -1    0    0  501    0  0.00000000000E+00  0.00000000000E+00  0.18860214157E+04  0.18860214157E+04  0.25500000000E-02 0. -1.
         -2   -1    0    0    0  501 -0.00000000000E+00 -0.00000000000E+00 -0.99795761592E+03  0.99795761592E+03  0.25500000000E-02 0.  1.
    8880022    1    1    2    0    0  0.58702306514E+02  0.42461538219E+03 -0.91629882059E+03  0.10231028126E+04  0.15294330000E+03 0.  0.
    8880022    1    1    2    0    0 -0.58702306514E+02 -0.42461538219E+03  0.18043626204E+04  0.18608762190E+04  0.15294330000E+03 0.  0.
<mgrwt>
<rscale>  0 0.45512178E+03</rscale>
<asrwt>0</asrwt>
<pdfrwt beam="1">  1        2 0.29015714E+00 0.45512178E+03</pdfrwt>
<pdfrwt beam="2">  1       -2 0.15353194E+00 0.45512178E+03</pdfrwt>
<totfact> 0.24135666E+00</totfact>
</mgrwt>
</event>
<event>
 4    1  0.1033139E-008  0.2856435E+03  0.7818608E-02  0.1092646E+00
          2   -1    0    0  501    0  0.00000000000E+00  0.00000000000E+00  0.13592473098E+04  0.13592473098E+04  0.25500000000E-02 0. -1.
         -2   -1    0    0    0  501 -0.00000000000E+00 -0.00000000000E+00 -0.13346073084E+03  0.13346073087E+03  0.25500000000E-02 0.  1.
    8880022    1    1    2    0    0 -0.23172515693E+03 -0.67111815949E+02  0.59269822980E+02  0.29172779971E+03  0.15294330000E+03 0.  0.
    8880022    1    1    2    0    0  0.23172515693E+03  0.67111815949E+02  0.11665167560E+04  0.12009802410E+04  0.15294330000E+03 0.  0.
<mgrwt>
<rscale>  0 0.28564348E+03</rscale>
<asrwt>0</asrwt>
<pdfrwt beam="1">  1        2 0.20911498E+00 0.28564348E+03</pdfrwt>
<pdfrwt beam="2">  1       -2 0.20532419E-01 0.28564348E+03</pdfrwt>
<totfact> 0.32831677E+02</totfact>
</mgrwt>
</event>
<event>
 4    1  0.1157841E-008  0.1699824E+04  0.7818608E-02  0.8761465E-01
         -2   -1    0    0    0  501 -0.00000000000E+00  0.00000000000E+00  0.15265622902E+04  0.15265622902E+04  0.25500000000E-02 0.  1.
          2   -1    0    0  501    0  0.00000000000E+00 -0.00000000000E+00 -0.35456780787E+04  0.35456780787E+04  0.25500000000E-02 0. -1.
    8880022    1    1    2    0    0 -0.15591518779E+04 -0.65958684491E+03  0.72204034429E+03  0.18468197790E+04  0.15294330000E+03 0.  0.
    8880022    1    1    2    0    0  0.15591518779E+04  0.65958684491E+03 -0.27411561328E+04  0.32254205899E+04  0.15294330000E+03 0.  0.
<mgrwt>
<rscale>  0 0.16998238E+04</rscale>
<asrwt>0</asrwt>
<pdfrwt beam="1">  1        2 0.54548893E+00 0.16998238E+04</pdfrwt>
<pdfrwt beam="2">  1       -2 0.23485574E+00 0.16998238E+04</pdfrwt>
<totfact> 0.55469121E-02</totfact>
</mgrwt>
</event>
<event>
 4    1  0.1033139E-008  0.5318034E+03  0.7818608E-02  0.1005796E+00
          2   -1    0    0  501    0  0.00000000000E+00  0.00000000000E+00  0.50806358171E+03  0.50806358171E+03  0.25500000000E-02 0. -1.
         -2   -1    0    0    0  501 -0.00000000000E+00 -0.00000000000E+00 -0.12569810252E+04  0.12569810252E+04  0.25500000000E-02 0.  1.
    8880022    1    1    2    0    0  0.25073105827E+03  0.44334768361E+03 -0.10331959732E+04  0.11620278844E+04  0.15294330000E+03 0.  0.
    8880022    1    1    2    0    0 -0.25073105827E+03 -0.44334768361E+03  0.28427852969E+03  0.60301672249E+03  0.15294330000E+03 0.  0.
<mgrwt>
<rscale>  0 0.53180343E+03</rscale>
<asrwt>0</asrwt>
<pdfrwt beam="1">  1        2 0.78163628E-01 0.53180343E+03</pdfrwt>
<pdfrwt beam="2">  1       -2 0.19338170E+00 0.53180343E+03</pdfrwt>
<totfact> 0.93135540E+00</totfact>
</mgrwt>
</event>
<event>
 4    1  0.1033139E-008  0.4069598E+03  0.7818608E-02  0.1041396E+00
          2   -1    0    0  501    0  0.00000000000E+00  0.00000000000E+00  0.82728535263E+03  0.82728535263E+03  0.25500000000E-02 0. -1.
         -2   -1    0    0    0  501 -0.00000000000E+00 -0.00000000000E+00 -0.67763638201E+03  0.67763638201E+03  0.25500000000E-02 0.  1.
    8880022    1    1    2    0    0 -0.32399544551E+03  0.19300663074E+03 -0.55678226306E+03  0.68965407973E+03  0.15294330000E+03 0.  0.
    8880022    1    1    2    0    0  0.32399544551E+03 -0.19300663074E+03  0.70643123368E+03  0.81526765491E+03  0.15294330000E+03 0.  0.
<mgrwt>
<rscale>  0 0.40695978E+03</rscale>
<asrwt>0</asrwt>
<pdfrwt beam="1">  1        2 0.12727467E+00 0.40695978E+03</pdfrwt>
<pdfrwt beam="2">  1       -2 0.10425175E+00 0.40695978E+03</pdfrwt>
<totfact> 0.26082478E+01</totfact>
</mgrwt>
</event>
<event>
 4    1  0.1033139E-008  0.8961755E+03  0.7818608E-02  0.9430375E-01
         -2   -1    0    0    0  501 -0.00000000000E+00  0.00000000000E+00  0.13594552601E+04  0.13594552601E+04  0.25500000000E-02 0.  1.
          2   -1    0    0  501    0  0.00000000000E+00 -0.00000000000E+00 -0.29839054141E+04  0.29839054141E+04  0.25500000000E-02 0. -1.
    8880022    1    1    2    0    0  0.88013364073E+03  0.71439348666E+02 -0.27570775837E+04  0.28990700685E+04  0.15294330000E+03 0.  0.
    8880022    1    1    2    0    0 -0.88013364073E+03 -0.71439348666E+02  0.11326274297E+04  0.14442906057E+04  0.15294330000E+03 0.  0.
<mgrwt>
<rscale>  0 0.89617546E+03</rscale>
<asrwt>0</asrwt>
<pdfrwt beam="1">  1        2 0.45906237E+00 0.89617546E+03</pdfrwt>
<pdfrwt beam="2">  1       -2 0.20914696E+00 0.89617546E+03</pdfrwt>
<totfact> 0.21487918E-01</totfact>
</mgrwt>
</event>
<event>
 4    1  0.1033139E-008  0.4660984E+03  0.7818608E-02  0.1023027E+00
         -2   -1    0    0    0  501 -0.00000000000E+00  0.00000000000E+00  0.10295899881E+04  0.10295899881E+04  0.25500000000E-02 0.  1.
          2   -1    0    0  501    0  0.00000000000E+00 -0.00000000000E+00 -0.60020675038E+03  0.60020675039E+03  0.25500000000E-02 0. -1.
    8880022    1    1    2    0    0 -0.17980787859E+03  0.40190198049E+03 -0.44151543576E+03  0.64201527096E+03  0.15294330000E+03 0.  0.
    8880022    1    1    2    0    0  0.17980787859E+03 -0.40190198049E+03  0.87089867352E+03  0.98778146757E+03  0.15294330000E+03 0.  0.
<mgrwt>
<rscale>  0 0.46609841E+03</rscale>
<asrwt>0</asrwt>
<pdfrwt beam="1">  1        2 0.92339501E-01 0.46609841E+03</pdfrwt>
<pdfrwt beam="2">  1       -2 0.15839846E+00 0.46609841E+03</pdfrwt>
<totfact> 0.13504530E+01</totfact>
</mgrwt>
</event>
<event>
 4    1  0.1033139E-008  0.4348919E+03  0.7818608E-02  0.1032326E+00
         -2   -1    0    0    0  501 -0.00000000000E+00  0.00000000000E+00  0.11379984513E+04  0.11379984513E+04  0.25500000000E-02 0.  1.
          2   -1    0    0  501    0  0.00000000000E+00 -0.00000000000E+00 -0.95670810057E+03  0.95670810057E+03  0.25500000000E-02 0. -1.
    8880022    1    1    2    0    0  0.90227067648E+02  0.39698663129E+03 -0.86140029155E+03  0.96495669563E+03  0.15294330000E+03 0. -1.
    8880022    1    1    2    0    0 -0.90227067648E+02 -0.39698663129E+03  0.10426906423E+04  0.11297498562E+04  0.15294330000E+03 0.  0.
<mgrwt>
<rscale>  0 0.43489190E+03</rscale>
<asrwt>0</asrwt>
<pdfrwt beam="1">  1        2 0.14718586E+00 0.43489190E+03</pdfrwt>
<pdfrwt beam="2">  1       -2 0.17507669E+00 0.43489190E+03</pdfrwt>
<totfact> 0.56860895E+00</totfact>
</mgrwt>
</event>
<event>
 4    1  0.1079862E-008  0.9793299E+03  0.7818608E-02  0.9331511E-01
          2   -1    0    0  501    0  0.00000000000E+00  0.00000000000E+00  0.14978445262E+04  0.14978445262E+04  0.25500000000E-02 0. -1.
         -2   -1    0    0    0  501 -0.00000000000E+00 -0.00000000000E+00 -0.12607392849E+04  0.12607392849E+04  0.25500000000E-02 0.  1.
    8880022    1    1    2    0    0  0.87020927796E+03  0.42241112850E+03 -0.84903249990E+03  0.12961262237E+04  0.15294330000E+03 0.  0.
    8880022    1    1    2    0    0 -0.87020927796E+03 -0.42241112850E+03  0.10861377412E+04  0.14624575873E+04  0.15294330000E+03 0.  0.
<mgrwt>
<rscale>  0 0.97932987E+03</rscale>
<asrwt>0</asrwt>
<pdfrwt beam="1">  1        2 0.23043762E+00 0.97932987E+03</pdfrwt>
<pdfrwt beam="2">  1       -2 0.19395989E+00 0.97932987E+03</pdfrwt>
<totfact> 0.18488289E+00</totfact>
</mgrwt>
</event>
<event>
 4    1  0.1033139E-008  0.6517662E+03  0.7818608E-02  0.9803471E-01
          2   -1    0    0  501    0  0.00000000000E+00  0.00000000000E+00  0.27513045499E+04  0.27513045499E+04  0.25500000000E-02 0. -1.
         -2   -1    0    0    0  501 -0.00000000000E+00 -0.00000000000E+00 -0.82983622184E+03  0.82983622184E+03  0.25500000000E-02 0.  1.
    8880022    1    1    2    0    0 -0.60687241619E+02  0.63065411578E+03 -0.65469394652E+03  0.92380916409E+03  0.15294330000E+03 0.  0.
    8880022    1    1    2    0    0  0.60687241619E+02 -0.63065411578E+03  0.25761622746E+04  0.26573316077E+04  0.15294330000E+03 0.  0.
<mgrwt>
<rscale>  0 0.65176622E+03</rscale>
<asrwt>0</asrwt>
<pdfrwt beam="1">  1        2 0.42327762E+00 0.65176622E+03</pdfrwt>
<pdfrwt beam="2">  1       -2 0.12766711E+00 0.65176622E+03</pdfrwt>
<totfact> 0.12193973E+00</totfact>
</mgrwt>
</event>
<event>
 4    1  0.1033139E-008  0.5829899E+03  0.7818608E-02  0.9941339E-01
         -2   -1    0    0    0  501 -0.00000000000E+00  0.00000000000E+00  0.64979919387E+03  0.64979919388E+03  0.25500000000E-02 0.  1.
          2   -1    0    0  501    0  0.00000000000E+00 -0.00000000000E+00 -0.14872339276E+04  0.14872339276E+04  0.25500000000E-02 0. -1.
    8880022    1    1    2    0    0 -0.14266735483E+02  0.56238955270E+03 -0.12790604110E+04  0.14056574037E+04  0.15294330000E+03 0.  0.
    8880022    1    1    2    0    0  0.14266735483E+02 -0.56238955270E+03  0.44162567723E+03  0.73137571776E+03  0.15294330000E+03 0.  1.
<mgrwt>
<rscale>  0 0.58298988E+03</rscale>
<asrwt>0</asrwt>
<pdfrwt beam="1">  1        2 0.22880522E+00 0.58298988E+03</pdfrwt>
<pdfrwt beam="2">  1       -2 0.99969107E-01 0.58298988E+03</pdfrwt>
<totfact> 0.11209341E+01</totfact>
</mgrwt>
</event>
<event>
 4    1  0.1033139E-008  0.1643659E+04  0.7818608E-02  0.8794167E-01
          2   -1    0    0  501    0  0.00000000000E+00  0.00000000000E+00  0.37435616491E+04  0.37435616491E+04  0.25500000000E-02 0. -1.
         -2   -1    0    0    0  501 -0.00000000000E+00 -0.00000000000E+00 -0.10828220040E+04  0.10828220040E+04  0.25500000000E-02 0.  1.
    8880022    1    1    2    0    0 -0.16365228878E+04  0.38071391302E+01 -0.63296410842E+02  0.16448768177E+04  0.15294330000E+03 0.  0.
    8880022    1    1    2    0    0  0.16365228878E+04 -0.38071391302E+01  0.27240360559E+04  0.31815068354E+04  0.15294330000E+03 0.  0.
<mgrwt>
<rscale>  0 0.16436585E+04</rscale>
<asrwt>0</asrwt>
<pdfrwt beam="1">  1        2 0.57593256E+00 0.16436585E+04</pdfrwt>
<pdfrwt beam="2">  1       -2 0.16658800E+00 0.16436585E+04</pdfrwt>
<totfact> 0.11444496E-01</totfact>
</mgrwt>
</event>
<event>
 4    1  0.1033139E-008  0.1291983E+04  0.7818608E-02  0.9035947E-01
         -2   -1    0    0    0  501 -0.00000000000E+00  0.00000000000E+00  0.10431672990E+04  0.10431672990E+04  0.25500000000E-02 0.  1.
          2   -1    0    0  501    0  0.00000000000E+00 -0.00000000000E+00 -0.29901686291E+04  0.29901686291E+04  0.25500000000E-02 0. -1.
    8880022    1    1    2    0    0  0.61342986244E+03  0.11267353692E+04  0.40148264056E+03  0.13529259965E+04  0.15294330000E+03 0.  1.
    8880022    1    1    2    0    0 -0.61342986244E+03 -0.11267353692E+04 -0.23484839706E+04  0.26804099316E+04  0.15294330000E+03 0.  0.
<mgrwt>
<rscale>  0 0.12919831E+04</rscale>
<asrwt>0</asrwt>
<pdfrwt beam="1">  1        2 0.46002594E+00 0.12919831E+04</pdfrwt>
<pdfrwt beam="2">  1       -2 0.16048728E+00 0.12919831E+04</pdfrwt>
<totfact> 0.42849674E-01</totfact>
</mgrwt>
</event>
<event>
 4    1  0.1033139E-008  0.4882378E+03  0.7818608E-02  0.1016895E+00
          2   -1    0    0  501    0  0.00000000000E+00  0.00000000000E+00  0.11732313738E+04  0.11732313738E+04  0.25500000000E-02 0. -1.
         -2   -1    0    0    0  501 -0.00000000000E+00 -0.00000000000E+00 -0.95519341436E+03  0.95519341436E+03  0.25500000000E-02 0.  1.
    8880022    1    1    2    0    0  0.43901568890E+03  0.14916332524E+03 -0.83524994762E+03  0.96748054280E+03  0.15294330000E+03 0.  0.
    8880022    1    1    2    0    0 -0.43901568890E+03 -0.14916332524E+03  0.10532879071E+04  0.11609442454E+04  0.15294330000E+03 0.  0.
<mgrwt>
<rscale>  0 0.48823778E+03</rscale>
<asrwt>0</asrwt>
<pdfrwt beam="1">  1        2 0.18049713E+00 0.48823778E+03</pdfrwt>
<pdfrwt beam="2">  1       -2 0.14695283E+00 0.48823778E+03</pdfrwt>
<totfact> 0.66315662E+00</totfact>
</mgrwt>
</event>
<event>
 4    1  0.1033139E-008  0.7666794E+03  0.7818608E-02  0.9609540E-01
          2   -1    0    0  501    0  0.00000000000E+00  0.00000000000E+00  0.69150894875E+03  0.69150894875E+03  0.25500000000E-02 0. -1.
         -2   -1    0    0    0  501 -0.00000000000E+00 -0.00000000000E+00 -0.22173768594E+04  0.22173768594E+04  0.25500000000E-02 0.  1.
    8880022    1    1    2    0    0 -0.24523871406E+03  0.71011523667E+03  0.37920160513E+03  0.85533103917E+03  0.15294330000E+03 0.  0.
    8880022    1    1    2    0    0  0.24523871406E+03 -0.71011523667E+03 -0.19050695157E+04  0.20535547689E+04  0.15294330000E+03 0.  0.
<mgrwt>
<rscale>  0 0.76667942E+03</rscale>
<asrwt>0</asrwt>
<pdfrwt beam="1">  1        2 0.10638599E+00 0.76667942E+03</pdfrwt>
<pdfrwt beam="2">  1       -2 0.34113490E+00 0.76667942E+03</pdfrwt>
<totfact> 0.77302439E-01</totfact>
</mgrwt>
</event>
<event>
 4    1  0.1033139E-008  0.2860601E+03  0.7818608E-02  0.1092424E+00
         -2   -1    0    0    0  501 -0.00000000000E+00  0.00000000000E+00  0.20523723173E+03  0.20523723175E+03  0.25500000000E-02 0.  1.
          2   -1    0    0  501    0  0.00000000000E+00 -0.00000000000E+00 -0.86247873912E+03  0.86247873912E+03  0.25500000000E-02 0. -1.
    8880022    1    1    2    0    0  0.21803683566E+03 -0.10439658651E+03  0.62852202795E+02  0.29288352871E+03  0.15294330000E+03 0.  0.
    8880022    1    1    2    0    0 -0.21803683566E+03  0.10439658651E+03 -0.72009371018E+03  0.77483244216E+03  0.15294330000E+03 0.  0.
<mgrwt>
<rscale>  0 0.28606007E+03</rscale>
<asrwt>0</asrwt>
<pdfrwt beam="1">  1        2 0.13268903E+00 0.28606007E+03</pdfrwt>
<pdfrwt beam="2">  1       -2 0.31574959E-01 0.28606007E+03</pdfrwt>
<totfact> 0.30126509E+02</totfact>
</mgrwt>
</event>
<event>
 4    1  0.1033139E-008  0.1334355E+04  0.7818608E-02  0.9002757E-01
         -2   -1    0    0    0  501 -0.00000000000E+00  0.00000000000E+00  0.79745814195E+03  0.79745814195E+03  0.25500000000E-02 0.  1.
          2   -1    0    0  501    0  0.00000000000E+00 -0.00000000000E+00 -0.30397372939E+04  0.30397372939E+04  0.25500000000E-02 0. -1.
    8880022    1    1    2    0    0  0.60588990648E+03 -0.11789859257E+04 -0.13257082280E+03  0.13409239605E+04  0.15294330000E+03 0.  0.
    8880022    1    1    2    0    0 -0.60588990648E+03  0.11789859257E+04 -0.21097083292E+04  0.24962714754E+04  0.15294330000E+03 0.  0.
<mgrwt>
<rscale>  0 0.13343545E+04</rscale>
<asrwt>0</asrwt>
<pdfrwt beam="1">  1        2 0.46765189E+00 0.13343545E+04</pdfrwt>
<pdfrwt beam="2">  1       -2 0.12268587E+00 0.13343545E+04</pdfrwt>
<totfact> 0.80199573E-01</totfact>
</mgrwt>
</event>
<event>
 4    1  0.1033139E-008  0.1523596E+04  0.7818608E-02  0.8868912E-01
         -2   -1    0    0    0  501 -0.00000000000E+00  0.00000000000E+00  0.94377288333E+03  0.94377288333E+03  0.25500000000E-02 0.  1.
          2   -1    0    0  501    0  0.00000000000E+00 -0.00000000000E+00 -0.25499878838E+04  0.25499878838E+04  0.25500000000E-02 0. -1.
    8880022    1    1    2    0    0 -0.88467363706E+03  0.12309776080E+04 -0.47429799982E+03  0.15957141226E+04  0.15294330000E+03 0.  0.
    8880022    1    1    2    0    0  0.88467363706E+03 -0.12309776080E+04 -0.11319170006E+04  0.18980466445E+04  0.15294330000E+03 0.  0.
<mgrwt>
<rscale>  0 0.15235961E+04</rscale>
<asrwt>0</asrwt>
<pdfrwt beam="1">  1        2 0.39230582E+00 0.15235961E+04</pdfrwt>
<pdfrwt beam="2">  1       -2 0.14519583E+00 0.15235961E+04</pdfrwt>
<totfact> 0.10029047E+00</totfact>
</mgrwt>
</event>
<event>
 4    1  0.1033139E-008  0.1934639E+04  0.7818608E-02  0.8637804E-01
          2   -1    0    0  501    0  0.00000000000E+00  0.00000000000E+00  0.32442994205E+04  0.32442994205E+04  0.25500000000E-02 0. -1.
         -2   -1    0    0    0  501 -0.00000000000E+00 -0.00000000000E+00 -0.15504084786E+04  0.15504084786E+04  0.25500000000E-02 0.  1.
    8880022    1    1    2    0    0 -0.62016373686E+03  0.18261527003E+04  0.20596780688E+04  0.28257923040E+04  0.15294330000E+03 0.  0.
    8880022    1    1    2    0    0  0.62016373686E+03 -0.18261527003E+04 -0.36578712694E+03  0.19689155951E+04  0.15294330000E+03 0.  0.
<mgrwt>
<rscale>  0 0.19346391E+04</rscale>
<asrwt>0</asrwt>
<pdfrwt beam="1">  1        2 0.49912298E+00 0.19346391E+04</pdfrwt>
<pdfrwt beam="2">  1       -2 0.23852439E+00 0.19346391E+04</pdfrwt>
<totfact> 0.82124179E-02</totfact>
</mgrwt>
</event>
<event>
 4    1  0.1033139E-008  0.6585953E+03  0.7818608E-02  0.9790783E-01
          2   -1    0    0  501    0  0.00000000000E+00  0.00000000000E+00  0.16497215798E+04  0.16497215798E+04  0.25500000000E-02 0. -1.
         -2   -1    0    0    0  501 -0.00000000000E+00 -0.00000000000E+00 -0.61380972029E+03  0.61380972029E+03  0.25500000000E-02 0.  1.
    8880022    1    1    2    0    0  0.28744185449E+03  0.57247992572E+03  0.13736604920E+04  0.15233813985E+04  0.15294330000E+03 0. -1.
    8880022    1    1    2    0    0 -0.28744185449E+03 -0.57247992572E+03 -0.33774863248E+03  0.74014990159E+03  0.15294330000E+03 0.  0.
<mgrwt>
<rscale>  0 0.65859528E+03</rscale>
<asrwt>0</asrwt>
<pdfrwt beam="1">  1        2 0.25380332E+00 0.65859528E+03</pdfrwt>
<pdfrwt beam="2">  1       -2 0.94432264E-01 0.65859528E+03</pdfrwt>
<totfact> 0.10299852E+01</totfact>
</mgrwt>
</event>
<event>
 4    1  0.1033139E-008  0.1908827E+03  0.7818608E-02  0.1157668E+00
          2   -1    0    0  501    0  0.00000000000E+00  0.00000000000E+00  0.11598331376E+04  0.11598331376E+04  0.25500000000E-02 0. -1.
         -2   -1    0    0    0  501 -0.00000000000E+00 -0.00000000000E+00 -0.56635837548E+03  0.56635837549E+03  0.25500000000E-02 0.  1.
    8880022    1    1    2    0    0  0.15205688062E+02  0.11319608745E+03  0.11355543410E+04  0.11514859450E+04  0.15294330000E+03 0.  0.
    8880022    1    1    2    0    0 -0.15205688062E+02 -0.11319608745E+03 -0.54207957887E+03  0.57470556810E+03  0.15294330000E+03 0.  0.
<mgrwt>
<rscale>  0 0.19088274E+03</rscale>
<asrwt>0</asrwt>
<pdfrwt beam="1">  1        2 0.17843586E+00 0.19088274E+03</pdfrwt>
<pdfrwt beam="2">  1       -2 0.87132059E-01 0.19088274E+03</pdfrwt>
<totfact> 0.25955397E+01</totfact>
</mgrwt>
</event>
<event>
 4    1  0.1033139E-008  0.5684387E+03  0.7818608E-02  0.9973140E-01
          2   -1    0    0  501    0  0.00000000000E+00  0.00000000000E+00  0.96326456997E+03  0.96326456997E+03  0.25500000000E-02 0. -1.
         -2   -1    0    0    0  501 -0.00000000000E+00 -0.00000000000E+00 -0.16440295298E+04  0.16440295298E+04  0.25500000000E-02 0.  1.
    8880022    1    1    2    0    0  0.54658870378E+03  0.31171571168E+02  0.82268809234E+03  0.99996911364E+03  0.15294330000E+03 0.  0.
    8880022    1    1    2    0    0 -0.54658870378E+03 -0.31171571168E+02 -0.15034530521E+04  0.16073249861E+04  0.15294330000E+03 0.  0.
<mgrwt>
<rscale>  0 0.56843868E+03</rscale>
<asrwt>0</asrwt>
<pdfrwt beam="1">  1        2 0.14819455E+00 0.56843868E+03</pdfrwt>
<pdfrwt beam="2">  1       -2 0.25292762E+00 0.56843868E+03</pdfrwt>
<totfact> 0.17582427E+00</totfact>
</mgrwt>
</event>
<event>
 4    1  0.1033139E-008  0.1019563E+04  0.7818608E-02  0.9287345E-01
          2   -1    0    0  501    0  0.00000000000E+00  0.00000000000E+00  0.25241115974E+04  0.25241115974E+04  0.25500000000E-02 0. -1.
         -2   -1    0    0    0  501 -0.00000000000E+00 -0.00000000000E+00 -0.46985528100E+03  0.46985528100E+03  0.25500000000E-02 0.  1.
    8880022    1    1    2    0    0 -0.58470359070E+03 -0.82112088743E+03  0.15531899784E+04  0.18579312589E+04  0.15294330000E+03 0.  0.
    8880022    1    1    2    0    0  0.58470359070E+03  0.82112088743E+03  0.50106633804E+03  0.11360356195E+04  0.15294330000E+03 0.  0.
<mgrwt>
<rscale>  0 0.10195634E+04</rscale>
<asrwt>0</asrwt>
<pdfrwt beam="1">  1        2 0.38832487E+00 0.10195634E+04</pdfrwt>
<pdfrwt beam="2">  1       -2 0.72285426E-01 0.10195634E+04</pdfrwt>
<totfact> 0.58906348E+00</totfact>
</mgrwt>
</event>
<event>
 4    1  0.1033139E-008  0.7948080E+03  0.7818608E-02  0.9567563E-01
         -2   -1    0    0    0  501 -0.00000000000E+00  0.00000000000E+00  0.48613349733E+03  0.48613349734E+03  0.25500000000E-02 0.  1.
          2   -1    0    0  501    0  0.00000000000E+00 -0.00000000000E+00 -0.16021407626E+04  0.16021407626E+04  0.25500000000E-02 0. -1.
    8880022    1    1    2    0    0  0.69217502570E+03 -0.35947437991E+03 -0.10118268950E+04  0.12866675618E+04  0.15294330000E+03 0.  0.
    8880022    1    1    2    0    0 -0.69217502570E+03  0.35947437991E+03 -0.10418037028E+03  0.80160669819E+03  0.15294330000E+03 0.  0.
<mgrwt>
<rscale>  0 0.79480800E+03</rscale>
<asrwt>0</asrwt>
<pdfrwt beam="1">  1        2 0.24648319E+00 0.79480800E+03</pdfrwt>
<pdfrwt beam="2">  1       -2 0.74789770E-01 0.79480800E+03</pdfrwt>
<totfact> 0.18232504E+01</totfact>
</mgrwt>
</event>
<event>
 4    1  0.1033139E-008  0.7757968E+03  0.7818608E-02  0.9595726E-01
          2   -1    0    0  501    0  0.00000000000E+00  0.00000000000E+00  0.11089001312E+04  0.11089001312E+04  0.25500000000E-02 0. -1.
         -2   -1    0    0    0  501 -0.00000000000E+00 -0.00000000000E+00 -0.70460561126E+03  0.70460561126E+03  0.25500000000E-02 0.  1.
    8880022    1    1    2    0    0 -0.75725901419E+03 -0.70907275126E+02  0.63673105111E+03  0.10036369566E+04  0.15294330000E+03 0.  0.
    8880022    1    1    2    0    0  0.75725901419E+03  0.70907275126E+02 -0.23243653118E+03  0.80986878584E+03  0.15294330000E+03 0.  0.
<mgrwt>
<rscale>  0 0.77579682E+03</rscale>
<asrwt>0</asrwt>
<pdfrwt beam="1">  1        2 0.17060002E+00 0.77579682E+03</pdfrwt>
<pdfrwt beam="2">  1       -2 0.10840086E+00 0.77579682E+03</pdfrwt>
<totfact> 0.14866778E+01</totfact>
</mgrwt>
</event>
<event>
 4    1  0.1033139E-008  0.2689059E+03  0.7818608E-02  0.1101907E+00
          2   -1    0    0  501    0  0.00000000000E+00  0.00000000000E+00  0.77900295908E+03  0.77900295908E+03  0.25500000000E-02 0. -1.
         -2   -1    0    0    0  501 -0.00000000000E+00 -0.00000000000E+00 -0.24143463919E+03  0.24143463921E+03  0.25500000000E-02 0.  1.
    8880022    1    1    2    0    0 -0.49408501569E+02  0.21558649817E+03  0.66908011707E+03  0.72109541276E+03  0.15294330000E+03 0.  0.
    8880022    1    1    2    0    0  0.49408501569E+02 -0.21558649817E+03 -0.13151179719E+03  0.29934218553E+03  0.15294330000E+03 0.  0.
<mgrwt>
<rscale>  0 0.26890592E+03</rscale>
<asrwt>0</asrwt>
<pdfrwt beam="1">  1        2 0.11984661E+00 0.26890592E+03</pdfrwt>
<pdfrwt beam="2">  1       -2 0.37143791E-01 0.26890592E+03</pdfrwt>
<totfact> 0.25428007E+02</totfact>
</mgrwt>
</event>
<event>
 4    1  0.1188769E-008  0.1035373E+04  0.7818608E-02  0.9270577E-01
          2   -1    0    0  501    0  0.00000000000E+00  0.00000000000E+00  0.16630490892E+04  0.16630490892E+04  0.25500000000E-02 0. -1.
         -2   -1    0    0    0  501 -0.00000000000E+00 -0.00000000000E+00 -0.17069203057E+04  0.17069203057E+04  0.25500000000E-02 0.  1.
    8880022    1    1    2    0    0 -0.51126538669E+03 -0.88725044915E+03 -0.13512190295E+04  0.17022896856E+04  0.15294330000E+03 0.  0.
    8880022    1    1    2    0    0  0.51126538669E+03  0.88725044915E+03  0.13073478130E+04  0.16676797092E+04  0.15294330000E+03 0.  0.
<mgrwt>
<rscale>  0 0.10353730E+04</rscale>
<asrwt>0</asrwt>
<pdfrwt beam="1">  1        2 0.25585371E+00 0.10353730E+04</pdfrwt>
<pdfrwt beam="2">  1       -2 0.26260312E+00 0.10353730E+04</pdfrwt>
<totfact> 0.55061185E-01</totfact>
</mgrwt>
</event>
<event>
 4    1  0.1033139E-008  0.4521777E+03  0.7818608E-02  0.1027075E+00
          2   -1    0    0  501    0  0.00000000000E+00  0.00000000000E+00  0.12743145902E+04  0.12743145902E+04  0.25500000000E-02 0. -1.
         -2   -1    0    0    0  501 -0.00000000000E+00 -0.00000000000E+00 -0.13627781178E+04  0.13627781178E+04  0.25500000000E-02 0.  1.
    8880022    1    1    2    0    0  0.34540537181E+03  0.24853196813E+03  0.11942630793E+04  0.12769999865E+04  0.15294330000E+03 0. -1.
    8880022    1    1    2    0    0 -0.34540537181E+03 -0.24853196813E+03 -0.12827266069E+04  0.13600927215E+04  0.15294330000E+03 0.  0.
<mgrwt>
<rscale>  0 0.45217769E+03</rscale>
<asrwt>0</asrwt>
<pdfrwt beam="1">  1        2 0.19604840E+00 0.45217769E+03</pdfrwt>
<pdfrwt beam="2">  1       -2 0.20965817E+00 0.45217769E+03</pdfrwt>
<totfact> 0.21652915E+00</totfact>
</mgrwt>
</event>
<event>
 4    1  0.1033139E-008  0.3964140E+03  0.7818608E-02  0.1045028E+00
          2   -1    0    0  501    0  0.00000000000E+00  0.00000000000E+00  0.15349612811E+04  0.15349612811E+04  0.25500000000E-02 0. -1.
         -2   -1    0    0    0  501 -0.00000000000E+00 -0.00000000000E+00 -0.43805295764E+03  0.43805295765E+03  0.25500000000E-02 0.  1.
    8880022    1    1    2    0    0 -0.13029118207E+03  0.34172596125E+03  0.14120236889E+04  0.14666134378E+04  0.15294330000E+03 0.  0.
    8880022    1    1    2    0    0  0.13029118207E+03 -0.34172596125E+03 -0.31511536544E+03  0.50640080101E+03  0.15294330000E+03 0.  0.
<mgrwt>
<rscale>  0 0.39641402E+03</rscale>
<asrwt>0</asrwt>
<pdfrwt beam="1">  1        2 0.23614789E+00 0.39641402E+03</pdfrwt>
<pdfrwt beam="2">  1       -2 0.67392763E-01 0.39641402E+03</pdfrwt>
<totfact> 0.26570175E+01</totfact>
</mgrwt>
</event>
<event>
 4    1  0.1033139E-008  0.7472474E+03  0.7818608E-02  0.9639679E-01
          2   -1    0    0  501    0  0.00000000000E+00  0.00000000000E+00  0.71883848863E+03  0.71883848863E+03  0.25500000000E-02 0. -1.
         -2   -1    0    0    0  501 -0.00000000000E+00 -0.00000000000E+00 -0.16520452872E+04  0.16520452872E+04  0.25500000000E-02 0.  1.
    8880022    1    1    2    0    0 -0.43244960650E+01  0.73141533078E+03 -0.13294614620E+04  0.15250726276E+04  0.15294330000E+03 0.  0.
    8880022    1    1    2    0    0  0.43244960650E+01 -0.73141533078E+03  0.39625466338E+03  0.84581114833E+03  0.15294330000E+03 0.  0.
<mgrwt>
<rscale>  0 0.74724744E+03</rscale>
<asrwt>0</asrwt>
<pdfrwt beam="1">  1        2 0.11059054E+00 0.74724744E+03</pdfrwt>
<pdfrwt beam="2">  1       -2 0.25416081E+00 0.74724744E+03</pdfrwt>
<totfact> 0.24774255E+00</totfact>
</mgrwt>
</event>
<event>
 4    1  0.1033139E-008  0.1284189E+04  0.7818608E-02  0.9042198E-01
         -2   -1    0    0    0  501 -0.00000000000E+00  0.00000000000E+00  0.94400877285E+03  0.94400877285E+03  0.25500000000E-02 0.  1.
          2   -1    0    0  501    0  0.00000000000E+00 -0.00000000000E+00 -0.35597595262E+04  0.35597595262E+04  0.25500000000E-02 0. -1.
    8880022    1    1    2    0    0  0.57297040630E+03 -0.11390584781E+04 -0.29148580273E+04  0.31852061590E+04  0.15294330000E+03 0.  0.
    8880022    1    1    2    0    0 -0.57297040630E+03  0.11390584781E+04  0.29910727388E+03  0.13185621401E+04  0.15294330000E+03 0.  0.
<mgrwt>
<rscale>  0 0.12841888E+04</rscale>
<asrwt>0</asrwt>
<pdfrwt beam="1">  1        2 0.54765531E+00 0.12841888E+04</pdfrwt>
<pdfrwt beam="2">  1       -2 0.14523212E+00 0.12841888E+04</pdfrwt>
<totfact> 0.23674302E-01</totfact>
</mgrwt>
</event>
<event>
 4    1  0.1033139E-008  0.6576711E+03  0.7818608E-02  0.9792490E-01
          2   -1    0    0  501    0  0.00000000000E+00  0.00000000000E+00  0.15063872816E+04  0.15063872816E+04  0.25500000000E-02 0. -1.
         -2   -1    0    0    0  501 -0.00000000000E+00 -0.00000000000E+00 -0.16100227523E+04  0.16100227523E+04  0.25500000000E-02 0.  1.
    8880022    1    1    2    0    0  0.34620556303E+03  0.53784877223E+03  0.13606243949E+04  0.15112345916E+04  0.15294330000E+03 0.  0.
    8880022    1    1    2    0    0 -0.34620556303E+03 -0.53784877223E+03 -0.14642598656E+04  0.16051754424E+04  0.15294330000E+03 0.  0.
<mgrwt>
<rscale>  0 0.65767108E+03</rscale>
<asrwt>0</asrwt>
<pdfrwt beam="1">  1        2 0.23175189E+00 0.65767108E+03</pdfrwt>
<pdfrwt beam="2">  1       -2 0.24769581E+00 0.65767108E+03</pdfrwt>
<totfact> 0.88841595E-01</totfact>
</mgrwt>
</event>
<event>
 4    1  0.1033139E-008  0.5526995E+03  0.7818608E-02  0.1000871E+00
          2   -1    0    0  501    0  0.00000000000E+00  0.00000000000E+00  0.55535123541E+03  0.55535123542E+03  0.25500000000E-02 0. -1.
         -2   -1    0    0    0  501 -0.00000000000E+00 -0.00000000000E+00 -0.20452986799E+04  0.20452986799E+04  0.25500000000E-02 0.  1.
    8880022    1    1    2    0    0  0.12301058055E+03 -0.51667541418E+03  0.36683154773E+03  0.66335670945E+03  0.15294330000E+03 0.  0.
    8880022    1    1    2    0    0 -0.12301058055E+03  0.51667541418E+03 -0.18567789923E+04  0.19372932059E+04  0.15294330000E+03 0.  0.
<mgrwt>
<rscale>  0 0.55269950E+03</rscale>
<asrwt>0</asrwt>
<pdfrwt beam="1">  1        2 0.85438653E-01 0.55269950E+03</pdfrwt>
<pdfrwt beam="2">  1       -2 0.31466133E+00 0.55269950E+03</pdfrwt>
<totfact> 0.15282072E+00</totfact>
</mgrwt>
</event>
<event>
 4    1  0.1033139E-008  0.1776289E+04  0.7818608E-02  0.8719011E-01
          2   -1    0    0  501    0  0.00000000000E+00  0.00000000000E+00  0.13167850913E+04  0.13167850913E+04  0.25500000000E-02 0. -1.
         -2   -1    0    0    0  501 -0.00000000000E+00 -0.00000000000E+00 -0.39230574811E+04  0.39230574811E+04  0.25500000000E-02 0.  1.
    8880022    1    1    2    0    0 -0.82172228540E+03  0.15673493734E+04  0.33135843184E+03  0.18069315526E+04  0.15294330000E+03 0.  0.
    8880022    1    1    2    0    0  0.82172228540E+03 -0.15673493734E+04 -0.29376308216E+04  0.34329110198E+04  0.15294330000E+03 0.  0.
<mgrwt>
<rscale>  0 0.17762892E+04</rscale>
<asrwt>0</asrwt>
<pdfrwt beam="1">  1        2 0.20258232E+00 0.17762892E+04</pdfrwt>
<pdfrwt beam="2">  1       -2 0.60354730E+00 0.17762892E+04</pdfrwt>
<totfact> 0.70423940E-03</totfact>
</mgrwt>
</event>
<event>
 4    1  0.1033139E-008  0.2285220E+03  0.7818608E-02  0.1127684E+00
         -2   -1    0    0    0  501 -0.00000000000E+00  0.00000000000E+00  0.29054436157E+03  0.29054436158E+03  0.25500000000E-02 0.  1.
          2   -1    0    0  501    0  0.00000000000E+00 -0.00000000000E+00 -0.21386783237E+03  0.21386783239E+03  0.25500000000E-02 0. -1.
    8880022    1    1    2    0    0 -0.36495572463E+02  0.16582734463E+03  0.13908723238E+03  0.26752111367E+03  0.15294330000E+03 0.  0.
    8880022    1    1    2    0    0  0.36495572463E+02 -0.16582734463E+03 -0.62410703190E+02  0.23689108029E+03  0.15294330000E+03 0. -1.
<mgrwt>
<rscale>  0 0.22852196E+03</rscale>
<asrwt>0</asrwt>
<pdfrwt beam="1">  1        2 0.32902744E-01 0.22852196E+03</pdfrwt>
<pdfrwt beam="2">  1       -2 0.44699132E-01 0.22852196E+03</pdfrwt>
<totfact> 0.76002260E+02</totfact>
</mgrwt>
</event>
<event>
 4    1  0.1033139E-008  0.1205906E+04  0.7818608E-02  0.9107703E-01
         -2   -1    0    0    0  501 -0.00000000000E+00  0.00000000000E+00  0.14367181202E+04  0.14367181202E+04  0.25500000000E-02 0.  1.
          2   -1    0    0  501    0  0.00000000000E+00 -0.00000000000E+00 -0.11421850808E+04  0.11421850808E+04  0.25500000000E-02 0. -1.
    8880022    1    1    2    0    0  0.11053025368E+04  0.45730000289E+03 -0.28777137132E+03  0.12397665126E+04  0.15294330000E+03 0.  0.
    8880022    1    1    2    0    0 -0.11053025368E+04 -0.45730000289E+03  0.58230441070E+03  0.13391366884E+04  0.15294330000E+03 0.  0.
<mgrwt>
<rscale>  0 0.12059057E+04</rscale>
<asrwt>0</asrwt>
<pdfrwt beam="1">  1        2 0.17572078E+00 0.12059057E+04</pdfrwt>
<pdfrwt beam="2">  1       -2 0.22103356E+00 0.12059057E+04</pdfrwt>
<totfact> 0.19406798E+00</totfact>
</mgrwt>
</event>
<event>
 4    1  0.1033139E-008  0.1159295E+04  0.7818608E-02  0.9149251E-01
          2   -1    0    0  501    0  0.00000000000E+00  0.00000000000E+00  0.26838914604E+04  0.26838914604E+04  0.25500000000E-02 0. -1.
         -2   -1    0    0    0  501 -0.00000000000E+00 -0.00000000000E+00 -0.72557108522E+03  0.72557108522E+03  0.25500000000E-02 0.  1.
    8880022    1    1    2    0    0  0.81994541637E+03  0.80514741448E+03  0.19280862168E+04  0.22497735346E+04  0.15294330000E+03 0.  0.
    8880022    1    1    2    0    0 -0.81994541637E+03 -0.80514741448E+03  0.30234158426E+02  0.11596890110E+04  0.15294330000E+03 0.  0.
<mgrwt>
<rscale>  0 0.11592948E+04</rscale>
<asrwt>0</asrwt>
<pdfrwt beam="1">  1        2 0.41290637E+00 0.11592948E+04</pdfrwt>
<pdfrwt beam="2">  1       -2 0.11162632E+00 0.11592948E+04</pdfrwt>
<totfact> 0.17027534E+00</totfact>
</mgrwt>
</event>
<event>
 4    1  0.1033139E-008  0.1705115E+04  0.7818608E-02  0.8758452E-01
          2   -1    0    0  501    0  0.00000000000E+00  0.00000000000E+00  0.24333758978E+04  0.24333758978E+04  0.25500000000E-02 0. -1.
         -2   -1    0    0    0  501 -0.00000000000E+00 -0.00000000000E+00 -0.17685389243E+04  0.17685389243E+04  0.25500000000E-02 0.  1.
    8880022    1    1    2    0    0 -0.38943488702E+03 -0.16529869749E+04 -0.86422297456E+03  0.19116219483E+04  0.15294330000E+03 0.  0.
    8880022    1    1    2    0    0  0.38943488702E+03  0.16529869749E+04  0.15290599481E+04  0.22902928739E+04  0.15294330000E+03 0.  0.
<mgrwt>
<rscale>  0 0.17051150E+04</rscale>
<asrwt>0</asrwt>
<pdfrwt beam="1">  1        2 0.37436552E+00 0.17051150E+04</pdfrwt>
<pdfrwt beam="2">  1       -2 0.27208291E+00 0.17051150E+04</pdfrwt>
<totfact> 0.16389899E-01</totfact>
</mgrwt>
</event>
<event>
 4    1  0.1033139E-008  0.4779444E+03  0.7818608E-02  0.1019702E+00
          2   -1    0    0  501    0  0.00000000000E+00  0.00000000000E+00  0.14736556497E+04  0.14736556497E+04  0.25500000000E-02 0. -1.
         -2   -1    0    0    0  501 -0.00000000000E+00 -0.00000000000E+00 -0.16028126447E+04  0.16028126447E+04  0.25500000000E-02 0.  1.
    8880022    1    1    2    0    0 -0.40160219548E+03  0.20917668454E+03 -0.15265395462E+04  0.15996105300E+04  0.15294330000E+03 0.  0.
    8880022    1    1    2    0    0  0.40160219548E+03 -0.20917668454E+03  0.13973825512E+04  0.14768577644E+04  0.15294330000E+03 0.  0.
<mgrwt>
<rscale>  0 0.47794441E+03</rscale>
<asrwt>0</asrwt>
<pdfrwt beam="1">  1        2 0.22671625E+00 0.47794441E+03</pdfrwt>
<pdfrwt beam="2">  1       -2 0.24658656E+00 0.47794441E+03</pdfrwt>
<totfact> 0.98744354E-01</totfact>
</mgrwt>
</event>
<event>
 4    1  0.1033139E-008  0.4551515E+03  0.7818608E-02  0.1026197E+00
         -2   -1    0    0    0  501 -0.00000000000E+00  0.00000000000E+00  0.19502236893E+04  0.19502236893E+04  0.25500000000E-02 0.  1.
          2   -1    0    0  501    0  0.00000000000E+00 -0.00000000000E+00 -0.11928312567E+04  0.11928312567E+04  0.25500000000E-02 0. -1.
    8880022    1    1    2    0    0  0.21279080819E+03  0.37214419266E+03 -0.11212252999E+04  0.12100863830E+04  0.15294330000E+03 0.  0.
    8880022    1    1    2    0    0 -0.21279080819E+03 -0.37214419266E+03  0.18786177325E+04  0.19329685631E+04  0.15294330000E+03 0.  0.
<mgrwt>
<rscale>  0 0.45515149E+03</rscale>
<asrwt>0</asrwt>
<pdfrwt beam="1">  1        2 0.18351250E+00 0.45515149E+03</pdfrwt>
<pdfrwt beam="2">  1       -2 0.30003441E+00 0.45515149E+03</pdfrwt>
<totfact> 0.68978120E-01</totfact>
</mgrwt>
</event>
<event>
 4    1  0.1033139E-008  0.1542776E+04  0.7818608E-02  0.8856496E-01
          2   -1    0    0  501    0  0.00000000000E+00  0.00000000000E+00  0.10960029493E+04  0.10960029493E+04  0.25500000000E-02 0. -1.
         -2   -1    0    0    0  501 -0.00000000000E+00 -0.00000000000E+00 -0.24456055876E+04  0.24456055876E+04  0.25500000000E-02 0.  1.
    8880022    1    1    2    0    0  0.13811718832E+04 -0.67017095737E+03 -0.82146642387E+02  0.15449610373E+04  0.15294330000E+03 0.  0.
    8880022    1    1    2    0    0 -0.13811718832E+04  0.67017095737E+03 -0.12674559959E+04  0.19966474996E+04  0.15294330000E+03 0.  0.
<mgrwt>
<rscale>  0 0.15427756E+04</rscale>
<asrwt>0</asrwt>
<pdfrwt beam="1">  1        2 0.16861584E+00 0.15427756E+04</pdfrwt>
<pdfrwt beam="2">  1       -2 0.37624701E+00 0.15427756E+04</pdfrwt>
<totfact> 0.21885700E-01</totfact>
</mgrwt>
</event>
<event>
 4    1  0.1033139E-008  0.4399894E+03  0.7818608E-02  0.1030750E+00
         -2   -1    0    0    0  501 -0.00000000000E+00  0.00000000000E+00  0.31712428522E+03  0.31712428523E+03  0.25500000000E-02 0.  1.
          2   -1    0    0  501    0  0.00000000000E+00 -0.00000000000E+00 -0.13711650813E+04  0.13711650813E+04  0.25500000000E-02 0. -1.
    8880022    1    1    2    0    0 -0.40041459120E+03  0.99333589920E+02  0.10173409849E+03  0.45159770453E+03  0.15294330000E+03 0.  0.
    8880022    1    1    2    0    0  0.40041459120E+03 -0.99333589920E+02 -0.11557748946E+04  0.12366916620E+04  0.15294330000E+03 0.  0.
<mgrwt>
<rscale>  0 0.43998939E+03</rscale>
<asrwt>0</asrwt>
<pdfrwt beam="1">  1        2 0.21094847E+00 0.43998939E+03</pdfrwt>
<pdfrwt beam="2">  1       -2 0.48788352E-01 0.43998939E+03</pdfrwt>
<totfact> 0.63351878E+01</totfact>
</mgrwt>
</event>
<event>
 4    1  0.1033139E-008  0.7138658E+03  0.7818608E-02  0.9693809E-01
          2   -1    0    0  501    0  0.00000000000E+00  0.00000000000E+00  0.16819657231E+04  0.16819657231E+04  0.25500000000E-02 0. -1.
         -2   -1    0    0    0  501 -0.00000000000E+00 -0.00000000000E+00 -0.76609756857E+03  0.76609756857E+03  0.25500000000E-02 0.  1.
    8880022    1    1    2    0    0 -0.62960292153E+03  0.29968797924E+03 -0.49375604726E+03  0.86798583567E+03  0.15294330000E+03 0.  1.
    8880022    1    1    2    0    0  0.62960292153E+03 -0.29968797924E+03  0.14096242018E+04  0.15800774560E+04  0.15294330000E+03 0.  0.
<mgrwt>
<rscale>  0 0.71386580E+03</rscale>
<asrwt>0</asrwt>
<pdfrwt beam="1">  1        2 0.25876396E+00 0.71386580E+03</pdfrwt>
<pdfrwt beam="2">  1       -2 0.11786116E+00 0.71386580E+03</pdfrwt>
<totfact> 0.57650189E+00</totfact>
</mgrwt>
</event>
<event>
 4    1  0.1033139E-008  0.9955236E+03  0.7818608E-02  0.9313468E-01
          2   -1    0    0  501    0  0.00000000000E+00  0.00000000000E+00  0.24616990889E+04  0.24616990889E+04  0.25500000000E-02 0. -1.
         -2   -1    0    0    0  501 -0.00000000000E+00 -0.00000000000E+00 -0.85329878210E+03  0.85329878210E+03  0.25500000000E-02 0.  1.
    8880022    1    1    2    0    0  0.75181985247E+03  0.63438355464E+03 -0.40041520424E+03  0.10730328857E+04  0.15294330000E+03 0.  0.
    8880022    1    1    2    0    0 -0.75181985247E+03 -0.63438355464E+03  0.20088155110E+04  0.22419649853E+04  0.15294330000E+03 0.  0.
<mgrwt>
<rscale>  0 0.99552360E+03</rscale>
<asrwt>0</asrwt>
<pdfrwt beam="1">  1        2 0.37872294E+00 0.99552360E+03</pdfrwt>
<pdfrwt beam="2">  1       -2 0.13127674E+00 0.99552360E+03</pdfrwt>
<totfact> 0.15620603E+00</totfact>
</mgrwt>
</event>
<event>
 4    1  0.1033139E-008  0.2737720E+03  0.7818608E-02  0.1099140E+00
          2   -1    0    0  501    0  0.00000000000E+00  0.00000000000E+00  0.44008576630E+03  0.44008576631E+03  0.25500000000E-02 0. -1.
         -2   -1    0    0    0  501 -0.00000000000E+00 -0.00000000000E+00 -0.33055009521E+03  0.33055009522E+03  0.25500000000E-02 0.  1.
    8880022    1    1    2    0    0  0.12855602760E+03  0.18717054522E+03 -0.21351064026E+03  0.34718570211E+03  0.15294330000E+03 0.  0.
    8880022    1    1    2    0    0 -0.12855602760E+03 -0.18717054522E+03  0.32304631134E+03  0.42345015942E+03  0.15294330000E+03 0.  0.
<mgrwt>
<rscale>  0 0.27377202E+03</rscale>
<asrwt>0</asrwt>
<pdfrwt beam="1">  1        2 0.67705502E-01 0.27377202E+03</pdfrwt>
<pdfrwt beam="2">  1       -2 0.50853861E-01 0.27377202E+03</pdfrwt>
<totfact> 0.26867551E+02</totfact>
</mgrwt>
</event>
<event>
 4    1  0.1033139E-008  0.1263574E+04  0.7818608E-02  0.9058961E-01
         -2   -1    0    0    0  501 -0.00000000000E+00  0.00000000000E+00  0.15448673746E+04  0.15448673746E+04  0.25500000000E-02 0.  1.
          2   -1    0    0  501    0  0.00000000000E+00 -0.00000000000E+00 -0.11929079742E+04  0.11929079742E+04  0.25500000000E-02 0. -1.
    8880022    1    1    2    0    0 -0.12452956630E+04  0.14988582299E+03  0.67638383476E+03  0.14332179852E+04  0.15294330000E+03 0.  0.
    8880022    1    1    2    0    0  0.12452956630E+04 -0.14988582299E+03 -0.32442443438E+03  0.13045573636E+04  0.15294330000E+03 0.  0.
<mgrwt>
<rscale>  0 0.12635738E+04</rscale>
<asrwt>0</asrwt>
<pdfrwt beam="1">  1        2 0.18352430E+00 0.12635738E+04</pdfrwt>
<pdfrwt beam="2">  1       -2 0.23767190E+00 0.12635738E+04</pdfrwt>
<totfact> 0.14142339E+00</totfact>
</mgrwt>
</event>
<event>
 4    1  0.1033139E-008  0.1301816E+04  0.7818608E-02  0.9028127E-01
         -2   -1    0    0    0  501 -0.00000000000E+00  0.00000000000E+00  0.14183664312E+04  0.14183664312E+04  0.25500000000E-02 0.  1.
          2   -1    0    0  501    0  0.00000000000E+00 -0.00000000000E+00 -0.21415138106E+04  0.21415138106E+04  0.25500000000E-02 0. -1.
    8880022    1    1    2    0    0 -0.20667751949E+03 -0.12761725766E+04  0.82186207372E+03  0.15395392049E+04  0.15294330000E+03 0.  0.
    8880022    1    1    2    0    0  0.20667751949E+03  0.12761725766E+04 -0.15450094531E+04  0.20203410369E+04  0.15294330000E+03 0.  0.
<mgrwt>
<rscale>  0 0.13018155E+04</rscale>
<asrwt>0</asrwt>
<pdfrwt beam="1">  1        2 0.32946366E+00 0.13018155E+04</pdfrwt>
<pdfrwt beam="2">  1       -2 0.21821022E+00 0.13018155E+04</pdfrwt>
<totfact> 0.54234711E-01</totfact>
</mgrwt>
</event>
<event>
 4    1  0.1033139E-008  0.1591265E+04  0.7818608E-02  0.8825932E-01
         -2   -1    0    0    0  501 -0.00000000000E+00  0.00000000000E+00  0.98071927265E+03  0.98071927265E+03  0.25500000000E-02 0.  1.
          2   -1    0    0  501    0  0.00000000000E+00 -0.00000000000E+00 -0.35309322728E+04  0.35309322728E+04  0.25500000000E-02 0. -1.
    8880022    1    1    2    0    0 -0.13506366865E+04  0.82735318689E+03 -0.10560681176E+03  0.15947655648E+04  0.15294330000E+03 0.  0.
    8880022    1    1    2    0    0  0.13506366865E+04 -0.82735318689E+03 -0.24446061884E+04  0.29168859806E+04  0.15294330000E+03 0.  0.
<mgrwt>
<rscale>  0 0.15912650E+04</rscale>
<asrwt>0</asrwt>
<pdfrwt beam="1">  1        2 0.54322034E+00 0.15912650E+04</pdfrwt>
<pdfrwt beam="2">  1       -2 0.15087989E+00 0.15912650E+04</pdfrwt>
<totfact> 0.21504948E-01</totfact>
</mgrwt>
</event>
<event>
 4    1  0.1033139E-008  0.1501934E+04  0.7818608E-02  0.8883168E-01
         -2   -1    0    0    0  501 -0.00000000000E+00  0.00000000000E+00  0.14122563692E+04  0.14122563692E+04  0.25500000000E-02 0.  1.
          2   -1    0    0  501    0  0.00000000000E+00 -0.00000000000E+00 -0.17064166107E+04  0.17064166107E+04  0.25500000000E-02 0. -1.
    8880022    1    1    2    0    0 -0.92857982844E+03  0.11705353978E+04 -0.54138416224E+03  0.15965281330E+04  0.15294330000E+03 0.  0.
    8880022    1    1    2    0    0  0.92857982844E+03 -0.11705353978E+04  0.24722392071E+03  0.15221448470E+04  0.15294330000E+03 0.  0.
<mgrwt>
<rscale>  0 0.15019338E+04</rscale>
<asrwt>0</asrwt>
<pdfrwt beam="1">  1        2 0.26252563E+00 0.15019338E+04</pdfrwt>
<pdfrwt beam="2">  1       -2 0.21727021E+00 0.15019338E+04</pdfrwt>
<totfact> 0.93999484E-01</totfact>
</mgrwt>
</event>
<event>
 4    1  0.1033139E-008  0.9691606E+03  0.7818608E-02  0.9343031E-01
         -2   -1    0    0    0  501 -0.00000000000E+00  0.00000000000E+00  0.79541725574E+03  0.79541725574E+03  0.25500000000E-02 0.  1.
          2   -1    0    0  501    0  0.00000000000E+00 -0.00000000000E+00 -0.24318555623E+04  0.24318555623E+04  0.25500000000E-02 0. -1.
    8880022    1    1    2    0    0  0.15367412635E+03 -0.94459768272E+03 -0.19755715295E+04  0.22004897274E+04  0.15294330000E+03 0.  0.
    8880022    1    1    2    0    0 -0.15367412635E+03  0.94459768272E+03  0.33913322291E+03  0.10267830906E+04  0.15294330000E+03 0.  0.
<mgrwt>
<rscale>  0 0.96916055E+03</rscale>
<asrwt>0</asrwt>
<pdfrwt beam="1">  1        2 0.37413162E+00 0.96916055E+03</pdfrwt>
<pdfrwt beam="2">  1       -2 0.12237189E+00 0.96916055E+03</pdfrwt>
<totfact> 0.19473217E+00</totfact>
</mgrwt>
</event>
<event>
 4    1  0.1033139E-008  0.3781017E+03  0.7818608E-02  0.1051638E+00
          2   -1    0    0  501    0  0.00000000000E+00  0.00000000000E+00  0.18744784154E+04  0.18744784154E+04  0.25500000000E-02 0. -1.
         -2   -1    0    0    0  501 -0.00000000000E+00 -0.00000000000E+00 -0.21574242261E+03  0.21574242263E+03  0.25500000000E-02 0.  1.
    8880022    1    1    2    0    0  0.34573816776E+03  0.58650768022E+01 -0.10949047165E+02  0.37826024694E+03  0.15294330000E+03 0.  1.
    8880022    1    1    2    0    0 -0.34573816776E+03 -0.58650768022E+01  0.16696850400E+04  0.17119605911E+04  0.15294330000E+03 0.  0.
<mgrwt>
<rscale>  0 0.37810175E+03</rscale>
<asrwt>0</asrwt>
<pdfrwt beam="1">  1        2 0.28838128E+00 0.37810175E+03</pdfrwt>
<pdfrwt beam="2">  1       -2 0.33191143E-01 0.37810175E+03</pdfrwt>
<totfact> 0.72198813E+01</totfact>
</mgrwt>
</event>
<event>
 4    1  0.1033139E-008  0.1132176E+04  0.7818608E-02  0.9174387E-01
          2   -1    0    0  501    0  0.00000000000E+00  0.00000000000E+00  0.38546628197E+04  0.38546628197E+04  0.25500000000E-02 0. -1.
         -2   -1    0    0    0  501 -0.00000000000E+00 -0.00000000000E+00 -0.61461430823E+03  0.61461430823E+03  0.25500000000E-02 0.  1.
    8880022    1    1    2    0    0  0.30063842480E+03 -0.10807620044E+04  0.10615172308E+03  0.11371410704E+04  0.15294330000E+03 0.  0.
    8880022    1    1    2    0    0 -0.30063842480E+03  0.10807620044E+04  0.31338967884E+04  0.33321360575E+04  0.15294330000E+03 0.  0.
<mgrwt>
<rscale>  0 0.11321756E+04</rscale>
<asrwt>0</asrwt>
<pdfrwt beam="1">  1        2 0.59302504E+00 0.11321756E+04</pdfrwt>
<pdfrwt beam="2">  1       -2 0.94556049E-01 0.11321756E+04</pdfrwt>
<totfact> 0.42919836E-01</totfact>
</mgrwt>
</event>
<event>
 4    1  0.1033139E-008  0.9571854E+03  0.7818608E-02  0.9356791E-01
         -2   -1    0    0    0  501 -0.00000000000E+00  0.00000000000E+00  0.12045786822E+04  0.12045786822E+04  0.25500000000E-02 0.  1.
          2   -1    0    0  501    0  0.00000000000E+00 -0.00000000000E+00 -0.77755849211E+03  0.77755849212E+03  0.25500000000E-02 0. -1.
    8880022    1    1    2    0    0  0.36754270049E+02  0.94417228702E+03  0.35986829737E+03  0.10225991533E+04  0.15294330000E+03 0.  0.
    8880022    1    1    2    0    0 -0.36754270049E+02 -0.94417228702E+03  0.67151892681E+02  0.95953802095E+03  0.15294330000E+03 0.  0.
<mgrwt>
<rscale>  0 0.95718537E+03</rscale>
<asrwt>0</asrwt>
<pdfrwt beam="1">  1        2 0.11962438E+00 0.95718537E+03</pdfrwt>
<pdfrwt beam="2">  1       -2 0.18531980E+00 0.95718537E+03</pdfrwt>
<totfact> 0.59419492E+00</totfact>
</mgrwt>
</event>
<event>
 4    1  0.1033139E-008  0.5980904E+03  0.7818608E-02  0.9909376E-01
         -2   -1    0    0    0  501 -0.00000000000E+00  0.00000000000E+00  0.28204405557E+03  0.28204405558E+03  0.25500000000E-02 0.  1.
          2   -1    0    0  501    0  0.00000000000E+00 -0.00000000000E+00 -0.13671643692E+04  0.13671643692E+04  0.25500000000E-02 0. -1.
    8880022    1    1    2    0    0 -0.13418356258E+02 -0.57804878980E+03 -0.76432315697E+03  0.97051635586E+03  0.15294330000E+03 0.  0.
    8880022    1    1    2    0    0  0.13418356258E+02  0.57804878980E+03 -0.32079715662E+03  0.67869206890E+03  0.15294330000E+03 0. -1.
<mgrwt>
<rscale>  0 0.59809039E+03</rscale>
<asrwt>0</asrwt>
<pdfrwt beam="1">  1        2 0.21033298E+00 0.59809039E+03</pdfrwt>
<pdfrwt beam="2">  1       -2 0.43391394E-01 0.59809039E+03</pdfrwt>
<totfact> 0.78697510E+01</totfact>
</mgrwt>
</event>
<event>
 4    1  0.1033139E-008  0.1466778E+04  0.7818608E-02  0.8906851E-01
          2   -1    0    0  501    0  0.00000000000E+00  0.00000000000E+00  0.29887367349E+04  0.29887367349E+04  0.25500000000E-02 0. -1.
         -2   -1    0    0    0  501 -0.00000000000E+00 -0.00000000000E+00 -0.80197235189E+03  0.80197235190E+03  0.25500000000E-02 0.  1.
    8880022    1    1    2    0    0 -0.70075133467E+03  0.12794501298E+04  0.16999037541E+04  0.22452415224E+04  0.15294330000E+03 0.  0.
    8880022    1    1    2    0    0  0.70075133467E+03 -0.12794501298E+04  0.48686062892E+03  0.15454675644E+04  0.15294330000E+03 0.  0.
<mgrwt>
<rscale>  0 0.14667777E+04</rscale>
<asrwt>0</asrwt>
<pdfrwt beam="1">  1        2 0.45980565E+00 0.14667777E+04</pdfrwt>
<pdfrwt beam="2">  1       -2 0.12338036E+00 0.14667777E+04</pdfrwt>
<totfact> 0.83767982E-01</totfact>
</mgrwt>
</event>
<event>
 4    1  0.1033139E-008  0.1382417E+04  0.7818608E-02  0.8966646E-01
          2   -1    0    0  501    0  0.00000000000E+00  0.00000000000E+00  0.31768588895E+04  0.31768588895E+04  0.25500000000E-02 0. -1.
         -2   -1    0    0    0  501 -0.00000000000E+00 -0.00000000000E+00 -0.95803322326E+03  0.95803322326E+03  0.25500000000E-02 0.  1.
    8880022    1    1    2    0    0 -0.59772317262E+03 -0.12370977811E+04  0.23705331663E+04  0.27441762073E+04  0.15294330000E+03 0.  0.
    8880022    1    1    2    0    0  0.59772317262E+03  0.12370977811E+04 -0.15170750003E+03  0.13907159055E+04  0.15294330000E+03 0.  0.
<mgrwt>
<rscale>  0 0.13824166E+04</rscale>
<asrwt>0</asrwt>
<pdfrwt beam="1">  1        2 0.48874751E+00 0.13824166E+04</pdfrwt>
<pdfrwt beam="2">  1       -2 0.14738973E+00 0.13824166E+04</pdfrwt>
<totfact> 0.40608099E-01</totfact>
</mgrwt>
</event>
<event>
 4    1  0.1033139E-008  0.1807430E+04  0.7818608E-02  0.8702358E-01
          2   -1    0    0  501    0  0.00000000000E+00  0.00000000000E+00  0.22296667267E+04  0.22296667267E+04  0.25500000000E-02 0. -1.
         -2   -1    0    0    0  501 -0.00000000000E+00 -0.00000000000E+00 -0.16184959012E+04  0.16184959012E+04  0.25500000000E-02 0.  1.
    8880022    1    1    2    0    0 -0.17678622497E+04  0.34361867469E+03  0.89782820482E+03  0.20181421817E+04  0.15294330000E+03 0.  0.
    8880022    1    1    2    0    0  0.17678622497E+04 -0.34361867469E+03 -0.28665737931E+03  0.18300204462E+04  0.15294330000E+03 0.  0.
<mgrwt>
<rscale>  0 0.18074298E+04</rscale>
<asrwt>0</asrwt>
<pdfrwt beam="1">  1        2 0.34302565E+00 0.18074298E+04</pdfrwt>
<pdfrwt beam="2">  1       -2 0.24899937E+00 0.18074298E+04</pdfrwt>
<totfact> 0.29398291E-01</totfact>
</mgrwt>
</event>
<event>
 4    1  0.1033139E-008  0.7738319E+03  0.7818608E-02  0.9598686E-01
         -2   -1    0    0    0  501 -0.00000000000E+00  0.00000000000E+00  0.51095488300E+03  0.51095488300E+03  0.25500000000E-02 0.  1.
          2   -1    0    0  501    0  0.00000000000E+00 -0.00000000000E+00 -0.30346749975E+04  0.30346749975E+04  0.25500000000E-02 0. -1.
    8880022    1    1    2    0    0 -0.13596777298E+03 -0.74628207219E+03  0.12707253509E+03  0.78419592498E+03  0.15294330000E+03 0.  0.
    8880022    1    1    2    0    0  0.13596777298E+03  0.74628207219E+03 -0.26507926496E+04  0.27614339555E+04  0.15294330000E+03 0.  0.
<mgrwt>
<rscale>  0 0.77383191E+03</rscale>
<asrwt>0</asrwt>
<pdfrwt beam="1">  1        2 0.46687307E+00 0.77383191E+03</pdfrwt>
<pdfrwt beam="2">  1       -2 0.78608445E-01 0.77383191E+03</pdfrwt>
<totfact> 0.25318301E+00</totfact>
</mgrwt>
</event>
<event>
 4    1  0.1033139E-008  0.9993680E+03  0.7818608E-02  0.9309238E-01
          2   -1    0    0  501    0  0.00000000000E+00  0.00000000000E+00  0.10094865401E+04  0.10094865401E+04  0.25500000000E-02 0. -1.
         -2   -1    0    0    0  501 -0.00000000000E+00 -0.00000000000E+00 -0.13788024211E+04  0.13788024211E+04  0.25500000000E-02 0.  1.
    8880022    1    1    2    0    0  0.43527661539E+03 -0.88649822691E+03  0.44998947852E+03  0.10960050283E+04  0.15294330000E+03 0.  0.
    8880022    1    1    2    0    0 -0.43527661539E+03  0.88649822691E+03 -0.81930535956E+03  0.12922839330E+04  0.15294330000E+03 0.  0.
<mgrwt>
<rscale>  0 0.99936805E+03</rscale>
<asrwt>0</asrwt>
<pdfrwt beam="1">  1        2 0.15530562E+00 0.99936805E+03</pdfrwt>
<pdfrwt beam="2">  1       -2 0.21212345E+00 0.99936805E+03</pdfrwt>
<totfact> 0.27369120E+00</totfact>
</mgrwt>
</event>
<event>
 4    1  0.1033139E-008  0.1543937E+04  0.7818608E-02  0.8855750E-01
          2   -1    0    0  501    0  0.00000000000E+00  0.00000000000E+00  0.24022754692E+04  0.24022754692E+04  0.25500000000E-02 0. -1.
         -2   -1    0    0    0  501 -0.00000000000E+00 -0.00000000000E+00 -0.15246739385E+04  0.15246739385E+04  0.25500000000E-02 0.  1.
    8880022    1    1    2    0    0  0.15222233481E+04  0.20781406959E+03 -0.72144842681E+03  0.17041801825E+04  0.15294330000E+03 0.  0.
    8880022    1    1    2    0    0 -0.15222233481E+04 -0.20781406959E+03  0.15990499575E+04  0.22227692252E+04  0.15294330000E+03 0.  0.
<mgrwt>
<rscale>  0 0.15439373E+04</rscale>
<asrwt>0</asrwt>
<pdfrwt beam="1">  1        2 0.36958084E+00 0.15439373E+04</pdfrwt>
<pdfrwt beam="2">  1       -2 0.23456522E+00 0.15439373E+04</pdfrwt>
<totfact> 0.29610352E-01</totfact>
</mgrwt>
</event>
<event>
 4    1  0.1033139E-008  0.1967082E+04  0.7818608E-02  0.8622167E-01
          2   -1    0    0  501    0  0.00000000000E+00  0.00000000000E+00  0.29932784505E+04  0.29932784505E+04  0.25500000000E-02 0. -1.
         -2   -1    0    0    0  501 -0.00000000000E+00 -0.00000000000E+00 -0.18061833266E+04  0.18061833266E+04  0.25500000000E-02 0.  1.
    8880022    1    1    2    0    0  0.21806640909E+03  0.19489659946E+04 -0.68596489004E+03  0.20832572790E+04  0.15294330000E+03 0.  0.
    8880022    1    1    2    0    0 -0.21806640909E+03 -0.19489659946E+04  0.18730600139E+04  0.27162044981E+04  0.15294330000E+03 0.  0.
<mgrwt>
<rscale>  0 0.19670824E+04</rscale>
<asrwt>0</asrwt>
<pdfrwt beam="1">  1        2 0.46050438E+00 0.19670824E+04</pdfrwt>
<pdfrwt beam="2">  1       -2 0.27787436E+00 0.19670824E+04</pdfrwt>
<totfact> 0.67817414E-02</totfact>
</mgrwt>
</event>
<event>
 4    1  0.1033139E-008  0.5904244E+03  0.7818608E-02  0.9925474E-01
          2   -1    0    0  501    0  0.00000000000E+00  0.00000000000E+00  0.21986373459E+04  0.21986373459E+04  0.25500000000E-02 0. -1.
         -2   -1    0    0    0  501 -0.00000000000E+00 -0.00000000000E+00 -0.44875634401E+03  0.44875634402E+03  0.25500000000E-02 0.  1.
    8880022    1    1    2    0    0 -0.70076482670E+01  0.57022822291E+03  0.19394126178E+04  0.20272943271E+04  0.15294330000E+03 0.  0.
    8880022    1    1    2    0    0  0.70076482670E+01 -0.57022822291E+03 -0.18953161596E+03  0.62009936284E+03  0.15294330000E+03 0.  0.
<mgrwt>
<rscale>  0 0.59042441E+03</rscale>
<asrwt>0</asrwt>
<pdfrwt beam="1">  1        2 0.33825190E+00 0.59042441E+03</pdfrwt>
<pdfrwt beam="2">  1       -2 0.69039438E-01 0.59042441E+03</pdfrwt>
<totfact> 0.10606492E+01</totfact>
</mgrwt>
</event>
<event>
 4    1  0.1033139E-008  0.3369219E+03  0.7818608E-02  0.1068115E+00
         -2   -1    0    0    0  501 -0.00000000000E+00  0.00000000000E+00  0.26690613329E+03  0.26690613331E+03  0.25500000000E-02 0.  1.
          2   -1    0    0  501    0  0.00000000000E+00 -0.00000000000E+00 -0.28088667904E+04  0.28088667904E+04  0.25500000000E-02 0. -1.
    8880022    1    1    2    0    0 -0.80473136100E+02  0.28922104452E+03 -0.26876609429E+04  0.27086966857E+04  0.15294330000E+03 0.  0.
    8880022    1    1    2    0    0  0.80473136100E+02 -0.28922104452E+03  0.14570028577E+03  0.36707623801E+03  0.15294330000E+03 0.  1.
<mgrwt>
<rscale>  0 0.33692194E+03</rscale>
<asrwt>0</asrwt>
<pdfrwt beam="1">  1        2 0.43213333E+00 0.33692194E+03</pdfrwt>
<pdfrwt beam="2">  1       -2 0.41062484E-01 0.33692194E+03</pdfrwt>
<totfact> 0.15023251E+01</totfact>
</mgrwt>
</event>
<event>
 4    1  0.1033139E-008  0.3894815E+03  0.7818608E-02  0.1047484E+00
         -2   -1    0    0    0  501 -0.00000000000E+00  0.00000000000E+00  0.32562669441E+03  0.32562669442E+03  0.25500000000E-02 0.  1.
          2   -1    0    0  501    0  0.00000000000E+00 -0.00000000000E+00 -0.26075617720E+04  0.26075617720E+04  0.25500000000E-02 0. -1.
    8880022    1    1    2    0    0 -0.29106340945E+02  0.35701124442E+03  0.18817743189E+03  0.43255821182E+03  0.15294330000E+03 0.  0.
    8880022    1    1    2    0    0  0.29106340945E+02 -0.35701124442E+03 -0.24701125095E+04  0.25006302546E+04  0.15294330000E+03 0.  0.
<mgrwt>
<rscale>  0 0.38948153E+03</rscale>
<asrwt>0</asrwt>
<pdfrwt beam="1">  1        2 0.40116334E+00 0.38948153E+03</pdfrwt>
<pdfrwt beam="2">  1       -2 0.50096416E-01 0.38948153E+03</pdfrwt>
<totfact> 0.12965180E+01</totfact>
</mgrwt>
</event>
<event>
 4    1  0.1033139E-008  0.5883224E+03  0.7818608E-02  0.9929934E-01
         -2   -1    0    0    0  501 -0.00000000000E+00  0.00000000000E+00  0.88626166810E+03  0.88626166810E+03  0.25500000000E-02 0.  1.
          2   -1    0    0  501    0  0.00000000000E+00 -0.00000000000E+00 -0.14661628526E+04  0.14661628526E+04  0.25500000000E-02 0. -1.
    8880022    1    1    2    0    0 -0.49020822870E+03 -0.28710179873E+03 -0.12974017972E+04  0.14245612050E+04  0.15294330000E+03 0.  0.
    8880022    1    1    2    0    0  0.49020822870E+03  0.28710179873E+03  0.71750061273E+03  0.92786331570E+03  0.15294330000E+03 0.  0.
<mgrwt>
<rscale>  0 0.58832236E+03</rscale>
<asrwt>0</asrwt>
<pdfrwt beam="1">  1        2 0.22556351E+00 0.58832236E+03</pdfrwt>
<pdfrwt beam="2">  1       -2 0.13634795E+00 0.58832236E+03</pdfrwt>
<totfact> 0.53745383E+00</totfact>
</mgrwt>
</event>
<event>
 4    1  0.1033139E-008  0.1023874E+04  0.7818608E-02  0.9282741E-01
          2   -1    0    0  501    0  0.00000000000E+00  0.00000000000E+00  0.16034589477E+04  0.16034589477E+04  0.25500000000E-02 0. -1.
         -2   -1    0    0    0  501 -0.00000000000E+00 -0.00000000000E+00 -0.12979366829E+04  0.12979366829E+04  0.25500000000E-02 0.  1.
    8880022    1    1    2    0    0  0.89505807766E+03  0.47307117592E+03  0.11747457809E+04  0.15583146674E+04  0.15294330000E+03 0.  0.
    8880022    1    1    2    0    0 -0.89505807766E+03 -0.47307117592E+03 -0.86922351606E+03  0.13430809632E+04  0.15294330000E+03 0.  0.
<mgrwt>
<rscale>  0 0.10238735E+04</rscale>
<asrwt>0</asrwt>
<pdfrwt beam="1">  1        2 0.24668599E+00 0.10238735E+04</pdfrwt>
<pdfrwt beam="2">  1       -2 0.19968257E+00 0.10238735E+04</pdfrwt>
<totfact> 0.14705752E+00</totfact>
</mgrwt>
</event>
<event>
 4    1  0.1033139E-008  0.3211854E+03  0.7818608E-02  0.1075105E+00
         -2   -1    0    0    0  501 -0.00000000000E+00  0.00000000000E+00  0.12836054499E+03  0.12836054502E+03  0.25500000000E-02 0.  1.
          2   -1    0    0  501    0  0.00000000000E+00 -0.00000000000E+00 -0.13459039050E+04  0.13459039050E+04  0.25500000000E-02 0. -1.
    8880022    1    1    2    0    0  0.22407884437E+03 -0.17192178969E+03 -0.14089656591E+03  0.35073055978E+03  0.15294330000E+03 0.  0.
    8880022    1    1    2    0    0 -0.22407884437E+03  0.17192178969E+03 -0.10766467941E+04  0.11235338902E+04  0.15294330000E+03 0.  0.
<mgrwt>
<rscale>  0 0.32118543E+03</rscale>
<asrwt>0</asrwt>
<pdfrwt beam="1">  1        2 0.20706213E+00 0.32118543E+03</pdfrwt>
<pdfrwt beam="2">  1       -2 0.19747777E-01 0.32118543E+03</pdfrwt>
<totfact> 0.35538996E+02</totfact>
</mgrwt>
</event>
<event>
 4    1  0.1033139E-008  0.1577041E+03  0.7818608E-02  0.1191313E+00
          2   -1    0    0  501    0  0.00000000000E+00  0.00000000000E+00  0.96789149630E+03  0.96789149630E+03  0.25500000000E-02 0. -1.
         -2   -1    0    0    0  501 -0.00000000000E+00 -0.00000000000E+00 -0.18596061259E+03  0.18596061261E+03  0.25500000000E-02 0.  1.
    8880022    1    1    2    0    0  0.31166730159E+02 -0.22529195555E+02  0.92655115970E+03  0.93987639308E+03  0.15294330000E+03 0.  0.
    8880022    1    1    2    0    0 -0.31166730159E+02  0.22529195555E+02 -0.14462027599E+03  0.21397571583E+03  0.15294330000E+03 0.  1.
<mgrwt>
<rscale>  0 0.15770410E+03</rscale>
<asrwt>0</asrwt>
<pdfrwt beam="1">  1        2 0.14890638E+00 0.15770410E+03</pdfrwt>
<pdfrwt beam="2">  1       -2 0.28609325E-01 0.15770410E+03</pdfrwt>
<totfact> 0.31415145E+02</totfact>
</mgrwt>
</event>
<event>
 4    1  0.1033139E-008  0.8703668E+03  0.7818608E-02  0.9463402E-01
          2   -1    0    0  501    0  0.00000000000E+00  0.00000000000E+00  0.13898371463E+04  0.13898371463E+04  0.25500000000E-02 0. -1.
         -2   -1    0    0    0  501 -0.00000000000E+00 -0.00000000000E+00 -0.13712120376E+04  0.13712120376E+04  0.25500000000E-02 0.  1.
    8880022    1    1    2    0    0  0.70196240656E+03  0.49132015851E+03  0.10808886389E+04  0.13877530836E+04  0.15294330000E+03 0.  0.
    8880022    1    1    2    0    0 -0.70196240656E+03 -0.49132015851E+03 -0.10622635302E+04  0.13732961003E+04  0.15294330000E+03 0.  1.
<mgrwt>
<rscale>  0 0.87036680E+03</rscale>
<asrwt>0</asrwt>
<pdfrwt beam="1">  1        2 0.21382110E+00 0.87036680E+03</pdfrwt>
<pdfrwt beam="2">  1       -2 0.21095570E+00 0.87036680E+03</pdfrwt>
<totfact> 0.16755473E+00</totfact>
</mgrwt>
</event>
<event>
 4    1  0.1033139E-008  0.1626483E+04  0.7818608E-02  0.8804441E-01
         -2   -1    0    0    0  501 -0.00000000000E+00  0.00000000000E+00  0.29800017741E+04  0.29800017741E+04  0.25500000000E-02 0.  1.
          2   -1    0    0  501    0  0.00000000000E+00 -0.00000000000E+00 -0.16714732003E+04  0.16714732003E+04  0.25500000000E-02 0. -1.
    8880022    1    1    2    0    0  0.57799393030E+03  0.15126068302E+04 -0.93829953852E+03  0.18777257743E+04  0.15294330000E+03 0.  0.
    8880022    1    1    2    0    0 -0.57799393030E+03 -0.15126068302E+04  0.22468281123E+04  0.27737492002E+04  0.15294330000E+03 0.  0.
<mgrwt>
<rscale>  0 0.16264833E+04</rscale>
<asrwt>0</asrwt>
<pdfrwt beam="1">  1        2 0.25714973E+00 0.16264833E+04</pdfrwt>
<pdfrwt beam="2">  1       -2 0.45846181E+00 0.16264833E+04</pdfrwt>
<totfact> 0.28668315E-02</totfact>
</mgrwt>
</event>
<event>
 4    1  0.1033139E-008  0.1062398E+04  0.7818608E-02  0.9242637E-01
         -2   -1    0    0    0  501 -0.00000000000E+00  0.00000000000E+00  0.80230045605E+03  0.80230045606E+03  0.25500000000E-02 0.  1.
          2   -1    0    0  501    0  0.00000000000E+00 -0.00000000000E+00 -0.19354498470E+04  0.19354498470E+04  0.25500000000E-02 0. -1.
    8880022    1    1    2    0    0 -0.10345855515E+04  0.18689755000E+03  0.14882723903E+03  0.10727717174E+04  0.15294330000E+03 0.  0.
    8880022    1    1    2    0    0  0.10345855515E+04 -0.18689755000E+03 -0.12819766299E+04  0.16649785856E+04  0.15294330000E+03 0.  0.
<mgrwt>
<rscale>  0 0.10623980E+04</rscale>
<asrwt>0</asrwt>
<pdfrwt beam="1">  1        2 0.29776151E+00 0.10623980E+04</pdfrwt>
<pdfrwt beam="2">  1       -2 0.12343084E+00 0.10623980E+04</pdfrwt>
<totfact> 0.35572343E+00</totfact>
</mgrwt>
</event>
<event>
 4    1  0.1033139E-008  0.4469592E+03  0.7818608E-02  0.1028633E+00
          2   -1    0    0  501    0  0.00000000000E+00  0.00000000000E+00  0.93034385363E+03  0.93034385364E+03  0.25500000000E-02 0. -1.
         -2   -1    0    0    0  501 -0.00000000000E+00 -0.00000000000E+00 -0.33548687140E+04  0.33548687140E+04  0.25500000000E-02 0.  1.
    8880022    1    1    2    0    0  0.41621476890E+03 -0.56090456659E+02  0.86064086378E+03  0.96978101786E+03  0.15294330000E+03 0.  0.
    8880022    1    1    2    0    0 -0.41621476890E+03  0.56090456659E+02 -0.32851657241E+04  0.33154315498E+04  0.15294330000E+03 0.  1.
<mgrwt>
<rscale>  0 0.44695920E+03</rscale>
<asrwt>0</asrwt>
<pdfrwt beam="1">  1        2 0.14312983E+00 0.44695920E+03</pdfrwt>
<pdfrwt beam="2">  1       -2 0.51613364E+00 0.44695920E+03</pdfrwt>
<totfact> 0.42735440E-02</totfact>
</mgrwt>
</event>
<event>
 4    1  0.1033139E-008  0.4468663E+03  0.7818608E-02  0.1028661E+00
          2   -1    0    0  501    0  0.00000000000E+00  0.00000000000E+00  0.15133723174E+04  0.15133723174E+04  0.25500000000E-02 0. -1.
         -2   -1    0    0    0  501 -0.00000000000E+00 -0.00000000000E+00 -0.90705043427E+03  0.90705043427E+03  0.25500000000E-02 0.  1.
    8880022    1    1    2    0    0 -0.22694687171E+03  0.35326049947E+03 -0.81556702787E+03  0.92996725374E+03  0.15294330000E+03 0.  1.
    8880022    1    1    2    0    0  0.22694687171E+03 -0.35326049947E+03  0.14218889110E+04  0.14904554980E+04  0.15294330000E+03 0.  0.
<mgrwt>
<rscale>  0 0.44686633E+03</rscale>
<asrwt>0</asrwt>
<pdfrwt beam="1">  1        2 0.23282651E+00 0.44686633E+03</pdfrwt>
<pdfrwt beam="2">  1       -2 0.13954622E+00 0.44686633E+03</pdfrwt>
<totfact> 0.49238051E+00</totfact>
</mgrwt>
</event>
<event>
 4    1  0.1033139E-008  0.9872532E+03  0.7818608E-02  0.9322637E-01
          2   -1    0    0  501    0  0.00000000000E+00  0.00000000000E+00  0.19130668189E+04  0.19130668189E+04  0.25500000000E-02 0. -1.
         -2   -1    0    0    0  501 -0.00000000000E+00 -0.00000000000E+00 -0.10057019329E+04  0.10057019329E+04  0.25500000000E-02 0.  1.
    8880022    1    1    2    0    0  0.95561830932E+03 -0.19511784242E+03 -0.57143375904E+03  0.11407039579E+04  0.15294330000E+03 0.  0.
    8880022    1    1    2    0    0 -0.95561830932E+03  0.19511784242E+03  0.14787986451E+04  0.17780647939E+04  0.15294330000E+03 0.  0.
<mgrwt>
<rscale>  0 0.98725325E+03</rscale>
<asrwt>0</asrwt>
<pdfrwt beam="1">  1        2 0.29431797E+00 0.98725325E+03</pdfrwt>
<pdfrwt beam="2">  1       -2 0.15472338E+00 0.98725325E+03</pdfrwt>
<totfact> 0.20563124E+00</totfact>
</mgrwt>
</event>
<event>
 4    1  0.1033139E-008  0.4622879E+03  0.7818608E-02  0.1024120E+00
          2   -1    0    0  501    0  0.00000000000E+00  0.00000000000E+00  0.17015248301E+04  0.17015248301E+04  0.25500000000E-02 0. -1.
         -2   -1    0    0    0  501 -0.00000000000E+00 -0.00000000000E+00 -0.34050060250E+03  0.34050060251E+03  0.25500000000E-02 0.  1.
    8880022    1    1    2    0    0 -0.25497306810E+03 -0.35398750438E+03  0.14916447665E+04  0.15616383003E+04  0.15294330000E+03 0.  0.
    8880022    1    1    2    0    0  0.25497306810E+03  0.35398750438E+03 -0.13062053884E+03  0.48038713232E+03  0.15294330000E+03 0.  0.
<mgrwt>
<rscale>  0 0.46228787E+03</rscale>
<asrwt>0</asrwt>
<pdfrwt beam="1">  1        2 0.26177305E+00 0.46228787E+03</pdfrwt>
<pdfrwt beam="2">  1       -2 0.52384708E-01 0.46228787E+03</pdfrwt>
<totfact> 0.36075182E+01</totfact>
</mgrwt>
</event>
<event>
 4    1  0.1033139E-008  0.1100047E+04  0.7818608E-02  0.9205146E-01
         -2   -1    0    0    0  501 -0.00000000000E+00  0.00000000000E+00  0.42535208467E+03  0.42535208468E+03  0.25500000000E-02 0.  1.
          2   -1    0    0  501    0  0.00000000000E+00 -0.00000000000E+00 -0.32327439983E+04  0.32327439983E+04  0.25500000000E-02 0. -1.
    8880022    1    1    2    0    0  0.10879260332E+04  0.55944478008E+02 -0.77020384566E+03  0.13428769323E+04  0.15294330000E+03 0.  0.
    8880022    1    1    2    0    0 -0.10879260332E+04 -0.55944478008E+02 -0.20371880680E+04  0.23152191507E+04  0.15294330000E+03 0.  0.
<mgrwt>
<rscale>  0 0.11000475E+04</rscale>
<asrwt>0</asrwt>
<pdfrwt beam="1">  1        2 0.49734521E+00 0.11000475E+04</pdfrwt>
<pdfrwt beam="2">  1       -2 0.65438784E-01 0.11000475E+04</pdfrwt>
<totfact> 0.26915241E+00</totfact>
</mgrwt>
</event>
<event>
 4    1  0.1033139E-008  0.5355665E+03  0.7818608E-02  0.1004891E+00
         -2   -1    0    0    0  501 -0.00000000000E+00  0.00000000000E+00  0.26827923625E+03  0.26827923626E+03  0.25500000000E-02 0.  1.
          2   -1    0    0  501    0  0.00000000000E+00 -0.00000000000E+00 -0.29860405198E+04  0.29860405198E+04  0.25500000000E-02 0. -1.
    8880022    1    1    2    0    0  0.51262511991E+03  0.25598773430E+02 -0.55171442189E+02  0.53840073534E+03  0.15294330000E+03 0.  1.
    8880022    1    1    2    0    0 -0.51262511991E+03 -0.25598773430E+02 -0.26625898413E+04  0.27159190207E+04  0.15294330000E+03 0.  0.
<mgrwt>
<rscale>  0 0.53556649E+03</rscale>
<asrwt>0</asrwt>
<pdfrwt beam="1">  1        2 0.45939082E+00 0.53556649E+03</pdfrwt>
<pdfrwt beam="2">  1       -2 0.41273731E-01 0.53556649E+03</pdfrwt>
<totfact> 0.10985620E+01</totfact>
</mgrwt>
</event>
<event>
 4    1  0.1033139E-008  0.1132712E+04  0.7818608E-02  0.9173882E-01
         -2   -1    0    0    0  501 -0.00000000000E+00  0.00000000000E+00  0.81951411936E+03  0.81951411937E+03  0.25500000000E-02 0.  1.
          2   -1    0    0  501    0  0.00000000000E+00 -0.00000000000E+00 -0.29584100794E+04  0.29584100794E+04  0.25500000000E-02 0. -1.
    8880022    1    1    2    0    0  0.53985915175E+03  0.98397009092E+03 -0.23655493878E+04  0.26227582051E+04  0.15294330000E+03 0.  0.
    8880022    1    1    2    0    0 -0.53985915175E+03 -0.98397009092E+03  0.22665342774E+03  0.11551659936E+04  0.15294330000E+03 0.  0.
<mgrwt>
<rscale>  0 0.11327121E+04</rscale>
<asrwt>0</asrwt>
<pdfrwt beam="1">  1        2 0.45514001E+00 0.11327121E+04</pdfrwt>
<pdfrwt beam="2">  1       -2 0.12607910E+00 0.11327121E+04</pdfrwt>
<totfact> 0.86386638E-01</totfact>
</mgrwt>
</event>
<event>
 4    1  0.1659957E-008  0.1215184E+04  0.7818608E-02  0.9099669E-01
          2   -1    0    0  501    0  0.00000000000E+00  0.00000000000E+00  0.20714604462E+04  0.20714604462E+04  0.25500000000E-02 0. -1.
         -2   -1    0    0    0  501 -0.00000000000E+00 -0.00000000000E+00 -0.20442964975E+04  0.20442964975E+04  0.25500000000E-02 0.  1.
    8880022    1    1    2    0    0 -0.11392366243E+04 -0.39423488085E+03 -0.16471788748E+04  0.20469174692E+04  0.15294330000E+03 0.  0.
    8880022    1    1    2    0    0  0.11392366243E+04  0.39423488085E+03  0.16743428235E+04  0.20688394745E+04  0.15294330000E+03 0.  0.
<mgrwt>
<rscale>  0 0.12151843E+04</rscale>
<asrwt>0</asrwt>
<pdfrwt beam="1">  1        2 0.31868622E+00 0.12151843E+04</pdfrwt>
<pdfrwt beam="2">  1       -2 0.31450715E+00 0.12151843E+04</pdfrwt>
<totfact> 0.15407261E-01</totfact>
</mgrwt>
</event>
<event>
 4    1  0.1033139E-008  0.3045007E+03  0.7818608E-02  0.1083012E+00
          2   -1    0    0  501    0  0.00000000000E+00  0.00000000000E+00  0.31439535296E+04  0.31439535296E+04  0.25500000000E-02 0. -1.
         -2   -1    0    0    0  501 -0.00000000000E+00 -0.00000000000E+00 -0.14982983506E+03  0.14982983508E+03  0.25500000000E-02 0.  1.
    8880022    1    1    2    0    0  0.25953471467E+03  0.44393312804E+02  0.29729975417E+04  0.29885506638E+04  0.15294330000E+03 0.  0.
    8880022    1    1    2    0    0 -0.25953471467E+03 -0.44393312804E+02  0.21126152884E+02  0.30523270088E+03  0.15294330000E+03 0.  0.
<mgrwt>
<rscale>  0 0.30450072E+03</rscale>
<asrwt>0</asrwt>
<pdfrwt beam="1">  1        2 0.48368515E+00 0.30450072E+03</pdfrwt>
<pdfrwt beam="2">  1       -2 0.23050744E-01 0.30450072E+03</pdfrwt>
<totfact> 0.27842163E+01</totfact>
</mgrwt>
</event>
<event>
 4    1  0.1033139E-008  0.6273871E+03  0.7818608E-02  0.9850161E-01
          2   -1    0    0  501    0  0.00000000000E+00  0.00000000000E+00  0.17925896574E+04  0.17925896574E+04  0.25500000000E-02 0. -1.
         -2   -1    0    0    0  501 -0.00000000000E+00 -0.00000000000E+00 -0.31770369212E+03  0.31770369213E+03  0.25500000000E-02 0.  1.
    8880022    1    1    2    0    0 -0.54421812356E+03  0.27212047369E+03  0.13238395796E+04  0.14649797964E+04  0.15294330000E+03 0.  0.
    8880022    1    1    2    0    0  0.54421812356E+03 -0.27212047369E+03  0.15104638560E+03  0.64531355311E+03  0.15294330000E+03 0.  0.
<mgrwt>
<rscale>  0 0.62738710E+03</rscale>
<asrwt>0</asrwt>
<pdfrwt beam="1">  1        2 0.27578303E+00 0.62738710E+03</pdfrwt>
<pdfrwt beam="2">  1       -2 0.48877491E-01 0.62738710E+03</pdfrwt>
<totfact> 0.36067875E+01</totfact>
</mgrwt>
</event>
<event>
 4    1  0.1033139E-008  0.1253543E+04  0.7818608E-02  0.9067239E-01
          2   -1    0    0  501    0  0.00000000000E+00  0.00000000000E+00  0.20531244120E+04  0.20531244120E+04  0.25500000000E-02 0. -1.
         -2   -1    0    0    0  501 -0.00000000000E+00 -0.00000000000E+00 -0.15952677739E+04  0.15952677739E+04  0.25500000000E-02 0.  1.
    8880022    1    1    2    0    0  0.96136917616E+03  0.78977757181E+03  0.15446702174E+04  0.19893157214E+04  0.15294330000E+03 0.  0.
    8880022    1    1    2    0    0 -0.96136917616E+03 -0.78977757181E+03 -0.10868135793E+04  0.16590764645E+04  0.15294330000E+03 0.  0.
<mgrwt>
<rscale>  0 0.12535434E+04</rscale>
<asrwt>0</asrwt>
<pdfrwt beam="1">  1        2 0.31586530E+00 0.12535434E+04</pdfrwt>
<pdfrwt beam="2">  1       -2 0.24542581E+00 0.12535434E+04</pdfrwt>
<totfact> 0.41335418E-01</totfact>
</mgrwt>
</event>
<event>
 4    1  0.1033139E-008  0.5921176E+03  0.7818608E-02  0.9921896E-01
          2   -1    0    0  501    0  0.00000000000E+00  0.00000000000E+00  0.20081599834E+04  0.20081599834E+04  0.25500000000E-02 0. -1.
         -2   -1    0    0    0  501 -0.00000000000E+00 -0.00000000000E+00 -0.20952889048E+03  0.20952889049E+03  0.25500000000E-02 0.  1.
    8880022    1    1    2    0    0  0.45808096158E+03  0.34259807776E+03  0.13521166915E+04  0.14760836056E+04  0.15294330000E+03 0. -1.
    8880022    1    1    2    0    0 -0.45808096158E+03 -0.34259807776E+03  0.44651440135E+03  0.74160526824E+03  0.15294330000E+03 0.  0.
<mgrwt>
<rscale>  0 0.59211761E+03</rscale>
<asrwt>0</asrwt>
<pdfrwt beam="1">  1        2 0.30894769E+00 0.59211761E+03</pdfrwt>
<pdfrwt beam="2">  1       -2 0.32235214E-01 0.59211761E+03</pdfrwt>
<totfact> 0.62207731E+01</totfact>
</mgrwt>
</event>
<event>
 4    1  0.1033139E-008  0.4628969E+03  0.7818608E-02  0.1023944E+00
         -2   -1    0    0    0  501 -0.00000000000E+00  0.00000000000E+00  0.32854951693E+03  0.32854951694E+03  0.25500000000E-02 0.  1.
          2   -1    0    0  501    0  0.00000000000E+00 -0.00000000000E+00 -0.15219036719E+04  0.15219036719E+04  0.25500000000E-02 0. -1.
    8880022    1    1    2    0    0 -0.41295296414E+03  0.14265936119E+03 -0.12961084606E+04  0.13762887192E+04  0.15294330000E+03 0.  0.
    8880022    1    1    2    0    0  0.41295296414E+03 -0.14265936119E+03  0.10275430564E+03  0.47416446964E+03  0.15294330000E+03 0.  0.
<mgrwt>
<rscale>  0 0.46289685E+03</rscale>
<asrwt>0</asrwt>
<pdfrwt beam="1">  1        2 0.23413902E+00 0.46289685E+03</pdfrwt>
<pdfrwt beam="2">  1       -2 0.50546080E-01 0.46289685E+03</pdfrwt>
<totfact> 0.48525439E+01</totfact>
</mgrwt>
</event>
<event>
 4    1  0.1033139E-008  0.1092614E+04  0.7818608E-02  0.9212421E-01
         -2   -1    0    0    0  501 -0.00000000000E+00  0.00000000000E+00  0.20642277718E+04  0.20642277718E+04  0.25500000000E-02 0.  1.
          2   -1    0    0  501    0  0.00000000000E+00 -0.00000000000E+00 -0.13710877974E+04  0.13710877974E+04  0.25500000000E-02 0. -1.
    8880022    1    1    2    0    0  0.77475776329E+02 -0.10790784243E+04 -0.95952370010E+03  0.14541286483E+04  0.15294330000E+03 0.  0.
    8880022    1    1    2    0    0 -0.77475776329E+02  0.10790784243E+04  0.16526636744E+04  0.19811869209E+04  0.15294330000E+03 0.  0.
<mgrwt>
<rscale>  0 0.10926136E+04</rscale>
<asrwt>0</asrwt>
<pdfrwt beam="1">  1        2 0.21093658E+00 0.10926136E+04</pdfrwt>
<pdfrwt beam="2">  1       -2 0.31757350E+00 0.10926136E+04</pdfrwt>
<totfact> 0.36988688E-01</totfact>
</mgrwt>
</event>
<event>
 4    1  0.1033139E-008  0.1095659E+04  0.7818608E-02  0.9209433E-01
          2   -1    0    0  501    0  0.00000000000E+00  0.00000000000E+00  0.79416081382E+03  0.79416081383E+03  0.25500000000E-02 0. -1.
         -2   -1    0    0    0  501 -0.00000000000E+00 -0.00000000000E+00 -0.30996729352E+04  0.30996729352E+04  0.25500000000E-02 0.  1.
    8880022    1    1    2    0    0  0.98552624934E+03  0.45366925745E+03  0.24079199455E+03  0.11218066772E+04  0.15294330000E+03 0.  0.
    8880022    1    1    2    0    0 -0.98552624934E+03 -0.45366925745E+03 -0.25463041159E+04  0.27720270718E+04  0.15294330000E+03 0.  0.
<mgrwt>
<rscale>  0 0.10956594E+04</rscale>
<asrwt>0</asrwt>
<pdfrwt beam="1">  1        2 0.12217859E+00 0.10956594E+04</pdfrwt>
<pdfrwt beam="2">  1       -2 0.47687276E+00 0.10956594E+04</pdfrwt>
<totfact> 0.80446277E-02</totfact>
</mgrwt>
</event>
<event>
 4    1  0.1033139E-008  0.9305678E+03  0.7818608E-02  0.9388157E-01
          2   -1    0    0  501    0  0.00000000000E+00  0.00000000000E+00  0.31395104532E+04  0.31395104532E+04  0.25500000000E-02 0. -1.
         -2   -1    0    0    0  501 -0.00000000000E+00 -0.00000000000E+00 -0.32883889296E+03  0.32883889297E+03  0.25500000000E-02 0.  1.
    8880022    1    1    2    0    0 -0.83309114223E+02 -0.91412488745E+03  0.21016334213E+04  0.22984384718E+04  0.15294330000E+03 0.  0.
    8880022    1    1    2    0    0  0.83309114223E+02  0.91412488745E+03  0.70903813896E+03  0.11699108743E+04  0.15294330000E+03 0.  0.
<mgrwt>
<rscale>  0 0.93056777E+03</rscale>
<asrwt>0</asrwt>
<pdfrwt beam="1">  1        2 0.48300161E+00 0.93056777E+03</pdfrwt>
<pdfrwt beam="2">  1       -2 0.50590599E-01 0.93056777E+03</pdfrwt>
<totfact> 0.54402871E+00</totfact>
</mgrwt>
</event>
<event>
 4    1  0.1033139E-008  0.1056233E+04  0.7818608E-02  0.9248932E-01
          2   -1    0    0  501    0  0.00000000000E+00  0.00000000000E+00  0.26189808639E+04  0.26189808639E+04  0.25500000000E-02 0. -1.
         -2   -1    0    0    0  501 -0.00000000000E+00 -0.00000000000E+00 -0.47954043982E+03  0.47954043983E+03  0.25500000000E-02 0.  1.
    8880022    1    1    2    0    0  0.10429432518E+04 -0.67126756047E+02  0.55194414796E+03  0.11917510744E+04  0.15294330000E+03 0.  0.
    8880022    1    1    2    0    0 -0.10429432518E+04  0.67126756047E+02  0.15874962762E+04  0.19067702294E+04  0.15294330000E+03 0.  0.
<mgrwt>
<rscale>  0 0.10562331E+04</rscale>
<asrwt>0</asrwt>
<pdfrwt beam="1">  1        2 0.40292013E+00 0.10562331E+04</pdfrwt>
<pdfrwt beam="2">  1       -2 0.73775452E-01 0.10562331E+04</pdfrwt>
<totfact> 0.49398449E+00</totfact>
</mgrwt>
</event>
<event>
 4    1  0.1033139E-008  0.1222858E+04  0.7818608E-02  0.9093081E-01
          2   -1    0    0  501    0  0.00000000000E+00  0.00000000000E+00  0.25913352535E+04  0.25913352535E+04  0.25500000000E-02 0. -1.
         -2   -1    0    0    0  501 -0.00000000000E+00 -0.00000000000E+00 -0.78923525283E+03  0.78923525284E+03  0.25500000000E-02 0.  1.
    8880022    1    1    2    0    0  0.90745259266E+03  0.80530716595E+03  0.17774331716E+04  0.21574638286E+04  0.15294330000E+03 0.  0.
    8880022    1    1    2    0    0 -0.90745259266E+03 -0.80530716595E+03  0.24666829054E+02  0.12231066777E+04  0.15294330000E+03 0.  0.
<mgrwt>
<rscale>  0 0.12228579E+04</rscale>
<asrwt>0</asrwt>
<pdfrwt beam="1">  1        2 0.39866696E+00 0.12228579E+04</pdfrwt>
<pdfrwt beam="2">  1       -2 0.12142081E+00 0.12228579E+04</pdfrwt>
<totfact> 0.15542936E+00</totfact>
</mgrwt>
</event>
<event>
 4    1  0.1033139E-008  0.1686797E+04  0.7818608E-02  0.8768930E-01
          2   -1    0    0  501    0  0.00000000000E+00  0.00000000000E+00  0.22719188638E+04  0.22719188638E+04  0.25500000000E-02 0. -1.
         -2   -1    0    0    0  501 -0.00000000000E+00 -0.00000000000E+00 -0.12933784024E+04  0.12933784024E+04  0.25500000000E-02 0.  1.
    8880022    1    1    2    0    0  0.16624847603E+04  0.24091019465E+03  0.17184979387E+03  0.16955286211E+04  0.15294330000E+03 0.  0.
    8880022    1    1    2    0    0 -0.16624847603E+04 -0.24091019465E+03  0.80669066751E+03  0.18697686451E+04  0.15294330000E+03 0.  0.
<mgrwt>
<rscale>  0 0.16867972E+04</rscale>
<asrwt>0</asrwt>
<pdfrwt beam="1">  1        2 0.34952598E+00 0.16867972E+04</pdfrwt>
<pdfrwt beam="2">  1       -2 0.19898129E+00 0.16867972E+04</pdfrwt>
<totfact> 0.58569370E-01</totfact>
</mgrwt>
</event>
<event>
 4    1  0.1033139E-008  0.7896383E+03  0.7818608E-02  0.9575138E-01
         -2   -1    0    0    0  501 -0.00000000000E+00  0.00000000000E+00  0.72461857468E+03  0.72461857468E+03  0.25500000000E-02 0.  1.
          2   -1    0    0  501    0  0.00000000000E+00 -0.00000000000E+00 -0.16591445110E+04  0.16591445110E+04  0.25500000000E-02 0. -1.
    8880022    1    1    2    0    0 -0.21426268172E+03  0.74446523710E+03 -0.12941950870E+04  0.15160704344E+04  0.15294330000E+03 0.  0.
    8880022    1    1    2    0    0  0.21426268172E+03 -0.74446523710E+03  0.35966915067E+03  0.86769265122E+03  0.15294330000E+03 0.  0.
<mgrwt>
<rscale>  0 0.78963830E+03</rscale>
<asrwt>0</asrwt>
<pdfrwt beam="1">  1        2 0.25525300E+00 0.78963830E+03</pdfrwt>
<pdfrwt beam="2">  1       -2 0.11147978E+00 0.78963830E+03</pdfrwt>
<totfact> 0.67199362E+00</totfact>
</mgrwt>
</event>
<event>
 4    1  0.1033139E-008  0.3986445E+03  0.7818608E-02  0.1044250E+00
         -2   -1    0    0    0  501 -0.00000000000E+00  0.00000000000E+00  0.17625643986E+03  0.17625643988E+03  0.25500000000E-02 0.  1.
          2   -1    0    0  501    0  0.00000000000E+00 -0.00000000000E+00 -0.29537210507E+04  0.29537210508E+04  0.25500000000E-02 0. -1.
    8880022    1    1    2    0    0  0.64982034703E+01 -0.36808092379E+03 -0.26931755310E+04  0.27225194006E+04  0.15294330000E+03 0.  0.
    8880022    1    1    2    0    0 -0.64982034703E+01  0.36808092379E+03 -0.84289079921E+02  0.40745809001E+03  0.15294330000E+03 0.  0.
<mgrwt>
<rscale>  0 0.39864451E+03</rscale>
<asrwt>0</asrwt>
<pdfrwt beam="1">  1        2 0.45441859E+00 0.39864451E+03</pdfrwt>
<pdfrwt beam="2">  1       -2 0.27116377E-01 0.39864451E+03</pdfrwt>
<totfact> 0.26251968E+01</totfact>
</mgrwt>
</event>
<event>
 4    1  0.1033139E-008  0.6660325E+03  0.7818608E-02  0.9777152E-01
         -2   -1    0    0    0  501 -0.00000000000E+00  0.00000000000E+00  0.17076066347E+04  0.17076066347E+04  0.25500000000E-02 0.  1.
          2   -1    0    0  501    0  0.00000000000E+00 -0.00000000000E+00 -0.17462011656E+04  0.17462011656E+04  0.25500000000E-02 0. -1.
    8880022    1    1    2    0    0  0.64658276882E+03  0.46243118265E+02 -0.16125776318E+04  0.17447079912E+04  0.15294330000E+03 0.  0.
    8880022    1    1    2    0    0 -0.64658276882E+03 -0.46243118265E+02  0.15739831008E+04  0.17090998091E+04  0.15294330000E+03 0.  0.
<mgrwt>
<rscale>  0 0.66603255E+03</rscale>
<asrwt>0</asrwt>
<pdfrwt beam="1">  1        2 0.26864633E+00 0.66603255E+03</pdfrwt>
<pdfrwt beam="2">  1       -2 0.26270871E+00 0.66603255E+03</pdfrwt>
<totfact> 0.53201793E-01</totfact>
</mgrwt>
</event>
<event>
 4    1  0.1033139E-008  0.6307061E+03  0.7818608E-02  0.9843672E-01
         -2   -1    0    0    0  501 -0.00000000000E+00  0.00000000000E+00  0.40146400203E+03  0.40146400203E+03  0.25500000000E-02 0.  1.
          2   -1    0    0  501    0  0.00000000000E+00 -0.00000000000E+00 -0.14880517315E+04  0.14880517315E+04  0.25500000000E-02 0. -1.
    8880022    1    1    2    0    0 -0.59923507531E+03  0.12375749809E+03  0.28137213848E+01  0.63071242564E+03  0.15294330000E+03 0.  0.
    8880022    1    1    2    0    0  0.59923507531E+03 -0.12375749809E+03 -0.10894014508E+04  0.12588033079E+04  0.15294330000E+03 0.  0.
<mgrwt>
<rscale>  0 0.63070615E+03</rscale>
<asrwt>0</asrwt>
<pdfrwt beam="1">  1        2 0.22893103E+00 0.63070615E+03</pdfrwt>
<pdfrwt beam="2">  1       -2 0.61763693E-01 0.63070615E+03</pdfrwt>
<totfact> 0.32594375E+01</totfact>
</mgrwt>
</event>
<event>
 4    1  0.1033139E-008  0.2269506E+03  0.7818608E-02  0.1128805E+00
         -2   -1    0    0    0  501 -0.00000000000E+00  0.00000000000E+00  0.65115195129E+02  0.65115195179E+02  0.25500000000E-02 0.  1.
          2   -1    0    0  501    0  0.00000000000E+00 -0.00000000000E+00 -0.79899122082E+03  0.79899122083E+03  0.25500000000E-02 0. -1.
    8880022    1    1    2    0    0 -0.16618752407E+03  0.22285168335E+02 -0.32374807126E+03  0.39537246811E+03  0.15294330000E+03 0. -1.
    8880022    1    1    2    0    0  0.16618752407E+03 -0.22285168335E+02 -0.41012795444E+03  0.46873394789E+03  0.15294330000E+03 0.  1.
<mgrwt>
<rscale>  0 0.22695060E+03</rscale>
<asrwt>0</asrwt>
<pdfrwt beam="1">  1        2 0.12292172E+00 0.22695060E+03</pdfrwt>
<pdfrwt beam="2">  1       -2 0.10017723E-01 0.22695060E+03</pdfrwt>
<totfact> 0.23412657E+03</totfact>
</mgrwt>
</event>
<event>
 4    1  0.1033139E-008  0.1447547E+04  0.7818608E-02  0.8920103E-01
          2   -1    0    0  501    0  0.00000000000E+00  0.00000000000E+00  0.31035288825E+04  0.31035288825E+04  0.25500000000E-02 0. -1.
         -2   -1    0    0    0  501 -0.00000000000E+00 -0.00000000000E+00 -0.74164211503E+03  0.74164211503E+03  0.25500000000E-02 0.  1.
    8880022    1    1    2    0    0  0.96581518280E+02 -0.14362006577E+04  0.60533545313E+03  0.15690197522E+04  0.15294330000E+03 0.  0.
    8880022    1    1    2    0    0 -0.96581518280E+02  0.14362006577E+04  0.17565513143E+04  0.22761512453E+04  0.15294330000E+03 0.  0.
<mgrwt>
<rscale>  0 0.14475469E+04</rscale>
<asrwt>0</asrwt>
<pdfrwt beam="1">  1        2 0.47746598E+00 0.14475469E+04</pdfrwt>
<pdfrwt beam="2">  1       -2 0.11409879E+00 0.14475469E+04</pdfrwt>
<totfact> 0.86413387E-01</totfact>
</mgrwt>
</event>
<event>
 4    1  0.1033139E-008  0.3835329E+03  0.7818608E-02  0.1049636E+00
          2   -1    0    0  501    0  0.00000000000E+00  0.00000000000E+00  0.24008207024E+04  0.24008207024E+04  0.25500000000E-02 0. -1.
         -2   -1    0    0    0  501 -0.00000000000E+00 -0.00000000000E+00 -0.91756948671E+03  0.91756948671E+03  0.25500000000E-02 0.  1.
    8880022    1    1    2    0    0  0.56147996605E+02  0.34720771471E+03 -0.86121709301E+03  0.94275783157E+03  0.15294330000E+03 0.  0.
    8880022    1    1    2    0    0 -0.56147996605E+02 -0.34720771471E+03  0.23444683087E+04  0.23756323575E+04  0.15294330000E+03 0.  0.
<mgrwt>
<rscale>  0 0.38353285E+03</rscale>
<asrwt>0</asrwt>
<pdfrwt beam="1">  1        2 0.36935703E+00 0.38353285E+03</pdfrwt>
<pdfrwt beam="2">  1       -2 0.14116454E+00 0.38353285E+03</pdfrwt>
<totfact> 0.16244118E+00</totfact>
</mgrwt>
</event>
<event>
 4    1  0.1033139E-008  0.8165379E+03  0.7818608E-02  0.9536383E-01
          2   -1    0    0  501    0  0.00000000000E+00  0.00000000000E+00  0.92705121441E+03  0.92705121442E+03  0.25500000000E-02 0. -1.
         -2   -1    0    0    0  501 -0.00000000000E+00 -0.00000000000E+00 -0.83599139875E+03  0.83599139876E+03  0.25500000000E-02 0.  1.
    8880022    1    1    2    0    0 -0.15351197944E+03 -0.78725886742E+03 -0.28395809194E+03  0.86450350095E+03  0.15294330000E+03 0.  0.
    8880022    1    1    2    0    0  0.15351197944E+03  0.78725886742E+03  0.37501790760E+03  0.89853911222E+03  0.15294330000E+03 0.  0.
<mgrwt>
<rscale>  0 0.81653788E+03</rscale>
<asrwt>0</asrwt>
<pdfrwt beam="1">  1        2 0.14262326E+00 0.81653788E+03</pdfrwt>
<pdfrwt beam="2">  1       -2 0.12861406E+00 0.81653788E+03</pdfrwt>
<totfact> 0.12662938E+01</totfact>
</mgrwt>
</event>
<event>
 4    1  0.1033139E-008  0.5048154E+03  0.7818608E-02  0.1012530E+00
          2   -1    0    0  501    0  0.00000000000E+00  0.00000000000E+00  0.18202029594E+04  0.18202029594E+04  0.25500000000E-02 0. -1.
         -2   -1    0    0    0  501 -0.00000000000E+00 -0.00000000000E+00 -0.77958470299E+03  0.77958470300E+03  0.25500000000E-02 0.  1.
    8880022    1    1    2    0    0  0.47154700667E+03 -0.95343235911E+02 -0.65708907589E+03  0.82861608650E+03  0.15294330000E+03 0.  0.
    8880022    1    1    2    0    0 -0.47154700667E+03  0.95343235911E+02  0.16977073323E+04  0.17711715759E+04  0.15294330000E+03 0.  0.
<mgrwt>
<rscale>  0 0.50481538E+03</rscale>
<asrwt>0</asrwt>
<pdfrwt beam="1">  1        2 0.28003122E+00 0.50481538E+03</pdfrwt>
<pdfrwt beam="2">  1       -2 0.11993611E+00 0.50481538E+03</pdfrwt>
<totfact> 0.48432383E+00</totfact>
</mgrwt>
</event>
<event>
 4    1  0.1033139E-008  0.6327498E+03  0.7818608E-02  0.9839697E-01
         -2   -1    0    0    0  501 -0.00000000000E+00  0.00000000000E+00  0.20390526953E+04  0.20390526953E+04  0.25500000000E-02 0.  1.
          2   -1    0    0  501    0  0.00000000000E+00 -0.00000000000E+00 -0.87235478090E+03  0.87235478090E+03  0.25500000000E-02 0. -1.
    8880022    1    1    2    0    0  0.23081032036E+03  0.56895273576E+03 -0.69809800114E+03  0.94218527463E+03  0.15294330000E+03 0.  0.
    8880022    1    1    2    0    0 -0.23081032036E+03 -0.56895273576E+03  0.18647959155E+04  0.19692222016E+04  0.15294330000E+03 0.  0.
<mgrwt>
<rscale>  0 0.63274977E+03</rscale>
<asrwt>0</asrwt>
<pdfrwt beam="1">  1        2 0.13420843E+00 0.63274977E+03</pdfrwt>
<pdfrwt beam="2">  1       -2 0.31370041E+00 0.63274977E+03</pdfrwt>
<totfact> 0.86166047E-01</totfact>
</mgrwt>
</event>
<event>
 4    1  0.1033139E-008  0.9843376E+03  0.7818608E-02  0.9325892E-01
          2   -1    0    0  501    0  0.00000000000E+00  0.00000000000E+00  0.21608942453E+04  0.21608942453E+04  0.25500000000E-02 0. -1.
         -2   -1    0    0    0  501 -0.00000000000E+00 -0.00000000000E+00 -0.14626191705E+04  0.14626191705E+04  0.25500000000E-02 0.  1.
    8880022    1    1    2    0    0 -0.36030027565E+03  0.90316810705E+03 -0.11595613609E+04  0.15210204210E+04  0.15294330000E+03 0.  1.
    8880022    1    1    2    0    0  0.36030027565E+03 -0.90316810705E+03  0.18578364357E+04  0.21024929948E+04  0.15294330000E+03 0.  0.
<mgrwt>
<rscale>  0 0.98433763E+03</rscale>
<asrwt>0</asrwt>
<pdfrwt beam="1">  1        2 0.33244527E+00 0.98433763E+03</pdfrwt>
<pdfrwt beam="2">  1       -2 0.22501833E+00 0.98433763E+03</pdfrwt>
<totfact> 0.50183096E-01</totfact>
</mgrwt>
</event>
<event>
 4    1  0.1033139E-008  0.3194282E+03  0.7818608E-02  0.1075913E+00
          2   -1    0    0  501    0  0.00000000000E+00  0.00000000000E+00  0.12096610888E+04  0.12096610888E+04  0.25500000000E-02 0. -1.
         -2   -1    0    0    0  501 -0.00000000000E+00 -0.00000000000E+00 -0.85915328374E+02  0.85915328412E+02  0.25500000000E-02 0.  1.
    8880022    1    1    2    0    0  0.79050373116E+02  0.26906083006E+03  0.47442171943E+03  0.57193558435E+03  0.15294330000E+03 0.  0.
    8880022    1    1    2    0    0 -0.79050373116E+02 -0.26906083006E+03  0.64932404100E+03  0.72364083287E+03  0.15294330000E+03 0.  0.
<mgrwt>
<rscale>  0 0.31942815E+03</rscale>
<asrwt>0</asrwt>
<pdfrwt beam="1">  1        2 0.18610171E+00 0.31942815E+03</pdfrwt>
<pdfrwt beam="2">  1       -2 0.13217743E-01 0.31942815E+03</pdfrwt>
<totfact> 0.83220874E+02</totfact>
</mgrwt>
</event>
<event>
 4    1  0.1344432E-008  0.8757874E+03  0.7818608E-02  0.9456365E-01
          2   -1    0    0  501    0  0.00000000000E+00  0.00000000000E+00  0.19524883223E+04  0.19524883223E+04  0.25500000000E-02 0. -1.
         -2   -1    0    0    0  501 -0.00000000000E+00 -0.00000000000E+00 -0.15484597883E+04  0.15484597883E+04  0.25500000000E-02 0.  1.
    8880022    1    1    2    0    0  0.80248292459E+03  0.31564700058E+03 -0.13102035508E+04  0.15759558594E+04  0.15294330000E+03 0.  0.
    8880022    1    1    2    0    0 -0.80248292459E+03 -0.31564700058E+03  0.17142320849E+04  0.19249922512E+04  0.15294330000E+03 0.  0.
<mgrwt>
<rscale>  0 0.87578738E+03</rscale>
<asrwt>0</asrwt>
<pdfrwt beam="1">  1        2 0.30038282E+00 0.87578738E+03</pdfrwt>
<pdfrwt beam="2">  1       -2 0.23822458E+00 0.87578738E+03</pdfrwt>
<totfact> 0.55202525E-01</totfact>
</mgrwt>
</event>
<event>
 4    1  0.1033139E-008  0.5821297E+03  0.7818608E-02  0.9943191E-01
          2   -1    0    0  501    0  0.00000000000E+00  0.00000000000E+00  0.40774228205E+03  0.40774228206E+03  0.25500000000E-02 0. -1.
         -2   -1    0    0    0  501 -0.00000000000E+00 -0.00000000000E+00 -0.22467927883E+04  0.22467927883E+04  0.25500000000E-02 0.  1.
    8880022    1    1    2    0    0  0.41714739639E+03  0.37612674668E+03 -0.19730902897E+04  0.20571728717E+04  0.15294330000E+03 0.  1.
    8880022    1    1    2    0    0 -0.41714739639E+03 -0.37612674668E+03  0.13403978337E+03  0.59736219869E+03  0.15294330000E+03 0.  0.
<mgrwt>
<rscale>  0 0.58212965E+03</rscale>
<asrwt>0</asrwt>
<pdfrwt beam="1">  1        2 0.62729584E-01 0.58212965E+03</pdfrwt>
<pdfrwt beam="2">  1       -2 0.34566042E+00 0.58212965E+03</pdfrwt>
<totfact> 0.14009170E+00</totfact>
</mgrwt>
</event>
<event>
 4    1  0.1033139E-008  0.7115170E+03  0.7818608E-02  0.9697737E-01
         -2   -1    0    0    0  501 -0.00000000000E+00  0.00000000000E+00  0.30018825964E+03  0.30018825965E+03  0.25500000000E-02 0.  1.
          2   -1    0    0  501    0  0.00000000000E+00 -0.00000000000E+00 -0.29667121374E+04  0.29667121374E+04  0.25500000000E-02 0. -1.
    8880022    1    1    2    0    0 -0.49342925535E+03  0.48927732085E+03 -0.24063007916E+04  0.25092907124E+04  0.15294330000E+03 0.  0.
    8880022    1    1    2    0    0  0.49342925535E+03 -0.48927732085E+03 -0.26022308622E+03  0.75760968470E+03  0.15294330000E+03 0.  1.
<mgrwt>
<rscale>  0 0.71151696E+03</rscale>
<asrwt>0</asrwt>
<pdfrwt beam="1">  1        2 0.45641723E+00 0.71151696E+03</pdfrwt>
<pdfrwt beam="2">  1       -2 0.46182811E-01 0.71151696E+03</pdfrwt>
<totfact> 0.86930374E+00</totfact>
</mgrwt>
</event>
<event>
 4    1  0.1033139E-008  0.8621385E+03  0.7818608E-02  0.9474188E-01
          2   -1    0    0  501    0  0.00000000000E+00  0.00000000000E+00  0.10420277572E+04  0.10420277572E+04  0.25500000000E-02 0. -1.
         -2   -1    0    0    0  501 -0.00000000000E+00 -0.00000000000E+00 -0.11915085988E+04  0.11915085988E+04  0.25500000000E-02 0.  1.
    8880022    1    1    2    0    0  0.62773592871E+03  0.57082285082E+03  0.63275107362E+03  0.10694188597E+04  0.15294330000E+03 0.  0.
    8880022    1    1    2    0    0 -0.62773592871E+03 -0.57082285082E+03 -0.78223191515E+03  0.11641174963E+04  0.15294330000E+03 0.  0.
<mgrwt>
<rscale>  0 0.86213849E+03</rscale>
<asrwt>0</asrwt>
<pdfrwt beam="1">  1        2 0.16031196E+00 0.86213849E+03</pdfrwt>
<pdfrwt beam="2">  1       -2 0.18330902E+00 0.86213849E+03</pdfrwt>
<totfact> 0.41039525E+00</totfact>
</mgrwt>
</event>
<event>
 4    1  0.1033139E-008  0.5791048E+03  0.7818608E-02  0.9949731E-01
         -2   -1    0    0    0  501 -0.00000000000E+00  0.00000000000E+00  0.38703198234E+03  0.38703198235E+03  0.25500000000E-02 0.  1.
          2   -1    0    0  501    0  0.00000000000E+00 -0.00000000000E+00 -0.15341551890E+04  0.15341551890E+04  0.25500000000E-02 0. -1.
    8880022    1    1    2    0    0  0.43355853830E+03 -0.35213309823E+03 -0.12072588956E+04  0.13389684160E+04  0.15294330000E+03 0.  0.
    8880022    1    1    2    0    0 -0.43355853830E+03  0.35213309823E+03  0.60135688922E+02  0.58221875537E+03  0.15294330000E+03 0.  0.
<mgrwt>
<rscale>  0 0.57910481E+03</rscale>
<asrwt>0</asrwt>
<pdfrwt beam="1">  1        2 0.23602387E+00 0.57910481E+03</pdfrwt>
<pdfrwt beam="2">  1       -2 0.59543383E-01 0.57910481E+03</pdfrwt>
<totfact> 0.33450514E+01</totfact>
</mgrwt>
</event>
<event>
 4    1  0.1033139E-008  0.7797479E+03  0.7818608E-02  0.9589803E-01
          2   -1    0    0  501    0  0.00000000000E+00  0.00000000000E+00  0.24306459026E+04  0.24306459026E+04  0.25500000000E-02 0. -1.
         -2   -1    0    0    0  501 -0.00000000000E+00 -0.00000000000E+00 -0.57645818792E+03  0.57645818793E+03  0.25500000000E-02 0.  1.
    8880022    1    1    2    0    0  0.58744008969E+03  0.48941735622E+03 -0.20414367356E+03  0.80602822532E+03  0.15294330000E+03 0.  0.
    8880022    1    1    2    0    0 -0.58744008969E+03 -0.48941735622E+03  0.20583313882E+04  0.22010758652E+04  0.15294330000E+03 0.  0.
<mgrwt>
<rscale>  0 0.77974795E+03</rscale>
<asrwt>0</asrwt>
<pdfrwt beam="1">  1        2 0.37394553E+00 0.77974795E+03</pdfrwt>
<pdfrwt beam="2">  1       -2 0.88685874E-01 0.77974795E+03</pdfrwt>
<totfact> 0.43507459E+00</totfact>
</mgrwt>
</event>
<event>
 4    1  0.1033139E-008  0.6944856E+03  0.7818608E-02  0.9726709E-01
         -2   -1    0    0    0  501 -0.00000000000E+00  0.00000000000E+00  0.69317768131E+03  0.69317768132E+03  0.25500000000E-02 0.  1.
          2   -1    0    0  501    0  0.00000000000E+00 -0.00000000000E+00 -0.16707286405E+04  0.16707286405E+04  0.25500000000E-02 0. -1.
    8880022    1    1    2    0    0  0.36303693187E+03  0.57194643198E+03  0.41411408896E+03  0.80857941271E+03  0.15294330000E+03 0.  0.
    8880022    1    1    2    0    0 -0.36303693187E+03 -0.57194643198E+03 -0.13916650482E+04  0.15553269091E+04  0.15294330000E+03 0.  0.
<mgrwt>
<rscale>  0 0.69448556E+03</rscale>
<asrwt>0</asrwt>
<pdfrwt beam="1">  1        2 0.25703517E+00 0.69448556E+03</pdfrwt>
<pdfrwt beam="2">  1       -2 0.10664272E+00 0.69448556E+03</pdfrwt>
<totfact> 0.74776993E+00</totfact>
</mgrwt>
</event>
<event>
 4    1  0.1033139E-008  0.1144109E+04  0.7818608E-02  0.9163236E-01
          2   -1    0    0  501    0  0.00000000000E+00  0.00000000000E+00  0.22007537774E+04  0.22007537774E+04  0.25500000000E-02 0. -1.
         -2   -1    0    0    0  501 -0.00000000000E+00 -0.00000000000E+00 -0.82073500763E+03  0.82073500763E+03  0.25500000000E-02 0.  1.
    8880022    1    1    2    0    0  0.65537541064E+03  0.92524379000E+03  0.14826779272E+04  0.18727836203E+04  0.15294330000E+03 0.  0.
    8880022    1    1    2    0    0 -0.65537541064E+03 -0.92524379000E+03 -0.10265915742E+03  0.11487051647E+04  0.15294330000E+03 0.  0.
<mgrwt>
<rscale>  0 0.11441087E+04</rscale>
<asrwt>0</asrwt>
<pdfrwt beam="1">  1        2 0.33857751E+00 0.11441087E+04</pdfrwt>
<pdfrwt beam="2">  1       -2 0.12626692E+00 0.11441087E+04</pdfrwt>
<totfact> 0.23715004E+00</totfact>
</mgrwt>
</event>
<event>
 4    1  0.1033139E-008  0.4096656E+03  0.7818608E-02  0.1040483E+00
         -2   -1    0    0    0  501 -0.00000000000E+00  0.00000000000E+00  0.26294497472E+04  0.26294497472E+04  0.25500000000E-02 0.  1.
          2   -1    0    0  501    0  0.00000000000E+00 -0.00000000000E+00 -0.14387009810E+04  0.14387009810E+04  0.25500000000E-02 0. -1.
    8880022    1    1    2    0    0  0.29116544783E+02 -0.37892803056E+03 -0.13930700422E+04  0.14520571686E+04  0.15294330000E+03 0.  0.
    8880022    1    1    2    0    0 -0.29116544783E+02  0.37892803056E+03  0.25838188083E+04  0.26160935596E+04  0.15294330000E+03 0.  0.
<mgrwt>
<rscale>  0 0.40966557E+03</rscale>
<asrwt>0</asrwt>
<pdfrwt beam="1">  1        2 0.22133861E+00 0.40966557E+03</pdfrwt>
<pdfrwt beam="2">  1       -2 0.40453073E+00 0.40966557E+03</pdfrwt>
<totfact> 0.11592554E-01</totfact>
</mgrwt>
</event>
<event>
 4    1  0.1033139E-008  0.1791775E+04  0.7818608E-02  0.8710686E-01
         -2   -1    0    0    0  501 -0.00000000000E+00  0.00000000000E+00  0.14610083858E+04  0.14610083858E+04  0.25500000000E-02 0.  1.
          2   -1    0    0  501    0  0.00000000000E+00 -0.00000000000E+00 -0.34256098872E+04  0.34256098872E+04  0.25500000000E-02 0. -1.
    8880022    1    1    2    0    0  0.17202566340E+04  0.47726676386E+03  0.48068848219E+03  0.18551332892E+04  0.15294330000E+03 0.  0.
    8880022    1    1    2    0    0 -0.17202566340E+04 -0.47726676386E+03 -0.24452899835E+04  0.30314849838E+04  0.15294330000E+03 0.  0.
<mgrwt>
<rscale>  0 0.17917751E+04</rscale>
<asrwt>0</asrwt>
<pdfrwt beam="1">  1        2 0.52701690E+00 0.17917751E+04</pdfrwt>
<pdfrwt beam="2">  1       -2 0.22477052E+00 0.17917751E+04</pdfrwt>
<totfact> 0.76928194E-02</totfact>
</mgrwt>
</event>
<event>
 4    1  0.1033139E-008  0.4111144E+03  0.7818608E-02  0.1039998E+00
         -2   -1    0    0    0  501 -0.00000000000E+00  0.00000000000E+00  0.18698811549E+03  0.18698811550E+03  0.25500000000E-02 0.  1.
          2   -1    0    0  501    0  0.00000000000E+00 -0.00000000000E+00 -0.11362722216E+04  0.11362722216E+04  0.25500000000E-02 0. -1.
    8880022    1    1    2    0    0 -0.17640757303E+03 -0.33838410974E+03 -0.77385717326E+03  0.87628192676E+03  0.15294330000E+03 0.  0.
    8880022    1    1    2    0    0  0.17640757303E+03  0.33838410974E+03 -0.17542693288E+03  0.44697841038E+03  0.15294330000E+03 0.  0.
<mgrwt>
<rscale>  0 0.41111445E+03</rscale>
<asrwt>0</asrwt>
<pdfrwt beam="1">  1        2 0.17481111E+00 0.41111445E+03</pdfrwt>
<pdfrwt beam="2">  1       -2 0.28767403E-01 0.41111445E+03</pdfrwt>
<totfact> 0.23800631E+02</totfact>
</mgrwt>
</event>
<event>
 4    1  0.1033139E-008  0.1550310E+04  0.7818608E-02  0.8851670E-01
         -2   -1    0    0    0  501 -0.00000000000E+00  0.00000000000E+00  0.98637849661E+03  0.98637849662E+03  0.25500000000E-02 0.  1.
          2   -1    0    0  501    0  0.00000000000E+00 -0.00000000000E+00 -0.24834705590E+04  0.24834705590E+04  0.25500000000E-02 0. -1.
    8880022    1    1    2    0    0 -0.33448664196E+03 -0.15060503860E+04 -0.51033492668E+03  0.16321465833E+04  0.15294330000E+03 0.  0.
    8880022    1    1    2    0    0  0.33448664196E+03  0.15060503860E+04 -0.98675713566E+03  0.18377024723E+04  0.15294330000E+03 0.  0.
<mgrwt>
<rscale>  0 0.15503099E+04</rscale>
<asrwt>0</asrwt>
<pdfrwt beam="1">  1        2 0.38207239E+00 0.15503099E+04</pdfrwt>
<pdfrwt beam="2">  1       -2 0.15175054E+00 0.15503099E+04</pdfrwt>
<totfact> 0.97168781E-01</totfact>
</mgrwt>
</event>
<event>
 4    1  0.1033139E-008  0.7046065E+03  0.7818608E-02  0.9709387E-01
          2   -1    0    0  501    0  0.00000000000E+00  0.00000000000E+00  0.13842724267E+04  0.13842724267E+04  0.25500000000E-02 0. -1.
         -2   -1    0    0    0  501 -0.00000000000E+00 -0.00000000000E+00 -0.89516233430E+03  0.89516233430E+03  0.25500000000E-02 0.  1.
    8880022    1    1    2    0    0  0.56088001949E+03 -0.39811087610E+03 -0.63778467417E+03  0.95038918847E+03  0.15294330000E+03 0.  0.
    8880022    1    1    2    0    0 -0.56088001949E+03  0.39811087610E+03  0.11268947665E+04  0.13290455725E+04  0.15294330000E+03 0.  0.
<mgrwt>
<rscale>  0 0.70460650E+03</rscale>
<asrwt>0</asrwt>
<pdfrwt beam="1">  1        2 0.21296499E+00 0.70460650E+03</pdfrwt>
<pdfrwt beam="2">  1       -2 0.13771728E+00 0.70460650E+03</pdfrwt>
<totfact> 0.57069863E+00</totfact>
</mgrwt>
</event>
<event>
 4    1  0.1033139E-008  0.5148800E+03  0.7818608E-02  0.1009966E+00
          2   -1    0    0  501    0  0.00000000000E+00  0.00000000000E+00  0.18925833884E+04  0.18925833884E+04  0.25500000000E-02 0. -1.
         -2   -1    0    0    0  501 -0.00000000000E+00 -0.00000000000E+00 -0.44276162269E+03  0.44276162270E+03  0.25500000000E-02 0.  1.
    8880022    1    1    2    0    0  0.31020074977E+03 -0.38142532247E+03  0.16903691606E+04  0.17670453684E+04  0.15294330000E+03 0. -1.
    8880022    1    1    2    0    0 -0.31020074977E+03  0.38142532247E+03 -0.24054739485E+03  0.56829964276E+03  0.15294330000E+03 0.  0.
<mgrwt>
<rscale>  0 0.51488002E+03</rscale>
<asrwt>0</asrwt>
<pdfrwt beam="1">  1        2 0.29116668E+00 0.51488002E+03</pdfrwt>
<pdfrwt beam="2">  1       -2 0.68117173E-01 0.51488002E+03</pdfrwt>
<totfact> 0.16243578E+01</totfact>
</mgrwt>
</event>
<event>
 4    1  0.1033139E-008  0.3740328E+03  0.7818608E-02  0.1053162E+00
         -2   -1    0    0    0  501 -0.00000000000E+00  0.00000000000E+00  0.12395478033E+03  0.12395478036E+03  0.25500000000E-02 0.  1.
          2   -1    0    0  501    0  0.00000000000E+00 -0.00000000000E+00 -0.13245730090E+04  0.13245730090E+04  0.25500000000E-02 0. -1.
    8880022    1    1    2    0    0 -0.24471809481E+03 -0.23795356813E+03 -0.87886421375E+03  0.95514543696E+03  0.15294330000E+03 0. -1.
    8880022    1    1    2    0    0  0.24471809481E+03  0.23795356813E+03 -0.32175401488E+03  0.49338235236E+03  0.15294330000E+03 0.  0.
<mgrwt>
<rscale>  0 0.37403275E+03</rscale>
<asrwt>0</asrwt>
<pdfrwt beam="1">  1        2 0.20378045E+00 0.37403275E+03</pdfrwt>
<pdfrwt beam="2">  1       -2 0.19069967E-01 0.37403275E+03</pdfrwt>
<totfact> 0.38549347E+02</totfact>
</mgrwt>
</event>
<event>
 4    1  0.1033139E-008  0.1110736E+04  0.7818608E-02  0.9194790E-01
          2   -1    0    0  501    0  0.00000000000E+00  0.00000000000E+00  0.65410588710E+03  0.65410588710E+03  0.25500000000E-02 0. -1.
         -2   -1    0    0    0  501 -0.00000000000E+00 -0.00000000000E+00 -0.24141317951E+04  0.24141317951E+04  0.25500000000E-02 0.  1.
    8880022    1    1    2    0    0  0.66130802069E+03 -0.87921288017E+03 -0.15974637578E+04  0.19456684449E+04  0.15294330000E+03 0.  0.
    8880022    1    1    2    0    0 -0.66130802069E+03  0.87921288017E+03 -0.16256215018E+03  0.11225692373E+04  0.15294330000E+03 0.  0.
<mgrwt>
<rscale>  0 0.11107364E+04</rscale>
<asrwt>0</asrwt>
<pdfrwt beam="1">  1        2 0.10063168E+00 0.11107364E+04</pdfrwt>
<pdfrwt beam="2">  1       -2 0.37140489E+00 0.11107364E+04</pdfrwt>
<totfact> 0.50754310E-01</totfact>
</mgrwt>
</event>
<event>
 4    1  0.1033139E-008  0.6269294E+03  0.7818608E-02  0.9851059E-01
         -2   -1    0    0    0  501 -0.00000000000E+00  0.00000000000E+00  0.54912678037E+03  0.54912678037E+03  0.25500000000E-02 0.  1.
          2   -1    0    0  501    0  0.00000000000E+00 -0.00000000000E+00 -0.15318203750E+04  0.15318203750E+04  0.25500000000E-02 0. -1.
    8880022    1    1    2    0    0 -0.52823235321E+02 -0.60568850950E+03  0.26808622151E+03  0.68184363304E+03  0.15294330000E+03 0.  0.
    8880022    1    1    2    0    0  0.52823235321E+02  0.60568850950E+03 -0.12507798161E+04  0.13991035223E+04  0.15294330000E+03 0.  0.
<mgrwt>
<rscale>  0 0.62692944E+03</rscale>
<asrwt>0</asrwt>
<pdfrwt beam="1">  1        2 0.23566467E+00 0.62692944E+03</pdfrwt>
<pdfrwt beam="2">  1       -2 0.84481044E-01 0.62692944E+03</pdfrwt>
<totfact> 0.15518364E+01</totfact>
</mgrwt>
</event>
<event>
 4    1  0.1033139E-008  0.5211341E+03  0.7818608E-02  0.1008405E+00
          2   -1    0    0  501    0  0.00000000000E+00  0.00000000000E+00  0.76079976606E+03  0.76079976606E+03  0.25500000000E-02 0. -1.
         -2   -1    0    0    0  501 -0.00000000000E+00 -0.00000000000E+00 -0.11210346380E+04  0.11210346380E+04  0.25500000000E-02 0.  1.
    8880022    1    1    2    0    0 -0.45604698305E+03 -0.20052497092E+03  0.59667978249E+03  0.79221684566E+03  0.15294330000E+03 0.  0.
    8880022    1    1    2    0    0  0.45604698305E+03  0.20052497092E+03 -0.95691465448E+03  0.10896175584E+04  0.15294330000E+03 0.  0.
<mgrwt>
<rscale>  0 0.52113412E+03</rscale>
<asrwt>0</asrwt>
<pdfrwt beam="1">  1        2 0.11704612E+00 0.52113412E+03</pdfrwt>
<pdfrwt beam="2">  1       -2 0.17246687E+00 0.52113412E+03</pdfrwt>
<totfact> 0.79242804E+00</totfact>
</mgrwt>
</event>
<event>
 4    1  0.1033139E-008  0.6482717E+03  0.7818608E-02  0.9810028E-01
          2   -1    0    0  501    0  0.00000000000E+00  0.00000000000E+00  0.23962905306E+03  0.23962905308E+03  0.25500000000E-02 0. -1.
         -2   -1    0    0    0  501 -0.00000000000E+00 -0.00000000000E+00 -0.18909643861E+04  0.18909643861E+04  0.25500000000E-02 0.  1.
    8880022    1    1    2    0    0 -0.59865586986E+03  0.19615230977E+03 -0.53873238286E+03  0.84290498427E+03  0.15294330000E+03 0.  0.
    8880022    1    1    2    0    0  0.59865586986E+03 -0.19615230977E+03 -0.11126029502E+04  0.12876884549E+04  0.15294330000E+03 0.  0.
<mgrwt>
<rscale>  0 0.64827173E+03</rscale>
<asrwt>0</asrwt>
<pdfrwt beam="1">  1        2 0.36866009E-01 0.64827173E+03</pdfrwt>
<pdfrwt beam="2">  1       -2 0.29091759E+00 0.64827173E+03</pdfrwt>
<totfact> 0.53556583E+00</totfact>
</mgrwt>
</event>
<event>
 4    1  0.1033139E-008  0.7339498E+03  0.7818608E-02  0.9660872E-01
         -2   -1    0    0    0  501 -0.00000000000E+00  0.00000000000E+00  0.96763333408E+03  0.96763333408E+03  0.25500000000E-02 0.  1.
          2   -1    0    0  501    0  0.00000000000E+00 -0.00000000000E+00 -0.22877132176E+04  0.22877132176E+04  0.25500000000E-02 0. -1.
    8880022    1    1    2    0    0  0.60299895180E+03 -0.38946500149E+03 -0.20758875705E+04  0.22018155194E+04  0.15294330000E+03 0.  0.
    8880022    1    1    2    0    0 -0.60299895180E+03  0.38946500149E+03  0.75580768696E+03  0.10535310323E+04  0.15294330000E+03 0.  0.
<mgrwt>
<rscale>  0 0.73394985E+03</rscale>
<asrwt>0</asrwt>
<pdfrwt beam="1">  1        2 0.35195588E+00 0.73394985E+03</pdfrwt>
<pdfrwt beam="2">  1       -2 0.14886667E+00 0.73394985E+03</pdfrwt>
<totfact> 0.14776439E+00</totfact>
</mgrwt>
</event>
<event>
 4    1  0.1033139E-008  0.1096077E+04  0.7818608E-02  0.9209024E-01
          2   -1    0    0  501    0  0.00000000000E+00  0.00000000000E+00  0.23496733435E+04  0.23496733435E+04  0.25500000000E-02 0. -1.
         -2   -1    0    0    0  501 -0.00000000000E+00 -0.00000000000E+00 -0.10891466449E+04  0.10891466449E+04  0.25500000000E-02 0.  1.
    8880022    1    1    2    0    0 -0.25420257147E+03 -0.10551655099E+04  0.18826633693E+04  0.21784871392E+04  0.15294330000E+03 0.  0.
    8880022    1    1    2    0    0  0.25420257147E+03  0.10551655099E+04 -0.62213667071E+03  0.12603328492E+04  0.15294330000E+03 0.  0.
<mgrwt>
<rscale>  0 0.10960770E+04</rscale>
<asrwt>0</asrwt>
<pdfrwt beam="1">  1        2 0.36148820E+00 0.10960770E+04</pdfrwt>
<pdfrwt beam="2">  1       -2 0.16756102E+00 0.10960770E+04</pdfrwt>
<totfact> 0.93186196E-01</totfact>
</mgrwt>
</event>
<event>
 4    1  0.1033139E-008  0.1651593E+04  0.7818608E-02  0.8789465E-01
         -2   -1    0    0    0  501 -0.00000000000E+00  0.00000000000E+00  0.16632400332E+04  0.16632400332E+04  0.25500000000E-02 0.  1.
          2   -1    0    0  501    0  0.00000000000E+00 -0.00000000000E+00 -0.23017861367E+04  0.23017861367E+04  0.25500000000E-02 0. -1.
    8880022    1    1    2    0    0  0.16351176430E+04  0.17537907409E+03 -0.13822734536E+04  0.21537035729E+04  0.15294330000E+03 0.  0.
    8880022    1    1    2    0    0 -0.16351176430E+04 -0.17537907409E+03  0.74372735013E+03  0.18113225970E+04  0.15294330000E+03 0.  0.
<mgrwt>
<rscale>  0 0.16515929E+04</rscale>
<asrwt>0</asrwt>
<pdfrwt beam="1">  1        2 0.35412095E+00 0.16515929E+04</pdfrwt>
<pdfrwt beam="2">  1       -2 0.25588308E+00 0.16515929E+04</pdfrwt>
<totfact> 0.24645555E-01</totfact>
</mgrwt>
</event>
<event>
 4    1  0.1033139E-008  0.1575462E+04  0.7818608E-02  0.8835766E-01
          2   -1    0    0  501    0  0.00000000000E+00  0.00000000000E+00  0.13979356840E+04  0.13979356840E+04  0.25500000000E-02 0. -1.
         -2   -1    0    0    0  501 -0.00000000000E+00 -0.00000000000E+00 -0.25846027297E+04  0.25846027297E+04  0.25500000000E-02 0.  1.
    8880022    1    1    2    0    0 -0.36646435719E+03  0.15245962359E+04  0.52077104467E+03  0.16593022454E+04  0.15294330000E+03 0.  0.
    8880022    1    1    2    0    0  0.36646435719E+03 -0.15245962359E+04 -0.17074380904E+04  0.23232361682E+04  0.15294330000E+03 0.  0.
<mgrwt>
<rscale>  0 0.15754623E+04</rscale>
<asrwt>0</asrwt>
<pdfrwt beam="1">  1        2 0.21506703E+00 0.15754623E+04</pdfrwt>
<pdfrwt beam="2">  1       -2 0.39763119E+00 0.15754623E+04</pdfrwt>
<totfact> 0.10440171E-01</totfact>
</mgrwt>
</event>
<event>
 4    1  0.1033139E-008  0.5460277E+03  0.7818608E-02  0.1002418E+00
         -2   -1    0    0    0  501 -0.00000000000E+00  0.00000000000E+00  0.79866482513E+03  0.79866482513E+03  0.25500000000E-02 0.  1.
          2   -1    0    0  501    0  0.00000000000E+00 -0.00000000000E+00 -0.47023359507E+03  0.47023359508E+03  0.25500000000E-02 0. -1.
    8880022    1    1    2    0    0 -0.10052620510E+03 -0.51444049728E+03 -0.12383197368E+03  0.55989334151E+03  0.15294330000E+03 0.  0.
    8880022    1    1    2    0    0  0.10052620510E+03  0.51444049728E+03  0.45226320374E+03  0.70900507870E+03  0.15294330000E+03 0.  0.
<mgrwt>
<rscale>  0 0.54602765E+03</rscale>
<asrwt>0</asrwt>
<pdfrwt beam="1">  1        2 0.72343630E-01 0.54602765E+03</pdfrwt>
<pdfrwt beam="2">  1       -2 0.12287151E+00 0.54602765E+03</pdfrwt>
<totfact> 0.34088487E+01</totfact>
</mgrwt>
</event>
<event>
 4    1  0.1033139E-008  0.8989189E+03  0.7818608E-02  0.9426934E-01
         -2   -1    0    0    0  501 -0.00000000000E+00  0.00000000000E+00  0.43198372582E+03  0.43198372583E+03  0.25500000000E-02 0.  1.
          2   -1    0    0  501    0  0.00000000000E+00 -0.00000000000E+00 -0.21662313154E+04  0.21662313154E+04  0.25500000000E-02 0. -1.
    8880022    1    1    2    0    0  0.88315163422E+03 -0.68605677497E+02 -0.38717937188E+03  0.97875587714E+03  0.15294330000E+03 0.  0.
    8880022    1    1    2    0    0 -0.88315163422E+03  0.68605677497E+02 -0.13470682177E+04  0.16194591641E+04  0.15294330000E+03 0.  0.
<mgrwt>
<rscale>  0 0.89891891E+03</rscale>
<asrwt>0</asrwt>
<pdfrwt beam="1">  1        2 0.33326635E+00 0.89891891E+03</pdfrwt>
<pdfrwt beam="2">  1       -2 0.66459036E-01 0.89891891E+03</pdfrwt>
<totfact> 0.11427067E+01</totfact>
</mgrwt>
</event>
<event>
 4    1  0.1033139E-008  0.6143405E+03  0.7818608E-02  0.9876093E-01
         -2   -1    0    0    0  501 -0.00000000000E+00  0.00000000000E+00  0.11097749277E+04  0.11097749277E+04  0.25500000000E-02 0.  1.
          2   -1    0    0  501    0  0.00000000000E+00 -0.00000000000E+00 -0.11342218257E+04  0.11342218257E+04  0.25500000000E-02 0. -1.
    8880022    1    1    2    0    0 -0.43252510753E+03 -0.40858857519E+03  0.92661695943E+03  0.11117703157E+04  0.15294330000E+03 0.  0.
    8880022    1    1    2    0    0  0.43252510753E+03  0.40858857519E+03 -0.95106385737E+03  0.11322264377E+04  0.15294330000E+03 0.  0.
<mgrwt>
<rscale>  0 0.61434050E+03</rscale>
<asrwt>0</asrwt>
<pdfrwt beam="1">  1        2 0.17449567E+00 0.61434050E+03</pdfrwt>
<pdfrwt beam="2">  1       -2 0.17073460E+00 0.61434050E+03</pdfrwt>
<totfact> 0.45652798E+00</totfact>
</mgrwt>
</event>
<event>
 4    1  0.1033139E-008  0.4393251E+03  0.7818608E-02  0.1030954E+00
         -2   -1    0    0    0  501 -0.00000000000E+00  0.00000000000E+00  0.19085855414E+03  0.19085855416E+03  0.25500000000E-02 0.  1.
          2   -1    0    0  501    0  0.00000000000E+00 -0.00000000000E+00 -0.27440379191E+04  0.27440379191E+04  0.25500000000E-02 0. -1.
    8880022    1    1    2    0    0 -0.25665947295E+03 -0.32208820672E+03 -0.11047868303E+03  0.45300341101E+03  0.15294330000E+03 0.  0.
    8880022    1    1    2    0    0  0.25665947295E+03  0.32208820672E+03 -0.24427006820E+04  0.24818930623E+04  0.15294330000E+03 0.  0.
<mgrwt>
<rscale>  0 0.43932511E+03</rscale>
<asrwt>0</asrwt>
<pdfrwt beam="1">  1        2 0.42215965E+00 0.43932511E+03</pdfrwt>
<pdfrwt beam="2">  1       -2 0.29362856E-01 0.43932511E+03</pdfrwt>
<totfact> 0.29781883E+01</totfact>
</mgrwt>
</event>
<event>
 4    1  0.1033139E-008  0.3193669E+03  0.7818608E-02  0.1075941E+00
         -2   -1    0    0    0  501 -0.00000000000E+00  0.00000000000E+00  0.35246152956E+03  0.35246152957E+03  0.25500000000E-02 0.  1.
          2   -1    0    0  501    0  0.00000000000E+00 -0.00000000000E+00 -0.21184436003E+04  0.21184436003E+04  0.25500000000E-02 0. -1.
    8880022    1    1    2    0    0  0.12608503733E+03  0.25041195246E+03  0.26498296820E+03  0.41498338403E+03  0.15294330000E+03 0.  0.
    8880022    1    1    2    0    0 -0.12608503733E+03 -0.25041195246E+03 -0.20309650389E+04  0.20559217458E+04  0.15294330000E+03 0. -1.
<mgrwt>
<rscale>  0 0.31936693E+03</rscale>
<asrwt>0</asrwt>
<pdfrwt beam="1">  1        2 0.32591439E+00 0.31936693E+03</pdfrwt>
<pdfrwt beam="2">  1       -2 0.54224852E-01 0.31936693E+03</pdfrwt>
<totfact> 0.20910070E+01</totfact>
</mgrwt>
</event>
<event>
 4    1  0.1033139E-008  0.4952317E+03  0.7818608E-02  0.1015031E+00
          2   -1    0    0  501    0  0.00000000000E+00  0.00000000000E+00  0.11636388290E+04  0.11636388290E+04  0.25500000000E-02 0. -1.
         -2   -1    0    0    0  501 -0.00000000000E+00 -0.00000000000E+00 -0.12836652483E+04  0.12836652483E+04  0.25500000000E-02 0.  1.
    8880022    1    1    2    0    0 -0.45965615117E+03 -0.10285414436E+03  0.10586818166E+04  0.11687863766E+04  0.15294330000E+03 0. -1.
    8880022    1    1    2    0    0  0.45965615117E+03  0.10285414436E+03 -0.11787082360E+04  0.12785177007E+04  0.15294330000E+03 0.  0.
<mgrwt>
<rscale>  0 0.49523167E+03</rscale>
<asrwt>0</asrwt>
<pdfrwt beam="1">  1        2 0.17902136E+00 0.49523167E+03</pdfrwt>
<pdfrwt beam="2">  1       -2 0.19748696E+00 0.49523167E+03</pdfrwt>
<totfact> 0.29671561E+00</totfact>
</mgrwt>
</event>
<event>
 4    1  0.1033139E-008  0.8633310E+03  0.7818608E-02  0.9472617E-01
          2   -1    0    0  501    0  0.00000000000E+00  0.00000000000E+00  0.77204429237E+03  0.77204429237E+03  0.25500000000E-02 0. -1.
         -2   -1    0    0    0  501 -0.00000000000E+00 -0.00000000000E+00 -0.18005408527E+04  0.18005408527E+04  0.25500000000E-02 0.  1.
    8880022    1    1    2    0    0 -0.81836775117E+03 -0.22852337560E+03 -0.13902706007E+04  0.16365184709E+04  0.15294330000E+03 0.  0.
    8880022    1    1    2    0    0  0.81836775117E+03  0.22852337560E+03  0.36177404032E+03  0.93606667424E+03  0.15294330000E+03 0.  0.
<mgrwt>
<rscale>  0 0.86333097E+03</rscale>
<asrwt>0</asrwt>
<pdfrwt beam="1">  1        2 0.11877605E+00 0.86333097E+03</pdfrwt>
<pdfrwt beam="2">  1       -2 0.27700628E+00 0.86333097E+03</pdfrwt>
<totfact> 0.16171630E+00</totfact>
</mgrwt>
</event>
<event>
 4    1  0.1033139E-008  0.8528851E+03  0.7818608E-02  0.9486473E-01
         -2   -1    0    0    0  501 -0.00000000000E+00  0.00000000000E+00  0.72145286334E+03  0.72145286334E+03  0.25500000000E-02 0.  1.
          2   -1    0    0  501    0  0.00000000000E+00 -0.00000000000E+00 -0.20815647156E+04  0.20815647156E+04  0.25500000000E-02 0. -1.
    8880022    1    1    2    0    0  0.41862110200E+03 -0.72717107582E+03  0.32632433066E+03  0.91318159330E+03  0.15294330000E+03 0.  0.
    8880022    1    1    2    0    0 -0.41862110200E+03  0.72717107582E+03 -0.16864361829E+04  0.18898359856E+04  0.15294330000E+03 0.  0.
<mgrwt>
<rscale>  0 0.85288514E+03</rscale>
<asrwt>0</asrwt>
<pdfrwt beam="1">  1        2 0.32024072E+00 0.85288514E+03</pdfrwt>
<pdfrwt beam="2">  1       -2 0.11099275E+00 0.85288514E+03</pdfrwt>
<totfact> 0.39504329E+00</totfact>
</mgrwt>
</event>
<event>
 4    1  0.1033139E-008  0.9318202E+03  0.7818608E-02  0.9386656E-01
         -2   -1    0    0    0  501 -0.00000000000E+00  0.00000000000E+00  0.15553591083E+04  0.15553591083E+04  0.25500000000E-02 0.  1.
          2   -1    0    0  501    0  0.00000000000E+00 -0.00000000000E+00 -0.10902437723E+04  0.10902437723E+04  0.25500000000E-02 0. -1.
    8880022    1    1    2    0    0  0.87246186345E+03 -0.28932245020E+03 -0.69146707978E+03  0.11603514807E+04  0.15294330000E+03 0.  0.
    8880022    1    1    2    0    0 -0.87246186345E+03  0.28932245020E+03  0.11565824158E+04  0.14852513999E+04  0.15294330000E+03 0.  0.
<mgrwt>
<rscale>  0 0.93182017E+03</rscale>
<asrwt>0</asrwt>
<pdfrwt beam="1">  1        2 0.16772981E+00 0.93182017E+03</pdfrwt>
<pdfrwt beam="2">  1       -2 0.23928602E+00 0.93182017E+03</pdfrwt>
<totfact> 0.16606748E+00</totfact>
</mgrwt>
</event>
<event>
 4    1  0.1033139E-008  0.4887024E+03  0.7818608E-02  0.1016771E+00
          2   -1    0    0  501    0  0.00000000000E+00  0.00000000000E+00  0.20858597587E+04  0.20858597587E+04  0.25500000000E-02 0. -1.
         -2   -1    0    0    0  501 -0.00000000000E+00 -0.00000000000E+00 -0.16348173242E+03  0.16348173244E+03  0.25500000000E-02 0.  1.
    8880022    1    1    2    0    0 -0.34958911599E+03  0.30532901458E+03  0.34557310346E+03  0.59854054166E+03  0.15294330000E+03 0.  0.
    8880022    1    1    2    0    0  0.34958911599E+03 -0.30532901458E+03  0.15768049228E+04  0.16508009495E+04  0.15294330000E+03 0.  0.
<mgrwt>
<rscale>  0 0.48870237E+03</rscale>
<asrwt>0</asrwt>
<pdfrwt beam="1">  1        2 0.32090147E+00 0.48870237E+03</pdfrwt>
<pdfrwt beam="2">  1       -2 0.25151038E-01 0.48870237E+03</pdfrwt>
<totfact> 0.90422309E+01</totfact>
</mgrwt>
</event>
<event>
 4    1  0.1033139E-008  0.5148153E+03  0.7818608E-02  0.1009983E+00
          2   -1    0    0  501    0  0.00000000000E+00  0.00000000000E+00  0.13947850586E+04  0.13947850586E+04  0.25500000000E-02 0. -1.
         -2   -1    0    0    0  501 -0.00000000000E+00 -0.00000000000E+00 -0.80731785884E+03  0.80731785884E+03  0.25500000000E-02 0.  1.
    8880022    1    1    2    0    0  0.49060692607E+03  0.30789481282E+02 -0.66906021350E+03  0.84420161714E+03  0.15294330000E+03 0.  0.
    8880022    1    1    2    0    0 -0.49060692607E+03 -0.30789481282E+02  0.12565274133E+04  0.13579013003E+04  0.15294330000E+03 0.  0.
<mgrwt>
<rscale>  0 0.51481531E+03</rscale>
<asrwt>0</asrwt>
<pdfrwt beam="1">  1        2 0.21458232E+00 0.51481531E+03</pdfrwt>
<pdfrwt beam="2">  1       -2 0.12420275E+00 0.51481531E+03</pdfrwt>
<totfact> 0.75575543E+00</totfact>
</mgrwt>
</event>
<event>
 4    1  0.1033139E-008  0.1537200E+04  0.7818608E-02  0.8860085E-01
         -2   -1    0    0    0  501 -0.00000000000E+00  0.00000000000E+00  0.21076095718E+04  0.21076095718E+04  0.25500000000E-02 0.  1.
          2   -1    0    0  501    0  0.00000000000E+00 -0.00000000000E+00 -0.11953777617E+04  0.11953777617E+04  0.25500000000E-02 0. -1.
    8880022    1    1    2    0    0  0.33916759322E+02  0.15291965921E+04  0.44629860475E+02  0.15378478603E+04  0.15294330000E+03 0.  0.
    8880022    1    1    2    0    0 -0.33916759322E+02 -0.15291965921E+04  0.86760194965E+03  0.17651394732E+04  0.15294330000E+03 0.  0.
<mgrwt>
<rscale>  0 0.15372001E+04</rscale>
<asrwt>0</asrwt>
<pdfrwt beam="1">  1        2 0.18390427E+00 0.15372001E+04</pdfrwt>
<pdfrwt beam="2">  1       -2 0.32424762E+00 0.15372001E+04</pdfrwt>
<totfact> 0.40453353E-01</totfact>
</mgrwt>
</event>
<event>
 4    1  0.1033139E-008  0.4293897E+03  0.7818608E-02  0.1034053E+00
          2   -1    0    0  501    0  0.00000000000E+00  0.00000000000E+00  0.76111786403E+03  0.76111786403E+03  0.25500000000E-02 0. -1.
         -2   -1    0    0    0  501 -0.00000000000E+00 -0.00000000000E+00 -0.11182044763E+04  0.11182044763E+04  0.25500000000E-02 0.  1.
    8880022    1    1    2    0    0  0.39792189171E+03  0.51401010729E+02  0.65313073632E+03  0.78163630133E+03  0.15294330000E+03 0. -1.
    8880022    1    1    2    0    0 -0.39792189171E+03 -0.51401010729E+02 -0.10102173486E+04  0.10976860390E+04  0.15294330000E+03 0.  0.
<mgrwt>
<rscale>  0 0.42938974E+03</rscale>
<asrwt>0</asrwt>
<pdfrwt beam="1">  1        2 0.11709506E+00 0.42938974E+03</pdfrwt>
<pdfrwt beam="2">  1       -2 0.17203146E+00 0.42938974E+03</pdfrwt>
<totfact> 0.81157967E+00</totfact>
</mgrwt>
</event>
<event>
 4    1  0.1033139E-008  0.6539902E+03  0.7818608E-02  0.9799321E-01
          2   -1    0    0  501    0  0.00000000000E+00  0.00000000000E+00  0.21371337089E+04  0.21371337089E+04  0.25500000000E-02 0. -1.
         -2   -1    0    0    0  501 -0.00000000000E+00 -0.00000000000E+00 -0.43756778173E+03  0.43756778174E+03  0.25500000000E-02 0.  1.
    8880022    1    1    2    0    0  0.42693471510E+03 -0.47120939512E+03  0.17980916311E+04  0.19133313126E+04  0.15294330000E+03 0. -1.
    8880022    1    1    2    0    0 -0.42693471510E+03  0.47120939512E+03 -0.98525703952E+02  0.66137017801E+03  0.15294330000E+03 0.  0.
<mgrwt>
<rscale>  0 0.65399021E+03</rscale>
<asrwt>0</asrwt>
<pdfrwt beam="1">  1        2 0.32878980E+00 0.65399021E+03</pdfrwt>
<pdfrwt beam="2">  1       -2 0.67318120E-01 0.65399021E+03</pdfrwt>
<totfact> 0.11960493E+01</totfact>
</mgrwt>
</event>
<event>
 4    1  0.1033139E-008  0.4359844E+03  0.7818608E-02  0.1031986E+00
          2   -1    0    0  501    0  0.00000000000E+00  0.00000000000E+00  0.12837837770E+04  0.12837837770E+04  0.25500000000E-02 0. -1.
         -2   -1    0    0    0  501 -0.00000000000E+00 -0.00000000000E+00 -0.48687335202E+03  0.48687335202E+03  0.25500000000E-02 0.  1.
    8880022    1    1    2    0    0 -0.27767456214E+03 -0.29931189330E+03 -0.34008481324E+03  0.55293770458E+03  0.15294330000E+03 0.  0.
    8880022    1    1    2    0    0  0.27767456214E+03  0.29931189330E+03  0.11369952383E+04  0.12177194245E+04  0.15294330000E+03 0. -1.
<mgrwt>
<rscale>  0 0.43598443E+03</rscale>
<asrwt>0</asrwt>
<pdfrwt beam="1">  1        2 0.19750520E+00 0.43598443E+03</pdfrwt>
<pdfrwt beam="2">  1       -2 0.74903592E-01 0.43598443E+03</pdfrwt>
<totfact> 0.28852555E+01</totfact>
</mgrwt>
</event>
<event>
 4    1  0.1033139E-008  0.1089185E+04  0.7818608E-02  0.9215798E-01
          2   -1    0    0  501    0  0.00000000000E+00  0.00000000000E+00  0.24646749163E+04  0.24646749163E+04  0.25500000000E-02 0. -1.
         -2   -1    0    0    0  501 -0.00000000000E+00 -0.00000000000E+00 -0.57935344774E+03  0.57935344774E+03  0.25500000000E-02 0.  1.
    8880022    1    1    2    0    0 -0.92833418899E+03  0.54875054789E+03  0.31660816192E+03  0.11342680069E+04  0.15294330000E+03 0.  0.
    8880022    1    1    2    0    0  0.92833418899E+03 -0.54875054789E+03  0.15687133066E+04  0.19097603571E+04  0.15294330000E+03 0.  0.
<mgrwt>
<rscale>  0 0.10891846E+04</rscale>
<asrwt>0</asrwt>
<pdfrwt beam="1">  1        2 0.37918075E+00 0.10891846E+04</pdfrwt>
<pdfrwt beam="2">  1       -2 0.89131301E-01 0.10891846E+04</pdfrwt>
<totfact> 0.39329719E+00</totfact>
</mgrwt>
</event>
<event>
 4    1  0.1033139E-008  0.1533448E+04  0.7818608E-02  0.8862510E-01
          2   -1    0    0  501    0  0.00000000000E+00  0.00000000000E+00  0.22112108865E+04  0.22112108865E+04  0.25500000000E-02 0. -1.
         -2   -1    0    0    0  501 -0.00000000000E+00 -0.00000000000E+00 -0.18748212874E+04  0.18748212874E+04  0.25500000000E-02 0.  1.
    8880022    1    1    2    0    0 -0.31577230439E+03 -0.14927691942E+04  0.15122204021E+04  0.21536652973E+04  0.15294330000E+03 0.  0.
    8880022    1    1    2    0    0  0.31577230439E+03  0.14927691942E+04 -0.11758308030E+04  0.19323668765E+04  0.15294330000E+03 0.  0.
<mgrwt>
<rscale>  0 0.15334483E+04</rscale>
<asrwt>0</asrwt>
<pdfrwt beam="1">  1        2 0.34018629E+00 0.15334483E+04</pdfrwt>
<pdfrwt beam="2">  1       -2 0.28843404E+00 0.15334483E+04</pdfrwt>
<totfact> 0.17773732E-01</totfact>
</mgrwt>
</event>
<event>
 4    1  0.1033139E-008  0.4315616E+03  0.7818608E-02  0.1033368E+00
         -2   -1    0    0    0  501 -0.00000000000E+00  0.00000000000E+00  0.71965147772E+03  0.71965147772E+03  0.25500000000E-02 0.  1.
          2   -1    0    0  501    0  0.00000000000E+00 -0.00000000000E+00 -0.10845149758E+04  0.10845149758E+04  0.25500000000E-02 0. -1.
    8880022    1    1    2    0    0 -0.39886174518E+03 -0.61343960831E+02  0.60469387218E+03  0.74289979497E+03  0.15294330000E+03 0.  0.
    8880022    1    1    2    0    0  0.39886174518E+03  0.61343960831E+02 -0.96955737024E+03  0.10612666585E+04  0.15294330000E+03 0.  0.
<mgrwt>
<rscale>  0 0.43156161E+03</rscale>
<asrwt>0</asrwt>
<pdfrwt beam="1">  1        2 0.16684846E+00 0.43156161E+03</pdfrwt>
<pdfrwt beam="2">  1       -2 0.11071561E+00 0.43156161E+03</pdfrwt>
<totfact> 0.15376747E+01</totfact>
</mgrwt>
</event>
<event>
 4    1  0.1033139E-008  0.9130648E+03  0.7818608E-02  0.9409396E-01
          2   -1    0    0  501    0  0.00000000000E+00  0.00000000000E+00  0.34378940714E+03  0.34378940715E+03  0.25500000000E-02 0. -1.
         -2   -1    0    0    0  501 -0.00000000000E+00 -0.00000000000E+00 -0.24538881656E+04  0.24538881656E+04  0.25500000000E-02 0.  1.
    8880022    1    1    2    0    0 -0.19046507461E+02  0.89996271921E+03 -0.12068396223E+04  0.15133238888E+04  0.15294330000E+03 0.  0.
    8880022    1    1    2    0    0  0.19046507461E+02 -0.89996271921E+03 -0.90325913610E+03  0.12843536839E+04  0.15294330000E+03 0.  0.
<mgrwt>
<rscale>  0 0.91306479E+03</rscale>
<asrwt>0</asrwt>
<pdfrwt beam="1">  1        2 0.52890680E-01 0.91306479E+03</pdfrwt>
<pdfrwt beam="2">  1       -2 0.37752125E+00 0.91306479E+03</pdfrwt>
<totfact> 0.10107194E+00</totfact>
</mgrwt>
</event>
<event>
 4    1  0.1033139E-008  0.8743962E+03  0.7818608E-02  0.9458166E-01
         -2   -1    0    0    0  501 -0.00000000000E+00  0.00000000000E+00  0.26297406051E+04  0.26297406051E+04  0.25500000000E-02 0.  1.
          2   -1    0    0  501    0  0.00000000000E+00 -0.00000000000E+00 -0.31977463782E+03  0.31977463783E+03  0.25500000000E-02 0. -1.
    8880022    1    1    2    0    0  0.63453264593E+03  0.58184650124E+03  0.15993714947E+04  0.18227884849E+04  0.15294330000E+03 0.  0.
    8880022    1    1    2    0    0 -0.63453264593E+03 -0.58184650124E+03  0.71059447266E+03  0.11267267581E+04  0.15294330000E+03 0.  0.
<mgrwt>
<rscale>  0 0.87439618E+03</rscale>
<asrwt>0</asrwt>
<pdfrwt beam="1">  1        2 0.49196099E-01 0.87439618E+03</pdfrwt>
<pdfrwt beam="2">  1       -2 0.40457547E+00 0.87439618E+03</pdfrwt>
<totfact> 0.73730751E-01</totfact>
</mgrwt>
</event>
<event>
 4    1  0.1033139E-008  0.9936533E+03  0.7818608E-02  0.9315533E-01
          2   -1    0    0  501    0  0.00000000000E+00  0.00000000000E+00  0.16140303268E+04  0.16140303268E+04  0.25500000000E-02 0. -1.
         -2   -1    0    0    0  501 -0.00000000000E+00 -0.00000000000E+00 -0.83818428338E+03  0.83818428339E+03  0.25500000000E-02 0.  1.
    8880022    1    1    2    0    0  0.98168070133E+03  0.16068932856E+02 -0.24938783301E+03  0.10244711583E+04  0.15294330000E+03 0.  0.
    8880022    1    1    2    0    0 -0.98168070133E+03 -0.16068932856E+02  0.10252338764E+04  0.14277434519E+04  0.15294330000E+03 0.  0.
<mgrwt>
<rscale>  0 0.99365329E+03</rscale>
<asrwt>0</asrwt>
<pdfrwt beam="1">  1        2 0.24831236E+00 0.99365329E+03</pdfrwt>
<pdfrwt beam="2">  1       -2 0.12895143E+00 0.99365329E+03</pdfrwt>
<totfact> 0.48312108E+00</totfact>
</mgrwt>
</event>
<event>
 4    1  0.1033139E-008  0.5902784E+03  0.7818608E-02  0.9925783E-01
         -2   -1    0    0    0  501 -0.00000000000E+00  0.00000000000E+00  0.50769167613E+03  0.50769167613E+03  0.25500000000E-02 0.  1.
          2   -1    0    0  501    0  0.00000000000E+00 -0.00000000000E+00 -0.11040363511E+04  0.11040363511E+04  0.25500000000E-02 0. -1.
    8880022    1    1    2    0    0  0.29618571608E+03  0.48714568895E+03  0.19753056277E+03  0.62245230895E+03  0.15294330000E+03 0.  0.
    8880022    1    1    2    0    0 -0.29618571608E+03 -0.48714568895E+03 -0.79387523775E+03  0.98927571829E+03  0.15294330000E+03 0.  0.
<mgrwt>
<rscale>  0 0.59027837E+03</rscale>
<asrwt>0</asrwt>
<pdfrwt beam="1">  1        2 0.16985175E+00 0.59027837E+03</pdfrwt>
<pdfrwt beam="2">  1       -2 0.78106412E-01 0.59027837E+03</pdfrwt>
<totfact> 0.32722676E+01</totfact>
</mgrwt>
</event>
<event>
 4    1  0.1033139E-008  0.1414674E+04  0.7818608E-02  0.8943265E-01
          2   -1    0    0  501    0  0.00000000000E+00  0.00000000000E+00  0.28501880849E+04  0.28501880849E+04  0.25500000000E-02 0. -1.
         -2   -1    0    0    0  501 -0.00000000000E+00 -0.00000000000E+00 -0.99387324352E+03  0.99387324352E+03  0.25500000000E-02 0.  1.
    8880022    1    1    2    0    0  0.13091065544E+04 -0.51395558159E+03 -0.11312672499E+03  0.14191897757E+04  0.15294330000E+03 0.  0.
    8880022    1    1    2    0    0 -0.13091065544E+04  0.51395558159E+03  0.19694415664E+04  0.24248715527E+04  0.15294330000E+03 0.  0.
<mgrwt>
<rscale>  0 0.14146738E+04</rscale>
<asrwt>0</asrwt>
<pdfrwt beam="1">  1        2 0.43849047E+00 0.14146738E+04</pdfrwt>
<pdfrwt beam="2">  1       -2 0.15290358E+00 0.14146738E+04</pdfrwt>
<totfact> 0.58642510E-01</totfact>
</mgrwt>
</event>
<event>
 4    1  0.1033139E-008  0.1670198E+04  0.7818608E-02  0.8778547E-01
          2   -1    0    0  501    0  0.00000000000E+00  0.00000000000E+00  0.20570413917E+04  0.20570413917E+04  0.25500000000E-02 0. -1.
         -2   -1    0    0    0  501 -0.00000000000E+00 -0.00000000000E+00 -0.17403440861E+04  0.17403440861E+04  0.25500000000E-02 0.  1.
    8880022    1    1    2    0    0 -0.14464451878E+04  0.82095351429E+03 -0.73380370580E+03  0.18242883231E+04  0.15294330000E+03 0.  0.
    8880022    1    1    2    0    0  0.14464451878E+04 -0.82095351429E+03  0.10505010114E+04  0.19730971547E+04  0.15294330000E+03 0.  0.
<mgrwt>
<rscale>  0 0.16701976E+04</rscale>
<asrwt>0</asrwt>
<pdfrwt beam="1">  1        2 0.31646791E+00 0.16701976E+04</pdfrwt>
<pdfrwt beam="2">  1       -2 0.26774524E+00 0.16701976E+04</pdfrwt>
<totfact> 0.28590343E-01</totfact>
</mgrwt>
</event>
<event>
 4    1  0.1033139E-008  0.8494753E+03  0.7818608E-02  0.9491041E-01
         -2   -1    0    0    0  501 -0.00000000000E+00  0.00000000000E+00  0.33382385066E+03  0.33382385067E+03  0.25500000000E-02 0.  1.
          2   -1    0    0  501    0  0.00000000000E+00 -0.00000000000E+00 -0.25942090320E+04  0.25942090320E+04  0.25500000000E-02 0. -1.
    8880022    1    1    2    0    0  0.81026239227E+03  0.20418484374E+03 -0.17280110063E+04  0.19255207830E+04  0.15294330000E+03 0.  0.
    8880022    1    1    2    0    0 -0.81026239227E+03 -0.20418484374E+03 -0.53237417499E+03  0.10025120997E+04  0.15294330000E+03 0.  0.
<mgrwt>
<rscale>  0 0.84947528E+03</rscale>
<asrwt>0</asrwt>
<pdfrwt beam="1">  1        2 0.39910907E+00 0.84947528E+03</pdfrwt>
<pdfrwt beam="2">  1       -2 0.51357517E-01 0.84947528E+03</pdfrwt>
<totfact> 0.11366790E+01</totfact>
</mgrwt>
</event>
<event>
 4    1  0.1033139E-008  0.6695886E+03  0.7818608E-02  0.9770701E-01
          2   -1    0    0  501    0  0.00000000000E+00  0.00000000000E+00  0.52578824439E+03  0.52578824439E+03  0.25500000000E-02 0. -1.
         -2   -1    0    0    0  501 -0.00000000000E+00 -0.00000000000E+00 -0.15544510839E+04  0.15544510839E+04  0.25500000000E-02 0.  1.
    8880022    1    1    2    0    0 -0.61842381917E+03  0.20617768947E+03 -0.12131764216E+04  0.13856933076E+04  0.15294330000E+03 0.  0.
    8880022    1    1    2    0    0  0.61842381917E+03 -0.20617768947E+03  0.18451358217E+03  0.69454602063E+03  0.15294330000E+03 0.  0.
<mgrwt>
<rscale>  0 0.66958861E+03</rscale>
<asrwt>0</asrwt>
<pdfrwt beam="1">  1        2 0.80890499E-01 0.66958861E+03</pdfrwt>
<pdfrwt beam="2">  1       -2 0.23914632E+00 0.66958861E+03</pdfrwt>
<totfact> 0.45210826E+00</totfact>
</mgrwt>
</event>
<event>
 4    1  0.1033139E-008  0.6841953E+03  0.7818608E-02  0.9744649E-01
         -2   -1    0    0    0  501 -0.00000000000E+00  0.00000000000E+00  0.10588162462E+04  0.10588162462E+04  0.25500000000E-02 0.  1.
          2   -1    0    0  501    0  0.00000000000E+00 -0.00000000000E+00 -0.24612770199E+04  0.24612770199E+04  0.25500000000E-02 0. -1.
    8880022    1    1    2    0    0  0.49362288677E+03  0.44840613077E+03  0.89291905391E+03  0.11249123087E+04  0.15294330000E+03 0.  0.
    8880022    1    1    2    0    0 -0.49362288677E+03 -0.44840613077E+03 -0.22953798277E+04  0.23951809574E+04  0.15294330000E+03 0.  0.
<mgrwt>
<rscale>  0 0.68419534E+03</rscale>
<asrwt>0</asrwt>
<pdfrwt beam="1">  1        2 0.37865800E+00 0.68419534E+03</pdfrwt>
<pdfrwt beam="2">  1       -2 0.16289481E+00 0.68419534E+03</pdfrwt>
<totfact> 0.93895954E-01</totfact>
</mgrwt>
</event>
<event>
 4    1  0.1033139E-008  0.1025137E+04  0.7818608E-02  0.9281397E-01
          2   -1    0    0  501    0  0.00000000000E+00  0.00000000000E+00  0.10319213663E+04  0.10319213663E+04  0.25500000000E-02 0. -1.
         -2   -1    0    0    0  501 -0.00000000000E+00 -0.00000000000E+00 -0.21026708515E+04  0.21026708515E+04  0.25500000000E-02 0.  1.
    8880022    1    1    2    0    0 -0.76049016791E+02  0.10108066485E+04 -0.16608474951E+04  0.19517478291E+04  0.15294330000E+03 0.  0.
    8880022    1    1    2    0    0  0.76049016791E+02 -0.10108066485E+04  0.59009800983E+03  0.11828443887E+04  0.15294330000E+03 0.  0.
<mgrwt>
<rscale>  0 0.10251367E+04</rscale>
<asrwt>0</asrwt>
<pdfrwt beam="1">  1        2 0.15875713E+00 0.10251367E+04</pdfrwt>
<pdfrwt beam="2">  1       -2 0.32348782E+00 0.10251367E+04</pdfrwt>
<totfact> 0.54952331E-01</totfact>
</mgrwt>
</event>
<event>
 4    1  0.1033139E-008  0.6332254E+03  0.7818608E-02  0.9838775E-01
          2   -1    0    0  501    0  0.00000000000E+00  0.00000000000E+00  0.91734465479E+03  0.91734465479E+03  0.25500000000E-02 0. -1.
         -2   -1    0    0    0  501 -0.00000000000E+00 -0.00000000000E+00 -0.11130649743E+04  0.11130649743E+04  0.25500000000E-02 0.  1.
    8880022    1    1    2    0    0 -0.15070276724E+03  0.59571081626E+03 -0.88900218482E+03  0.10914665539E+04  0.15294330000E+03 0.  0.
    8880022    1    1    2    0    0  0.15070276724E+03 -0.59571081626E+03  0.69328186531E+03  0.93894307519E+03  0.15294330000E+03 0.  0.
<mgrwt>
<rscale>  0 0.63322536E+03</rscale>
<asrwt>0</asrwt>
<pdfrwt beam="1">  1        2 0.14112995E+00 0.63322536E+03</pdfrwt>
<pdfrwt beam="2">  1       -2 0.17124077E+00 0.63322536E+03</pdfrwt>
<totfact> 0.61774734E+00</totfact>
</mgrwt>
</event>
<event>
 4    1  0.1033139E-008  0.1398580E+04  0.7818608E-02  0.8954847E-01
         -2   -1    0    0    0  501 -0.00000000000E+00  0.00000000000E+00  0.13974394269E+04  0.13974394269E+04  0.25500000000E-02 0.  1.
          2   -1    0    0  501    0  0.00000000000E+00 -0.00000000000E+00 -0.21772445117E+04  0.21772445117E+04  0.25500000000E-02 0. -1.
    8880022    1    1    2    0    0  0.11391325096E+04  0.79687523215E+03 -0.14580001593E+04  0.20203438142E+04  0.15294330000E+03 0.  0.
    8880022    1    1    2    0    0 -0.11391325096E+04 -0.79687523215E+03  0.67819507460E+03  0.15543401244E+04  0.15294330000E+03 0.  0.
<mgrwt>
<rscale>  0 0.13985795E+04</rscale>
<asrwt>0</asrwt>
<pdfrwt beam="1">  1        2 0.33496069E+00 0.13985795E+04</pdfrwt>
<pdfrwt beam="2">  1       -2 0.21499068E+00 0.13985795E+04</pdfrwt>
<totfact> 0.53681166E-01</totfact>
</mgrwt>
</event>
<event>
 4    1  0.1033139E-008  0.4817705E+03  0.7818608E-02  0.1018650E+00
         -2   -1    0    0    0  501 -0.00000000000E+00  0.00000000000E+00  0.28865006630E+03  0.28865006631E+03  0.25500000000E-02 0.  1.
          2   -1    0    0  501    0  0.00000000000E+00 -0.00000000000E+00 -0.40667120018E+04  0.40667120018E+04  0.25500000000E-02 0. -1.
    8880022    1    1    2    0    0  0.15692353378E+03 -0.42905260550E+03 -0.38395735842E+04  0.38696806193E+04  0.15294330000E+03 0.  0.
    8880022    1    1    2    0    0 -0.15692353378E+03  0.42905260550E+03  0.61511648754E+02  0.48568144878E+03  0.15294330000E+03 0.  1.
<mgrwt>
<rscale>  0 0.48177047E+03</rscale>
<asrwt>0</asrwt>
<pdfrwt beam="1">  1        2 0.62564796E+00 0.48177047E+03</pdfrwt>
<pdfrwt beam="2">  1       -2 0.44407705E-01 0.48177047E+03</pdfrwt>
<totfact> 0.17541470E+00</totfact>
</mgrwt>
</event>
<event>
 4    1  0.1033139E-008  0.9145159E+03  0.7818608E-02  0.9407616E-01
         -2   -1    0    0    0  501 -0.00000000000E+00  0.00000000000E+00  0.15328161064E+04  0.15328161064E+04  0.25500000000E-02 0.  1.
          2   -1    0    0  501    0  0.00000000000E+00 -0.00000000000E+00 -0.10559878391E+04  0.10559878391E+04  0.25500000000E-02 0. -1.
    8880022    1    1    2    0    0  0.73731533026E+03 -0.51895453630E+03  0.11382849794E+04  0.14601479563E+04  0.15294330000E+03 0.  0.
    8880022    1    1    2    0    0 -0.73731533026E+03  0.51895453630E+03 -0.66145671206E+03  0.11286559892E+04  0.15294330000E+03 0. -1.
<mgrwt>
<rscale>  0 0.91451592E+03</rscale>
<asrwt>0</asrwt>
<pdfrwt beam="1">  1        2 0.16245967E+00 0.91451592E+03</pdfrwt>
<pdfrwt beam="2">  1       -2 0.23581786E+00 0.91451592E+03</pdfrwt>
<totfact> 0.18364118E+00</totfact>
</mgrwt>
</event>
<event>
 4    1  0.1033139E-008  0.5462485E+03  0.7818608E-02  0.1002366E+00
         -2   -1    0    0    0  501 -0.00000000000E+00  0.00000000000E+00  0.21549692612E+03  0.21549692613E+03  0.25500000000E-02 0.  1.
          2   -1    0    0  501    0  0.00000000000E+00 -0.00000000000E+00 -0.22462377286E+04  0.22462377286E+04  0.25500000000E-02 0. -1.
    8880022    1    1    2    0    0  0.12065728884E+02 -0.52426157345E+03 -0.25305693885E+03  0.60201764636E+03  0.15294330000E+03 0.  0.
    8880022    1    1    2    0    0 -0.12065728884E+02  0.52426157345E+03 -0.17776838636E+04  0.18597170084E+04  0.15294330000E+03 0.  0.
<mgrwt>
<rscale>  0 0.54624851E+03</rscale>
<asrwt>0</asrwt>
<pdfrwt beam="1">  1        2 0.34557502E+00 0.54624851E+03</pdfrwt>
<pdfrwt beam="2">  1       -2 0.33153375E-01 0.54624851E+03</pdfrwt>
<totfact> 0.44130308E+01</totfact>
</mgrwt>
</event>
<event>
 4    1  0.1033139E-008  0.9775055E+03  0.7818608E-02  0.9333566E-01
         -2   -1    0    0    0  501 -0.00000000000E+00  0.00000000000E+00  0.65186196752E+03  0.65186196752E+03  0.25500000000E-02 0.  1.
          2   -1    0    0  501    0  0.00000000000E+00 -0.00000000000E+00 -0.22396139654E+04  0.22396139654E+04  0.25500000000E-02 0. -1.
    8880022    1    1    2    0    0 -0.81038362686E+03 -0.52478914460E+03 -0.16436700493E+04  0.19123723887E+04  0.15294330000E+03 0.  0.
    8880022    1    1    2    0    0  0.81038362686E+03  0.52478914460E+03  0.55918051359E+02  0.97910354430E+03  0.15294330000E+03 0.  0.
<mgrwt>
<rscale>  0 0.97750546E+03</rscale>
<asrwt>0</asrwt>
<pdfrwt beam="1">  1        2 0.34455599E+00 0.97750546E+03</pdfrwt>
<pdfrwt beam="2">  1       -2 0.10028646E+00 0.97750546E+03</pdfrwt>
<totfact> 0.40521931E+00</totfact>
</mgrwt>
</event>
<event>
 4    1  0.1033139E-008  0.8345389E+03  0.7818608E-02  0.9511326E-01
          2   -1    0    0  501    0  0.00000000000E+00  0.00000000000E+00  0.17879490924E+04  0.17879490924E+04  0.25500000000E-02 0. -1.
         -2   -1    0    0    0  501 -0.00000000000E+00 -0.00000000000E+00 -0.53029923736E+03  0.53029923736E+03  0.25500000000E-02 0.  1.
    8880022    1    1    2    0    0  0.73099536061E+03 -0.37243707282E+03  0.12260352109E+04  0.14831107787E+04  0.15294330000E+03 0.  0.
    8880022    1    1    2    0    0 -0.73099536061E+03  0.37243707282E+03  0.31614644112E+02  0.83513755106E+03  0.15294330000E+03 0.  0.
<mgrwt>
<rscale>  0 0.83453894E+03</rscale>
<asrwt>0</asrwt>
<pdfrwt beam="1">  1        2 0.27506910E+00 0.83453894E+03</pdfrwt>
<pdfrwt beam="2">  1       -2 0.81584496E-01 0.83453894E+03</pdfrwt>
<totfact> 0.11805344E+01</totfact>
</mgrwt>
</event>
<event>
 4    1  0.1033139E-008  0.4581661E+03  0.7818608E-02  0.1025314E+00
          2   -1    0    0  501    0  0.00000000000E+00  0.00000000000E+00  0.18343005030E+04  0.18343005030E+04  0.25500000000E-02 0. -1.
         -2   -1    0    0    0  501 -0.00000000000E+00 -0.00000000000E+00 -0.98564964105E+03  0.98564964105E+03  0.25500000000E-02 0.  1.
    8880022    1    1    2    0    0  0.39574310837E+03 -0.17295065688E+03  0.17499228333E+04  0.18089074363E+04  0.15294330000E+03 0. -1.
    8880022    1    1    2    0    0 -0.39574310837E+03  0.17295065688E+03 -0.90127197136E+03  0.10110427078E+04  0.15294330000E+03 0.  0.
<mgrwt>
<rscale>  0 0.45816612E+03</rscale>
<asrwt>0</asrwt>
<pdfrwt beam="1">  1        2 0.28220008E+00 0.45816612E+03</pdfrwt>
<pdfrwt beam="2">  1       -2 0.15163841E+00 0.45816612E+03</pdfrwt>
<totfact> 0.26555275E+00</totfact>
</mgrwt>
</event>
<event>
 4    1  0.1033139E-008  0.1486649E+04  0.7818608E-02  0.8893380E-01
          2   -1    0    0  501    0  0.00000000000E+00  0.00000000000E+00  0.35637519501E+04  0.35637519501E+04  0.25500000000E-02 0. -1.
         -2   -1    0    0    0  501 -0.00000000000E+00 -0.00000000000E+00 -0.83456500997E+03  0.83456500998E+03  0.25500000000E-02 0.  1.
    8880022    1    1    2    0    0 -0.50919126484E+03  0.13883291549E+04  0.24792362632E+04  0.28908022569E+04  0.15294330000E+03 0.  0.
    8880022    1    1    2    0    0  0.50919126484E+03 -0.13883291549E+04  0.24995067698E+03  0.15075147033E+04  0.15294330000E+03 0.  0.
<mgrwt>
<rscale>  0 0.14866490E+04</rscale>
<asrwt>0</asrwt>
<pdfrwt beam="1">  1        2 0.54826953E+00 0.14866490E+04</pdfrwt>
<pdfrwt beam="2">  1       -2 0.12839462E+00 0.14866490E+04</pdfrwt>
<totfact> 0.31500050E-01</totfact>
</mgrwt>
</event>
<event>
 4    1  0.1033139E-008  0.6862044E+03  0.7818608E-02  0.9741120E-01
          2   -1    0    0  501    0  0.00000000000E+00  0.00000000000E+00  0.26623401931E+04  0.26623401931E+04  0.25500000000E-02 0. -1.
         -2   -1    0    0    0  501 -0.00000000000E+00 -0.00000000000E+00 -0.74115528925E+03  0.74115528925E+03  0.25500000000E-02 0.  1.
    8880022    1    1    2    0    0 -0.40090491238E+03 -0.53549988017E+03  0.24454733337E+04  0.25399244770E+04  0.15294330000E+03 0.  0.
    8880022    1    1    2    0    0  0.40090491238E+03  0.53549988017E+03 -0.52428842985E+03  0.86357100526E+03  0.15294330000E+03 0.  0.
<mgrwt>
<rscale>  0 0.68620443E+03</rscale>
<asrwt>0</asrwt>
<pdfrwt beam="1">  1        2 0.40959079E+00 0.68620443E+03</pdfrwt>
<pdfrwt beam="2">  1       -2 0.11402389E+00 0.68620443E+03</pdfrwt>
<totfact> 0.18021302E+00</totfact>
</mgrwt>
</event>
<event>
 4    1  0.1033139E-008  0.7810944E+03  0.7818608E-02  0.9587793E-01
         -2   -1    0    0    0  501 -0.00000000000E+00  0.00000000000E+00  0.57221418769E+03  0.57221418770E+03  0.25500000000E-02 0.  1.
          2   -1    0    0  501    0  0.00000000000E+00 -0.00000000000E+00 -0.34921933972E+04  0.34921933972E+04  0.25500000000E-02 0. -1.
    8880022    1    1    2    0    0 -0.36958609457E+03 -0.67091205311E+03  0.23380509841E+03  0.81533633635E+03  0.15294330000E+03 0.  0.
    8880022    1    1    2    0    0  0.36958609457E+03  0.67091205311E+03 -0.31537843079E+04  0.32490712486E+04  0.15294330000E+03 0.  0.
<mgrwt>
<rscale>  0 0.78109444E+03</rscale>
<asrwt>0</asrwt>
<pdfrwt beam="1">  1        2 0.53726051E+00 0.78109444E+03</pdfrwt>
<pdfrwt beam="2">  1       -2 0.88032954E-01 0.78109444E+03</pdfrwt>
<totfact> 0.98902945E-01</totfact>
</mgrwt>
</event>
<event>
 4    1  0.1033139E-008  0.9075870E+03  0.7818608E-02  0.9416147E-01
         -2   -1    0    0    0  501 -0.00000000000E+00  0.00000000000E+00  0.90311389347E+03  0.90311389347E+03  0.25500000000E-02 0.  1.
          2   -1    0    0  501    0  0.00000000000E+00 -0.00000000000E+00 -0.21714771603E+04  0.21714771603E+04  0.25500000000E-02 0. -1.
    8880022    1    1    2    0    0 -0.87733955848E+03 -0.17492209687E+03 -0.18049223119E+04  0.20202620241E+04  0.15294330000E+03 0.  0.
    8880022    1    1    2    0    0  0.87733955848E+03  0.17492209687E+03  0.53655904513E+03  0.10543290297E+04  0.15294330000E+03 0.  0.
<mgrwt>
<rscale>  0 0.90758696E+03</rscale>
<asrwt>0</asrwt>
<pdfrwt beam="1">  1        2 0.33407341E+00 0.90758696E+03</pdfrwt>
<pdfrwt beam="2">  1       -2 0.13894060E+00 0.90758696E+03</pdfrwt>
<totfact> 0.19905911E+00</totfact>
</mgrwt>
</event>
<event>
 4    1  0.1033139E-008  0.8300600E+03  0.7818608E-02  0.9517498E-01
         -2   -1    0    0    0  501 -0.00000000000E+00  0.00000000000E+00  0.78797443440E+03  0.78797443441E+03  0.25500000000E-02 0.  1.
          2   -1    0    0  501    0  0.00000000000E+00 -0.00000000000E+00 -0.98124487098E+03  0.98124487098E+03  0.25500000000E-02 0. -1.
    8880022    1    1    2    0    0 -0.38465614959E+03  0.71947725633E+03 -0.38854827863E+03  0.91649838714E+03  0.15294330000E+03 0.  0.
    8880022    1    1    2    0    0  0.38465614959E+03 -0.71947725633E+03  0.19527784206E+03  0.85272091824E+03  0.15294330000E+03 0.  0.
<mgrwt>
<rscale>  0 0.83005995E+03</rscale>
<asrwt>0</asrwt>
<pdfrwt beam="1">  1        2 0.15096075E+00 0.83005995E+03</pdfrwt>
<pdfrwt beam="2">  1       -2 0.12122684E+00 0.83005995E+03</pdfrwt>
<totfact> 0.13518679E+01</totfact>
</mgrwt>
</event>
<event>
 4    1  0.1033139E-008  0.3279509E+03  0.7818608E-02  0.1072047E+00
          2   -1    0    0  501    0  0.00000000000E+00  0.00000000000E+00  0.34863047457E+03  0.34863047458E+03  0.25500000000E-02 0. -1.
         -2   -1    0    0    0  501 -0.00000000000E+00 -0.00000000000E+00 -0.13261715636E+04  0.13261715636E+04  0.25500000000E-02 0.  1.
    8880022    1    1    2    0    0  0.25652103100E+03 -0.13548849094E+03  0.24479320889E+03  0.40923775321E+03  0.15294330000E+03 0.  0.
    8880022    1    1    2    0    0 -0.25652103100E+03  0.13548849094E+03 -0.12223342979E+04  0.12655642850E+04  0.15294330000E+03 0.  0.
<mgrwt>
<rscale>  0 0.32795095E+03</rscale>
<asrwt>0</asrwt>
<pdfrwt beam="1">  1        2 0.53635458E-01 0.32795095E+03</pdfrwt>
<pdfrwt beam="2">  1       -2 0.20402639E+00 0.32795095E+03</pdfrwt>
<totfact> 0.12573547E+01</totfact>
</mgrwt>
</event>
<event>
 4    1  0.1033139E-008  0.5929788E+03  0.7818608E-02  0.9920081E-01
          2   -1    0    0  501    0  0.00000000000E+00  0.00000000000E+00  0.16082445692E+04  0.16082445692E+04  0.25500000000E-02 0. -1.
         -2   -1    0    0    0  501 -0.00000000000E+00 -0.00000000000E+00 -0.61948265213E+03  0.61948265213E+03  0.25500000000E-02 0.  1.
    8880022    1    1    2    0    0 -0.32602261848E+03 -0.47110667066E+03 -0.40161347866E+03  0.71618243636E+03  0.15294330000E+03 0.  0.
    8880022    1    1    2    0    0  0.32602261848E+03  0.47110667066E+03  0.13903753957E+04  0.15115447849E+04  0.15294330000E+03 0.  0.
<mgrwt>
<rscale>  0 0.59297883E+03</rscale>
<asrwt>0</asrwt>
<pdfrwt beam="1">  1        2 0.24742224E+00 0.59297883E+03</pdfrwt>
<pdfrwt beam="2">  1       -2 0.95305024E-01 0.59297883E+03</pdfrwt>
<totfact> 0.10739074E+01</totfact>
</mgrwt>
</event>
<event>
 4    1  0.1033139E-008  0.7422228E+03  0.7818608E-02  0.9647631E-01
          2   -1    0    0  501    0  0.00000000000E+00  0.00000000000E+00  0.20075633077E+04  0.20075633077E+04  0.25500000000E-02 0. -1.
         -2   -1    0    0    0  501 -0.00000000000E+00 -0.00000000000E+00 -0.78930985367E+03  0.78930985368E+03  0.25500000000E-02 0.  1.
    8880022    1    1    2    0    0  0.46512146381E+03  0.55782165124E+03  0.17386119951E+04  0.18904143178E+04  0.15294330000E+03 0.  0.
    8880022    1    1    2    0    0 -0.46512146381E+03 -0.55782165124E+03 -0.52035854107E+03  0.90645884350E+03  0.15294330000E+03 0.  0.
<mgrwt>
<rscale>  0 0.74222276E+03</rscale>
<asrwt>0</asrwt>
<pdfrwt beam="1">  1        2 0.30885589E+00 0.74222276E+03</pdfrwt>
<pdfrwt beam="2">  1       -2 0.12143229E+00 0.74222276E+03</pdfrwt>
<totfact> 0.35410594E+00</totfact>
</mgrwt>
</event>
<event>
 4    1  0.1033139E-008  0.5469390E+03  0.7818608E-02  0.1002205E+00
         -2   -1    0    0    0  501 -0.00000000000E+00  0.00000000000E+00  0.55811128530E+03  0.55811128530E+03  0.25500000000E-02 0.  1.
          2   -1    0    0  501    0  0.00000000000E+00 -0.00000000000E+00 -0.78703228926E+03  0.78703228927E+03  0.25500000000E-02 0. -1.
    8880022    1    1    2    0    0 -0.52453371622E+03  0.24799457946E+02 -0.49431342823E+03  0.73721642068E+03  0.15294330000E+03 0.  0.
    8880022    1    1    2    0    0  0.52453371622E+03 -0.24799457946E+02  0.26539242427E+03  0.60792715389E+03  0.15294330000E+03 0.  0.
<mgrwt>
<rscale>  0 0.54693901E+03</rscale>
<asrwt>0</asrwt>
<pdfrwt beam="1">  1        2 0.12108189E+00 0.54693901E+03</pdfrwt>
<pdfrwt beam="2">  1       -2 0.85863275E-01 0.54693901E+03</pdfrwt>
<totfact> 0.42840176E+01</totfact>
</mgrwt>
</event>
<event>
 4    1  0.1033139E-008  0.1123103E+04  0.7818608E-02  0.9182962E-01
         -2   -1    0    0    0  501 -0.00000000000E+00  0.00000000000E+00  0.19447455308E+04  0.19447455308E+04  0.25500000000E-02 0.  1.
          2   -1    0    0  501    0  0.00000000000E+00 -0.00000000000E+00 -0.10556740550E+04  0.10556740550E+04  0.25500000000E-02 0. -1.
    8880022    1    1    2    0    0 -0.10857982902E+04  0.24292170144E+03 -0.48705287773E+03  0.12241654459E+04  0.15294330000E+03 0.  0.
    8880022    1    1    2    0    0  0.10857982902E+04 -0.24292170144E+03  0.13761243536E+04  0.17762541399E+04  0.15294330000E+03 0.  0.
<mgrwt>
<rscale>  0 0.11231031E+04</rscale>
<asrwt>0</asrwt>
<pdfrwt beam="1">  1        2 0.16241139E+00 0.11231031E+04</pdfrwt>
<pdfrwt beam="2">  1       -2 0.29919162E+00 0.11231031E+04</pdfrwt>
<totfact> 0.73665137E-01</totfact>
</mgrwt>
</event>
<event>
 4    1  0.1033139E-008  0.8154197E+03  0.7818608E-02  0.9537962E-01
          2   -1    0    0  501    0  0.00000000000E+00  0.00000000000E+00  0.15882214470E+04  0.15882214470E+04  0.25500000000E-02 0. -1.
         -2   -1    0    0    0  501 -0.00000000000E+00 -0.00000000000E+00 -0.77505136518E+03  0.77505136519E+03  0.25500000000E-02 0.  1.
    8880022    1    1    2    0    0 -0.79070909233E+03  0.12765888756E+03 -0.39470204715E+03  0.90592440044E+03  0.15294330000E+03 0.  0.
    8880022    1    1    2    0    0  0.79070909233E+03 -0.12765888756E+03  0.12078721290E+04  0.14573484118E+04  0.15294330000E+03 0.  0.
<mgrwt>
<rscale>  0 0.81541972E+03</rscale>
<asrwt>0</asrwt>
<pdfrwt beam="1">  1        2 0.24434176E+00 0.81541972E+03</pdfrwt>
<pdfrwt beam="2">  1       -2 0.11923867E+00 0.81541972E+03</pdfrwt>
<totfact> 0.62142457E+00</totfact>
</mgrwt>
</event>
<event>
 4    1  0.1033139E-008  0.1210968E+04  0.7818608E-02  0.9103310E-01
         -2   -1    0    0    0  501 -0.00000000000E+00  0.00000000000E+00  0.91561877735E+03  0.91561877735E+03  0.25500000000E-02 0.  1.
          2   -1    0    0  501    0  0.00000000000E+00 -0.00000000000E+00 -0.27702926379E+04  0.27702926379E+04  0.25500000000E-02 0. -1.
    8880022    1    1    2    0    0 -0.30380343112E+03  0.11622197666E+04  0.26969208437E+03  0.12406356370E+04  0.15294330000E+03 0.  0.
    8880022    1    1    2    0    0  0.30380343112E+03 -0.11622197666E+04 -0.21243659449E+04  0.24452757782E+04  0.15294330000E+03 0.  0.
<mgrwt>
<rscale>  0 0.12109678E+04</rscale>
<asrwt>0</asrwt>
<pdfrwt beam="1">  1        2 0.42619886E+00 0.12109678E+04</pdfrwt>
<pdfrwt beam="2">  1       -2 0.14086443E+00 0.12109678E+04</pdfrwt>
<totfact> 0.83530332E-01</totfact>
</mgrwt>
</event>
<event>
 4    1  0.1033139E-008  0.6186705E+03  0.7818608E-02  0.9867410E-01
         -2   -1    0    0    0  501 -0.00000000000E+00  0.00000000000E+00  0.15899525328E+04  0.15899525328E+04  0.25500000000E-02 0.  1.
          2   -1    0    0  501    0  0.00000000000E+00 -0.00000000000E+00 -0.52746703149E+03  0.52746703150E+03  0.25500000000E-02 0. -1.
    8880022    1    1    2    0    0  0.11151838760E+03 -0.58900353235E+03 -0.24934063743E+03  0.66702617519E+03  0.15294330000E+03 0.  0.
    8880022    1    1    2    0    0 -0.11151838760E+03  0.58900353235E+03  0.13118261388E+04  0.14503933891E+04  0.15294330000E+03 0.  0.
<mgrwt>
<rscale>  0 0.61867048E+03</rscale>
<asrwt>0</asrwt>
<pdfrwt beam="1">  1        2 0.81148775E-01 0.61867048E+03</pdfrwt>
<pdfrwt beam="2">  1       -2 0.24460808E+00 0.61867048E+03</pdfrwt>
<totfact> 0.42062581E+00</totfact>
</mgrwt>
</event>
<event>
 4    1  0.1033139E-008  0.7048220E+03  0.7818608E-02  0.9709021E-01
          2   -1    0    0  501    0  0.00000000000E+00  0.00000000000E+00  0.18613660549E+04  0.18613660549E+04  0.25500000000E-02 0. -1.
         -2   -1    0    0    0  501 -0.00000000000E+00 -0.00000000000E+00 -0.39188114792E+03  0.39188114793E+03  0.25500000000E-02 0.  1.
    8880022    1    1    2    0    0 -0.61246953373E+03  0.31347000709E+03  0.98464539512E+02  0.71166656072E+03  0.15294330000E+03 0.  0.
    8880022    1    1    2    0    0  0.61246953373E+03 -0.31347000709E+03  0.13710203675E+04  0.15415806421E+04  0.15294330000E+03 0.  0.
<mgrwt>
<rscale>  0 0.70482198E+03</rscale>
<asrwt>0</asrwt>
<pdfrwt beam="1">  1        2 0.28636401E+00 0.70482198E+03</pdfrwt>
<pdfrwt beam="2">  1       -2 0.60289408E-01 0.70482198E+03</pdfrwt>
<totfact> 0.21215801E+01</totfact>
</mgrwt>
</event>
<event>
 4    1  0.1033139E-008  0.1152063E+04  0.7818608E-02  0.9155882E-01
         -2   -1    0    0    0  501 -0.00000000000E+00  0.00000000000E+00  0.13589180720E+04  0.13589180720E+04  0.25500000000E-02 0.  1.
          2   -1    0    0  501    0  0.00000000000E+00 -0.00000000000E+00 -0.20089342510E+04  0.20089342510E+04  0.25500000000E-02 0. -1.
    8880022    1    1    2    0    0  0.10685787740E+04 -0.40248879253E+03  0.88205567759E+03  0.14509554424E+04  0.15294330000E+03 0.  0.
    8880022    1    1    2    0    0 -0.10685787740E+04  0.40248879253E+03 -0.15320718565E+04  0.19168968806E+04  0.15294330000E+03 0.  0.
<mgrwt>
<rscale>  0 0.11520631E+04</rscale>
<asrwt>0</asrwt>
<pdfrwt beam="1">  1        2 0.30906681E+00 0.11520631E+04</pdfrwt>
<pdfrwt beam="2">  1       -2 0.20906432E+00 0.11520631E+04</pdfrwt>
<totfact> 0.74976879E-01</totfact>
</mgrwt>
</event>
<event>
 4    1  0.1033139E-008  0.9162892E+03  0.7818608E-02  0.9405445E-01
         -2   -1    0    0    0  501 -0.00000000000E+00  0.00000000000E+00  0.20153946542E+04  0.20153946542E+04  0.25500000000E-02 0.  1.
          2   -1    0    0  501    0  0.00000000000E+00 -0.00000000000E+00 -0.10953555822E+04  0.10953555822E+04  0.25500000000E-02 0. -1.
    8880022    1    1    2    0    0  0.61417421764E+03 -0.66255888942E+03  0.16844063898E+04  0.19175011840E+04  0.15294330000E+03 0.  0.
    8880022    1    1    2    0    0 -0.61417421764E+03  0.66255888942E+03 -0.76436731779E+03  0.11932490524E+04  0.15294330000E+03 0.  0.
<mgrwt>
<rscale>  0 0.91628920E+03</rscale>
<asrwt>0</asrwt>
<pdfrwt beam="1">  1        2 0.16851625E+00 0.91628920E+03</pdfrwt>
<pdfrwt beam="2">  1       -2 0.31006071E+00 0.91628920E+03</pdfrwt>
<totfact> 0.61600374E-01</totfact>
</mgrwt>
</event>
<event>
 4    1  0.1033139E-008  0.9255616E+03  0.7818608E-02  0.9394180E-01
         -2   -1    0    0    0  501 -0.00000000000E+00  0.00000000000E+00  0.85058427239E+03  0.85058427240E+03  0.25500000000E-02 0.  1.
          2   -1    0    0  501    0  0.00000000000E+00 -0.00000000000E+00 -0.12918876308E+04  0.12918876308E+04  0.25500000000E-02 0. -1.
    8880022    1    1    2    0    0 -0.43708837711E+03  0.80139032597E+03 -0.72356904403E+03  0.11748261652E+04  0.15294330000E+03 0.  0.
    8880022    1    1    2    0    0  0.43708837711E+03 -0.80139032597E+03  0.28226568562E+03  0.96764573800E+03  0.15294330000E+03 0.  0.
<mgrwt>
<rscale>  0 0.92556164E+03</rscale>
<asrwt>0</asrwt>
<pdfrwt beam="1">  1        2 0.19875194E+00 0.92556164E+03</pdfrwt>
<pdfrwt beam="2">  1       -2 0.13085912E+00 0.92556164E+03</pdfrwt>
<totfact> 0.71390690E+00</totfact>
</mgrwt>
</event>
<event>
 4    1  0.1033139E-008  0.9673504E+03  0.7818608E-02  0.9345097E-01
          2   -1    0    0  501    0  0.00000000000E+00  0.00000000000E+00  0.37613303203E+04  0.37613303203E+04  0.25500000000E-02 0. -1.
         -2   -1    0    0    0  501 -0.00000000000E+00 -0.00000000000E+00 -0.31364250808E+03  0.31364250809E+03  0.25500000000E-02 0.  1.
    8880022    1    1    2    0    0 -0.36518172184E+02 -0.95448496512E+03  0.26503614346E+04  0.28213795407E+04  0.15294330000E+03 0.  0.
    8880022    1    1    2    0    0  0.36518172184E+02  0.95448496512E+03  0.79732637759E+03  0.12535932877E+04  0.15294330000E+03 0.  0.
<mgrwt>
<rscale>  0 0.96735039E+03</rscale>
<asrwt>0</asrwt>
<pdfrwt beam="1">  1        2 0.57866619E+00 0.96735039E+03</pdfrwt>
<pdfrwt beam="2">  1       -2 0.48252695E-01 0.96735039E+03</pdfrwt>
<totfact> 0.22481122E+00</totfact>
</mgrwt>
</event>
<event>
 4    1  0.1033139E-008  0.8775357E+03  0.7818608E-02  0.9454107E-01
         -2   -1    0    0    0  501 -0.00000000000E+00  0.00000000000E+00  0.41606754649E+03  0.41606754650E+03  0.25500000000E-02 0.  1.
          2   -1    0    0  501    0  0.00000000000E+00 -0.00000000000E+00 -0.33226739122E+04  0.33226739122E+04  0.25500000000E-02 0. -1.
    8880022    1    1    2    0    0 -0.56920301670E+03 -0.65014239800E+03 -0.26974824590E+04  0.28366318904E+04  0.15294330000E+03 0.  0.
    8880022    1    1    2    0    0  0.56920301670E+03  0.65014239800E+03 -0.20912390671E+03  0.90210956832E+03  0.15294330000E+03 0.  0.
<mgrwt>
<rscale>  0 0.87753568E+03</rscale>
<asrwt>0</asrwt>
<pdfrwt beam="1">  1        2 0.51118058E+00 0.87753568E+03</pdfrwt>
<pdfrwt beam="2">  1       -2 0.64010394E-01 0.87753568E+03</pdfrwt>
<totfact> 0.25546845E+00</totfact>
</mgrwt>
</event>
<event>
 4    1  0.1033139E-008  0.7523282E+03  0.7818608E-02  0.9631705E-01
         -2   -1    0    0    0  501 -0.00000000000E+00  0.00000000000E+00  0.17125494620E+04  0.17125494620E+04  0.25500000000E-02 0.  1.
          2   -1    0    0  501    0  0.00000000000E+00 -0.00000000000E+00 -0.75255968463E+03  0.75255968464E+03  0.25500000000E-02 0. -1.
    8880022    1    1    2    0    0  0.12532976012E+03  0.72587777739E+03  0.14030392471E+04  0.15920166074E+04  0.15294330000E+03 0.  0.
    8880022    1    1    2    0    0 -0.12532976012E+03 -0.72587777739E+03 -0.44304946968E+03  0.87309253924E+03  0.15294330000E+03 0.  0.
<mgrwt>
<rscale>  0 0.75232822E+03</rscale>
<asrwt>0</asrwt>
<pdfrwt beam="1">  1        2 0.11577841E+00 0.75232822E+03</pdfrwt>
<pdfrwt beam="2">  1       -2 0.26346915E+00 0.75232822E+03</pdfrwt>
<totfact> 0.20511885E+00</totfact>
</mgrwt>
</event>
<event>
 4    1  0.1033139E-008  0.3904295E+03  0.7818608E-02  0.1047145E+00
         -2   -1    0    0    0  501 -0.00000000000E+00  0.00000000000E+00  0.37680191906E+03  0.37680191907E+03  0.25500000000E-02 0.  1.
          2   -1    0    0  501    0  0.00000000000E+00 -0.00000000000E+00 -0.53826929058E+03  0.53826929058E+03  0.25500000000E-02 0. -1.
    8880022    1    1    2    0    0  0.33564532210E+03  0.12800682047E+03 -0.30877959032E+03  0.49777506642E+03  0.15294330000E+03 0.  0.
    8880022    1    1    2    0    0 -0.33564532210E+03 -0.12800682047E+03  0.14731221880E+03  0.41729614323E+03  0.15294330000E+03 0.  0.
<mgrwt>
<rscale>  0 0.39042948E+03</rscale>
<asrwt>0</asrwt>
<pdfrwt beam="1">  1        2 0.82810660E-01 0.39042948E+03</pdfrwt>
<pdfrwt beam="2">  1       -2 0.57969526E-01 0.39042948E+03</pdfrwt>
<totfact> 0.16237434E+02</totfact>
</mgrwt>
</event>
<event>
 4    1  0.1033139E-008  0.1118761E+04  0.7818608E-02  0.9187096E-01
         -2   -1    0    0    0  501 -0.00000000000E+00  0.00000000000E+00  0.13211395349E+04  0.13211395349E+04  0.25500000000E-02 0.  1.
          2   -1    0    0  501    0  0.00000000000E+00 -0.00000000000E+00 -0.18369452326E+04  0.18369452326E+04  0.25500000000E-02 0. -1.
    8880022    1    1    2    0    0  0.40599452406E+03  0.10312146698E+04  0.84093478472E+03  0.13995707249E+04  0.15294330000E+03 0.  0.
    8880022    1    1    2    0    0 -0.40599452406E+03 -0.10312146698E+04 -0.13567404823E+04  0.17585140426E+04  0.15294330000E+03 0.  0.
<mgrwt>
<rscale>  0 0.11187613E+04</rscale>
<asrwt>0</asrwt>
<pdfrwt beam="1">  1        2 0.28260696E+00 0.11187613E+04</pdfrwt>
<pdfrwt beam="2">  1       -2 0.20325224E+00 0.11187613E+04</pdfrwt>
<totfact> 0.10220677E+00</totfact>
</mgrwt>
</event>
<event>
 4    1  0.1033139E-008  0.4301834E+03  0.7818608E-02  0.1033802E+00
          2   -1    0    0  501    0  0.00000000000E+00  0.00000000000E+00  0.15869268603E+04  0.15869268603E+04  0.25500000000E-02 0. -1.
         -2   -1    0    0    0  501 -0.00000000000E+00 -0.00000000000E+00 -0.74867080098E+03  0.74867080098E+03  0.25500000000E-02 0.  1.
    8880022    1    1    2    0    0  0.14680908996E+03  0.37431696026E+03  0.14921303794E+04  0.15529039951E+04  0.15294330000E+03 0.  0.
    8880022    1    1    2    0    0 -0.14680908996E+03 -0.37431696026E+03 -0.65387432011E+03  0.78269366622E+03  0.15294330000E+03 0.  1.
<mgrwt>
<rscale>  0 0.43018339E+03</rscale>
<asrwt>0</asrwt>
<pdfrwt beam="1">  1        2 0.24414259E+00 0.43018339E+03</pdfrwt>
<pdfrwt beam="2">  1       -2 0.11518012E+00 0.43018339E+03</pdfrwt>
<totfact> 0.72757406E+00</totfact>
</mgrwt>
</event>
<event>
 4    1  0.1033139E-008  0.1130374E+04  0.7818608E-02  0.9176082E-01
         -2   -1    0    0    0  501 -0.00000000000E+00  0.00000000000E+00  0.26030378594E+04  0.26030378594E+04  0.25500000000E-02 0.  1.
          2   -1    0    0  501    0  0.00000000000E+00 -0.00000000000E+00 -0.10738050178E+04  0.10738050178E+04  0.25500000000E-02 0. -1.
    8880022    1    1    2    0    0 -0.90215914663E+03  0.66367399366E+03 -0.58992868232E+03  0.12750536455E+04  0.15294330000E+03 0.  0.
    8880022    1    1    2    0    0  0.90215914663E+03 -0.66367399366E+03  0.21191615239E+04  0.24017892316E+04  0.15294330000E+03 0.  0.
<mgrwt>
<rscale>  0 0.11303743E+04</rscale>
<asrwt>0</asrwt>
<pdfrwt beam="1">  1        2 0.16520077E+00 0.11303743E+04</pdfrwt>
<pdfrwt beam="2">  1       -2 0.40046736E+00 0.11303743E+04</pdfrwt>
<totfact> 0.16595282E-01</totfact>
</mgrwt>
</event>
<event>
 4    1  0.1084454E-008  0.9569735E+03  0.7818608E-02  0.9357037E-01
          2   -1    0    0  501    0  0.00000000000E+00  0.00000000000E+00  0.16654003989E+04  0.16654003989E+04  0.25500000000E-02 0. -1.
         -2   -1    0    0    0  501 -0.00000000000E+00 -0.00000000000E+00 -0.11421297024E+04  0.11421297024E+04  0.25500000000E-02 0.  1.
    8880022    1    1    2    0    0  0.73888284935E+03  0.58860744236E+03 -0.74920601041E+03  0.12153632730E+04  0.15294330000E+03 0.  0.
    8880022    1    1    2    0    0 -0.73888284935E+03 -0.58860744236E+03  0.12724767070E+04  0.15921668283E+04  0.15294330000E+03 0.  0.
<mgrwt>
<rscale>  0 0.95697348E+03</rscale>
<asrwt>0</asrwt>
<pdfrwt beam="1">  1        2 0.25621545E+00 0.95697348E+03</pdfrwt>
<pdfrwt beam="2">  1       -2 0.17571226E+00 0.95697348E+03</pdfrwt>
<totfact> 0.19907298E+00</totfact>
</mgrwt>
</event>
<event>
 4    1  0.1033139E-008  0.1324721E+04  0.7818608E-02  0.9010187E-01
          2   -1    0    0  501    0  0.00000000000E+00  0.00000000000E+00  0.23264959192E+04  0.23264959192E+04  0.25500000000E-02 0. -1.
         -2   -1    0    0    0  501 -0.00000000000E+00 -0.00000000000E+00 -0.78613884890E+03  0.78613884890E+03  0.25500000000E-02 0.  1.
    8880022    1    1    2    0    0  0.12994362330E+04 -0.20726954611E+03  0.10833592840E+04  0.17113018961E+04  0.15294330000E+03 0.  0.
    8880022    1    1    2    0    0 -0.12994362330E+04  0.20726954611E+03  0.45699778639E+03  0.14013328720E+04  0.15294330000E+03 0.  0.
<mgrwt>
<rscale>  0 0.13247214E+04</rscale>
<asrwt>0</asrwt>
<pdfrwt beam="1">  1        2 0.35792245E+00 0.13247214E+04</pdfrwt>
<pdfrwt beam="2">  1       -2 0.12094444E+00 0.13247214E+04</pdfrwt>
<totfact> 0.22016454E+00</totfact>
</mgrwt>
</event>
<event>
 4    1  0.1033139E-008  0.8431604E+03  0.7818608E-02  0.9499563E-01
         -2   -1    0    0    0  501 -0.00000000000E+00  0.00000000000E+00  0.64317315880E+03  0.64317315881E+03  0.25500000000E-02 0.  1.
          2   -1    0    0  501    0  0.00000000000E+00 -0.00000000000E+00 -0.14912621251E+04  0.14912621251E+04  0.25500000000E-02 0. -1.
    8880022    1    1    2    0    0 -0.62319392849E+03  0.54695253288E+03 -0.96695812933E+03  0.12829370299E+04  0.15294330000E+03 0.  0.
    8880022    1    1    2    0    0  0.62319392849E+03 -0.54695253288E+03  0.11886916301E+03  0.85149825405E+03  0.15294330000E+03 0.  0.
<mgrwt>
<rscale>  0 0.84316036E+03</rscale>
<asrwt>0</asrwt>
<pdfrwt beam="1">  1        2 0.22942494E+00 0.84316036E+03</pdfrwt>
<pdfrwt beam="2">  1       -2 0.98949717E-01 0.84316036E+03</pdfrwt>
<totfact> 0.11009379E+01</totfact>
</mgrwt>
</event>
<event>
 4    1  0.1033139E-008  0.1150736E+04  0.7818608E-02  0.9157104E-01
         -2   -1    0    0    0  501 -0.00000000000E+00  0.00000000000E+00  0.48349706980E+03  0.48349706981E+03  0.25500000000E-02 0.  1.
          2   -1    0    0  501    0  0.00000000000E+00 -0.00000000000E+00 -0.43145381122E+04  0.43145381122E+04  0.25500000000E-02 0. -1.
    8880022    1    1    2    0    0 -0.11158456236E+04 -0.23598951611E+03 -0.46571260222E+03  0.12414033947E+04  0.15294330000E+03 0.  0.
    8880022    1    1    2    0    0  0.11158456236E+04  0.23598951611E+03 -0.33653284401E+04  0.35566317873E+04  0.15294330000E+03 0.  0.
<mgrwt>
<rscale>  0 0.11507364E+04</rscale>
<asrwt>0</asrwt>
<pdfrwt beam="1">  1        2 0.66377507E+00 0.11507364E+04</pdfrwt>
<pdfrwt beam="2">  1       -2 0.74384168E-01 0.11507364E+04</pdfrwt>
<totfact> 0.31009299E-01</totfact>
</mgrwt>
</event>
<event>
 4    1  0.1033139E-008  0.1214170E+04  0.7818608E-02  0.9100543E-01
         -2   -1    0    0    0  501 -0.00000000000E+00  0.00000000000E+00  0.10240855720E+04  0.10240855720E+04  0.25500000000E-02 0.  1.
          2   -1    0    0  501    0  0.00000000000E+00 -0.00000000000E+00 -0.14717330330E+04  0.14717330330E+04  0.25500000000E-02 0. -1.
    8880022    1    1    2    0    0  0.10960230735E+04 -0.49955099094E+03 -0.40839639135E+03  0.12810140654E+04  0.15294330000E+03 0.  0.
    8880022    1    1    2    0    0 -0.10960230735E+04  0.49955099094E+03 -0.39251069639E+02  0.12148045397E+04  0.15294330000E+03 0.  0.
<mgrwt>
<rscale>  0 0.12141703E+04</rscale>
<asrwt>0</asrwt>
<pdfrwt beam="1">  1        2 0.22642047E+00 0.12141703E+04</pdfrwt>
<pdfrwt beam="2">  1       -2 0.15755163E+00 0.12141703E+04</pdfrwt>
<totfact> 0.33564343E+00</totfact>
</mgrwt>
</event>
<event>
 4    1  0.1033139E-008  0.9435718E+03  0.7818608E-02  0.9372696E-01
         -2   -1    0    0    0  501 -0.00000000000E+00  0.00000000000E+00  0.82857221363E+03  0.82857221363E+03  0.25500000000E-02 0.  1.
          2   -1    0    0  501    0  0.00000000000E+00 -0.00000000000E+00 -0.22352949248E+04  0.22352949248E+04  0.25500000000E-02 0. -1.
    8880022    1    1    2    0    0 -0.17298140207E+03 -0.91488445895E+03  0.40057537359E+03  0.10250797148E+04  0.15294330000E+03 0.  0.
    8880022    1    1    2    0    0  0.17298140207E+03  0.91488445895E+03 -0.18072980848E+04  0.20387874237E+04  0.15294330000E+03 0.  0.
<mgrwt>
<rscale>  0 0.94357183E+03</rscale>
<asrwt>0</asrwt>
<pdfrwt beam="1">  1        2 0.34389152E+00 0.94357183E+03</pdfrwt>
<pdfrwt beam="2">  1       -2 0.12747265E+00 0.94357183E+03</pdfrwt>
<totfact> 0.22741651E+00</totfact>
</mgrwt>
</event>
<event>
 4    1  0.1033139E-008  0.1335406E+04  0.7818608E-02  0.9001949E-01
         -2   -1    0    0    0  501 -0.00000000000E+00  0.00000000000E+00  0.15445665566E+04  0.15445665566E+04  0.25500000000E-02 0.  1.
          2   -1    0    0  501    0  0.00000000000E+00 -0.00000000000E+00 -0.14655136655E+04  0.14655136655E+04  0.25500000000E-02 0. -1.
    8880022    1    1    2    0    0  0.93156661820E+03  0.94451173211E+03  0.73278285856E+03  0.15232469094E+04  0.15294330000E+03 0.  0.
    8880022    1    1    2    0    0 -0.93156661820E+03 -0.94451173211E+03 -0.65372996751E+03  0.14868333127E+04  0.15294330000E+03 0.  0.
<mgrwt>
<rscale>  0 0.13354065E+04</rscale>
<asrwt>0</asrwt>
<pdfrwt beam="1">  1        2 0.22546364E+00 0.13354065E+04</pdfrwt>
<pdfrwt beam="2">  1       -2 0.23762562E+00 0.13354065E+04</pdfrwt>
<totfact> 0.97323202E-01</totfact>
</mgrwt>
</event>
<event>
 4    1  0.1033139E-008  0.1698985E+04  0.7818608E-02  0.8761944E-01
          2   -1    0    0  501    0  0.00000000000E+00  0.00000000000E+00  0.14185729436E+04  0.14185729436E+04  0.25500000000E-02 0. -1.
         -2   -1    0    0    0  501 -0.00000000000E+00 -0.00000000000E+00 -0.26109295447E+04  0.26109295447E+04  0.25500000000E-02 0.  1.
    8880022    1    1    2    0    0  0.16281757535E+04 -0.46065241073E+03 -0.15425772951E+04  0.22947970046E+04  0.15294330000E+03 0.  0.
    8880022    1    1    2    0    0 -0.16281757535E+04  0.46065241073E+03  0.35022069396E+03  0.17347054838E+04  0.15294330000E+03 0.  0.
<mgrwt>
<rscale>  0 0.16989846E+04</rscale>
<asrwt>0</asrwt>
<pdfrwt beam="1">  1        2 0.21824199E+00 0.16989846E+04</pdfrwt>
<pdfrwt beam="2">  1       -2 0.40168147E+00 0.16989846E+04</pdfrwt>
<totfact> 0.94248858E-02</totfact>
</mgrwt>
</event>
<event>
 4    1  0.1033139E-008  0.2797944E+03  0.7818608E-02  0.1095801E+00
          2   -1    0    0  501    0  0.00000000000E+00  0.00000000000E+00  0.59380126656E+03  0.59380126657E+03  0.25500000000E-02 0. -1.
         -2   -1    0    0    0  501 -0.00000000000E+00 -0.00000000000E+00 -0.19636624538E+03  0.19636624540E+03  0.25500000000E-02 0.  1.
    8880022    1    1    2    0    0 -0.21951311198E+03  0.81897856790E+02  0.42519987222E+03  0.50899886996E+03  0.15294330000E+03 0.  1.
    8880022    1    1    2    0    0  0.21951311198E+03 -0.81897856790E+02 -0.27764851036E+02  0.28116864200E+03  0.15294330000E+03 0.  1.
<mgrwt>
<rscale>  0 0.27979442E+03</rscale>
<asrwt>0</asrwt>
<pdfrwt beam="1">  1        2 0.91354039E-01 0.27979442E+03</pdfrwt>
<pdfrwt beam="2">  1       -2 0.30210192E-01 0.27979442E+03</pdfrwt>
<totfact> 0.51825329E+02</totfact>
</mgrwt>
</event>
<event>
 4    1  0.1033139E-008  0.1035676E+04  0.7818608E-02  0.9270259E-01
         -2   -1    0    0    0  501 -0.00000000000E+00  0.00000000000E+00  0.97542992810E+03  0.97542992810E+03  0.25500000000E-02 0.  1.
          2   -1    0    0  501    0  0.00000000000E+00 -0.00000000000E+00 -0.13147411445E+04  0.13147411445E+04  0.25500000000E-02 0. -1.
    8880022    1    1    2    0    0  0.10140920603E+04  0.14439416519E+03 -0.63282176118E+03  0.12137081264E+04  0.15294330000E+03 0.  0.
    8880022    1    1    2    0    0 -0.10140920603E+04 -0.14439416519E+03  0.29351054479E+03  0.10764629462E+04  0.15294330000E+03 0.  0.
<mgrwt>
<rscale>  0 0.10356756E+04</rscale>
<asrwt>0</asrwt>
<pdfrwt beam="1">  1        2 0.20226787E+00 0.10356756E+04</pdfrwt>
<pdfrwt beam="2">  1       -2 0.15006614E+00 0.10356756E+04</pdfrwt>
<totfact> 0.47919943E+00</totfact>
</mgrwt>
</event>
<event>
 4    1  0.1033139E-008  0.7674559E+03  0.7818608E-02  0.9608356E-01
         -2   -1    0    0    0  501 -0.00000000000E+00  0.00000000000E+00  0.75100588972E+03  0.75100588973E+03  0.25500000000E-02 0.  1.
          2   -1    0    0  501    0  0.00000000000E+00 -0.00000000000E+00 -0.88392313561E+03  0.88392313561E+03  0.25500000000E-02 0. -1.
    8880022    1    1    2    0    0  0.28445275588E+03 -0.69619215106E+03  0.20802435979E+03  0.79514946318E+03  0.15294330000E+03 0.  0.
    8880022    1    1    2    0    0 -0.28445275588E+03  0.69619215106E+03 -0.34094160567E+03  0.83977956216E+03  0.15294330000E+03 0.  0.
<mgrwt>
<rscale>  0 0.76745588E+03</rscale>
<asrwt>0</asrwt>
<pdfrwt beam="1">  1        2 0.13598817E+00 0.76745588E+03</pdfrwt>
<pdfrwt beam="2">  1       -2 0.11553937E+00 0.76745588E+03</pdfrwt>
<totfact> 0.17768179E+01</totfact>
</mgrwt>
</event>
<event>
 4    1  0.1033139E-008  0.1449077E+04  0.7818608E-02  0.8919041E-01
          2   -1    0    0  501    0  0.00000000000E+00  0.00000000000E+00  0.36738190667E+04  0.36738190667E+04  0.25500000000E-02 0. -1.
         -2   -1    0    0    0  501 -0.00000000000E+00 -0.00000000000E+00 -0.74528189907E+03  0.74528189908E+03  0.25500000000E-02 0.  1.
    8880022    1    1    2    0    0  0.13458193461E+04 -0.51497717309E+03  0.39751065197E+03  0.15026102531E+04  0.15294330000E+03 0.  0.
    8880022    1    1    2    0    0 -0.13458193461E+04  0.51497717309E+03  0.25310265157E+04  0.29164907127E+04  0.15294330000E+03 0.  0.
<mgrwt>
<rscale>  0 0.14490766E+04</rscale>
<asrwt>0</asrwt>
<pdfrwt beam="1">  1        2 0.56520293E+00 0.14490766E+04</pdfrwt>
<pdfrwt beam="2">  1       -2 0.11465876E+00 0.14490766E+04</pdfrwt>
<totfact> 0.35074931E-01</totfact>
</mgrwt>
</event>
<event>
 4    1  0.1033139E-008  0.5957220E+03  0.7818608E-02  0.9914322E-01
         -2   -1    0    0    0  501 -0.00000000000E+00  0.00000000000E+00  0.11876583465E+04  0.11876583465E+04  0.25500000000E-02 0.  1.
          2   -1    0    0  501    0  0.00000000000E+00 -0.00000000000E+00 -0.14288029653E+04  0.14288029653E+04  0.25500000000E-02 0. -1.
    8880022    1    1    2    0    0 -0.50047539470E+03 -0.28463559608E+03 -0.12839907371E+04  0.14154564314E+04  0.15294330000E+03 0. -1.
    8880022    1    1    2    0    0  0.50047539470E+03  0.28463559608E+03  0.10428461183E+04  0.12010048804E+04  0.15294330000E+03 0.  0.
<mgrwt>
<rscale>  0 0.59572200E+03</rscale>
<asrwt>0</asrwt>
<pdfrwt beam="1">  1        2 0.21981584E+00 0.59572200E+03</pdfrwt>
<pdfrwt beam="2">  1       -2 0.18271667E+00 0.59572200E+03</pdfrwt>
<totfact> 0.25618810E+00</totfact>
</mgrwt>
</event>
<event>
 4    1  0.1033139E-008  0.2937581E+03  0.7818608E-02  0.1088403E+00
         -2   -1    0    0    0  501 -0.00000000000E+00  0.00000000000E+00  0.44594728150E+03  0.44594728151E+03  0.25500000000E-02 0.  1.
          2   -1    0    0  501    0  0.00000000000E+00 -0.00000000000E+00 -0.80755303499E+03  0.80755303500E+03  0.25500000000E-02 0. -1.
    8880022    1    1    2    0    0 -0.85663509026E+02 -0.23572005110E+03  0.36572140378E+03  0.46909058557E+03  0.15294330000E+03 0.  0.
    8880022    1    1    2    0    0  0.85663509026E+02  0.23572005110E+03 -0.72732715728E+03  0.78440973094E+03  0.15294330000E+03 0.  0.
<mgrwt>
<rscale>  0 0.29375812E+03</rscale>
<asrwt>0</asrwt>
<pdfrwt beam="1">  1        2 0.12423893E+00 0.29375812E+03</pdfrwt>
<pdfrwt beam="2">  1       -2 0.68607274E-01 0.29375812E+03</pdfrwt>
<totfact> 0.70461081E+01</totfact>
</mgrwt>
</event>
<event>
 4    1  0.1033139E-008  0.8050215E+03  0.7818608E-02  0.9552777E-01
          2   -1    0    0  501    0  0.00000000000E+00  0.00000000000E+00  0.13234322405E+04  0.13234322405E+04  0.25500000000E-02 0. -1.
         -2   -1    0    0    0  501 -0.00000000000E+00 -0.00000000000E+00 -0.13226381774E+04  0.13226381774E+04  0.25500000000E-02 0.  1.
    8880022    1    1    2    0    0  0.52188171965E+03  0.59355485959E+03 -0.10495375150E+04  0.13227201326E+04  0.15294330000E+03 0.  0.
    8880022    1    1    2    0    0 -0.52188171965E+03 -0.59355485959E+03  0.10503315781E+04  0.13233502853E+04  0.15294330000E+03 0.  0.
<mgrwt>
<rscale>  0 0.80502146E+03</rscale>
<asrwt>0</asrwt>
<pdfrwt beam="1">  1        2 0.20360496E+00 0.80502146E+03</pdfrwt>
<pdfrwt beam="2">  1       -2 0.20348280E+00 0.80502146E+03</pdfrwt>
<totfact> 0.20630414E+00</totfact>
</mgrwt>
</event>
<event>
 4    1  0.1033139E-008  0.4145334E+03  0.7818608E-02  0.1038860E+00
         -2   -1    0    0    0  501 -0.00000000000E+00  0.00000000000E+00  0.33772717393E+03  0.33772717394E+03  0.25500000000E-02 0.  1.
          2   -1    0    0  501    0  0.00000000000E+00 -0.00000000000E+00 -0.14999114411E+04  0.14999114411E+04  0.25500000000E-02 0. -1.
    8880022    1    1    2    0    0 -0.29261706243E+02 -0.38417446280E+03 -0.13279828055E+04  0.13911780080E+04  0.15294330000E+03 0.  0.
    8880022    1    1    2    0    0  0.29261706243E+02  0.38417446280E+03  0.16579853831E+03  0.44646060704E+03  0.15294330000E+03 0.  0.
<mgrwt>
<rscale>  0 0.41453337E+03</rscale>
<asrwt>0</asrwt>
<pdfrwt beam="1">  1        2 0.23075560E+00 0.41453337E+03</pdfrwt>
<pdfrwt beam="2">  1       -2 0.51958028E-01 0.41453337E+03</pdfrwt>
<totfact> 0.47593980E+01</totfact>
</mgrwt>
</event>
<event>
 4    1  0.1033139E-008  0.6160933E+03  0.7818608E-02  0.9872569E-01
         -2   -1    0    0    0  501 -0.00000000000E+00  0.00000000000E+00  0.52700977050E+03  0.52700977051E+03  0.25500000000E-02 0.  1.
          2   -1    0    0  501    0  0.00000000000E+00 -0.00000000000E+00 -0.18796195135E+04  0.18796195135E+04  0.25500000000E-02 0. -1.
    8880022    1    1    2    0    0  0.46251266853E+03 -0.37717541292E+03  0.26875204521E+03  0.67215963541E+03  0.15294330000E+03 0.  1.
    8880022    1    1    2    0    0 -0.46251266853E+03  0.37717541292E+03 -0.16213617882E+04  0.17344696486E+04  0.15294330000E+03 0.  0.
<mgrwt>
<rscale>  0 0.61609327E+03</rscale>
<asrwt>0</asrwt>
<pdfrwt beam="1">  1        2 0.28917223E+00 0.61609327E+03</pdfrwt>
<pdfrwt beam="2">  1       -2 0.81078427E-01 0.61609327E+03</pdfrwt>
<totfact> 0.11029242E+01</totfact>
</mgrwt>
</event>
<event>
 4    1  0.1033139E-008  0.9996879E+03  0.7818608E-02  0.9308887E-01
          2   -1    0    0  501    0  0.00000000000E+00  0.00000000000E+00  0.96877121433E+03  0.96877121434E+03  0.25500000000E-02 0. -1.
         -2   -1    0    0    0  501 -0.00000000000E+00 -0.00000000000E+00 -0.30268568423E+04  0.30268568423E+04  0.25500000000E-02 0.  1.
    8880022    1    1    2    0    0 -0.72955900717E+03 -0.66612911565E+03  0.59298936016E+03  0.11623305803E+04  0.15294330000E+03 0.  0.
    8880022    1    1    2    0    0  0.72955900717E+03  0.66612911565E+03 -0.26510749882E+04  0.28332974764E+04  0.15294330000E+03 0.  0.
<mgrwt>
<rscale>  0 0.99968795E+03</rscale>
<asrwt>0</asrwt>
<pdfrwt beam="1">  1        2 0.14904173E+00 0.99968795E+03</pdfrwt>
<pdfrwt beam="2">  1       -2 0.46567028E+00 0.99968795E+03</pdfrwt>
<totfact> 0.73395406E-02</totfact>
</mgrwt>
</event>
<event>
 4    1  0.1033139E-008  0.1488133E+04  0.7818608E-02  0.8892383E-01
         -2   -1    0    0    0  501 -0.00000000000E+00  0.00000000000E+00  0.11677655087E+04  0.11677655087E+04  0.25500000000E-02 0.  1.
          2   -1    0    0  501    0  0.00000000000E+00 -0.00000000000E+00 -0.30858611311E+04  0.30858611311E+04  0.25500000000E-02 0. -1.
    8880022    1    1    2    0    0  0.92064626133E+03 -0.11591197880E+04  0.36139006285E+03  0.15313858599E+04  0.15294330000E+03 0.  0.
    8880022    1    1    2    0    0 -0.92064626133E+03  0.11591197880E+04 -0.22794856852E+04  0.27222407799E+04  0.15294330000E+03 0.  0.
<mgrwt>
<rscale>  0 0.14881330E+04</rscale>
<asrwt>0</asrwt>
<pdfrwt beam="1">  1        2 0.47474786E+00 0.14881330E+04</pdfrwt>
<pdfrwt beam="2">  1       -2 0.17965623E+00 0.14881330E+04</pdfrwt>
<totfact> 0.26511026E-01</totfact>
</mgrwt>
</event>
<event>
 4    1  0.1033139E-008  0.8285231E+03  0.7818608E-02  0.9519625E-01
         -2   -1    0    0    0  501 -0.00000000000E+00  0.00000000000E+00  0.82872508084E+03  0.82872508085E+03  0.25500000000E-02 0.  1.
          2   -1    0    0  501    0  0.00000000000E+00 -0.00000000000E+00 -0.12105226542E+04  0.12105226542E+04  0.25500000000E-02 0. -1.
    8880022    1    1    2    0    0  0.68142612848E+03  0.44577710372E+03  0.38202885020E+03  0.91235765474E+03  0.15294330000E+03 0.  0.
    8880022    1    1    2    0    0 -0.68142612848E+03 -0.44577710372E+03 -0.76382642357E+03  0.11268900803E+04  0.15294330000E+03 0.  0.
<mgrwt>
<rscale>  0 0.82852305E+03</rscale>
<asrwt>0</asrwt>
<pdfrwt beam="1">  1        2 0.18623426E+00 0.82852305E+03</pdfrwt>
<pdfrwt beam="2">  1       -2 0.12749617E+00 0.82852305E+03</pdfrwt>
<totfact> 0.86054391E+00</totfact>
</mgrwt>
</event>
<event>
 4    1  0.1033139E-008  0.7739166E+03  0.7818608E-02  0.9598559E-01
          2   -1    0    0  501    0  0.00000000000E+00  0.00000000000E+00  0.16930123990E+04  0.16930123990E+04  0.25500000000E-02 0. -1.
         -2   -1    0    0    0  501 -0.00000000000E+00 -0.00000000000E+00 -0.37974845337E+03  0.37974845338E+03  0.25500000000E-02 0.  1.
    8880022    1    1    2    0    0  0.69022124165E+03 -0.31488075665E+03  0.38559476905E+03  0.86465613528E+03  0.15294330000E+03 0.  0.
    8880022    1    1    2    0    0 -0.69022124165E+03  0.31488075665E+03  0.92766917662E+03  0.12081047172E+04  0.15294330000E+03 0.  0.
<mgrwt>
<rscale>  0 0.77391660E+03</rscale>
<asrwt>0</asrwt>
<pdfrwt beam="1">  1        2 0.26046344E+00 0.77391660E+03</pdfrwt>
<pdfrwt beam="2">  1       -2 0.58422839E-01 0.77391660E+03</pdfrwt>
<totfact> 0.27758945E+01</totfact>
</mgrwt>
</event>
<event>
 4    1  0.1033139E-008  0.3260774E+03  0.7818608E-02  0.1072886E+00
         -2   -1    0    0    0  501 -0.00000000000E+00  0.00000000000E+00  0.20016917171E+03  0.20016917172E+03  0.25500000000E-02 0.  1.
          2   -1    0    0  501    0  0.00000000000E+00 -0.00000000000E+00 -0.14573339965E+04  0.14573339965E+04  0.25500000000E-02 0. -1.
    8880022    1    1    2    0    0 -0.21128931556E+03  0.19568246120E+03 -0.12892541542E+04  0.13298506411E+04  0.15294330000E+03 0.  0.
    8880022    1    1    2    0    0  0.21128931556E+03 -0.19568246120E+03  0.32089329361E+02  0.32765252718E+03  0.15294330000E+03 0.  0.
<mgrwt>
<rscale>  0 0.32607737E+03</rscale>
<asrwt>0</asrwt>
<pdfrwt beam="1">  1        2 0.22420522E+00 0.32607737E+03</pdfrwt>
<pdfrwt beam="2">  1       -2 0.30795258E-01 0.32607737E+03</pdfrwt>
<totfact> 0.14015675E+02</totfact>
</mgrwt>
</event>
<event>
 4    1  0.1033139E-008  0.7964897E+03  0.7818608E-02  0.9565112E-01
          2   -1    0    0  501    0  0.00000000000E+00  0.00000000000E+00  0.18343960566E+04  0.18343960566E+04  0.25500000000E-02 0. -1.
         -2   -1    0    0    0  501 -0.00000000000E+00 -0.00000000000E+00 -0.51611892934E+03  0.51611892935E+03  0.25500000000E-02 0.  1.
    8880022    1    1    2    0    0  0.75911623190E+03 -0.18640479438E+03  0.13342052998E+04  0.15538660290E+04  0.15294330000E+03 0.  0.
    8880022    1    1    2    0    0 -0.75911623190E+03  0.18640479438E+03 -0.15928172590E+02  0.79664895695E+03  0.15294330000E+03 0.  0.
<mgrwt>
<rscale>  0 0.79648971E+03</rscale>
<asrwt>0</asrwt>
<pdfrwt beam="1">  1        2 0.28221478E+00 0.79648971E+03</pdfrwt>
<pdfrwt beam="2">  1       -2 0.79402913E-01 0.79648971E+03</pdfrwt>
<totfact> 0.11895485E+01</totfact>
</mgrwt>
</event>
<event>
 4    1  0.1033139E-008  0.7320388E+03  0.7818608E-02  0.9663958E-01
         -2   -1    0    0    0  501 -0.00000000000E+00  0.00000000000E+00  0.44069029701E+03  0.44069029701E+03  0.25500000000E-02 0.  1.
          2   -1    0    0  501    0  0.00000000000E+00 -0.00000000000E+00 -0.15346591108E+04  0.15346591108E+04  0.25500000000E-02 0. -1.
    8880022    1    1    2    0    0 -0.34043078243E+03 -0.62975876270E+03 -0.99704280371E+03  0.12369216718E+04  0.15294330000E+03 0.  0.
    8880022    1    1    2    0    0  0.34043078243E+03  0.62975876270E+03 -0.96926010096E+02  0.73842773599E+03  0.15294330000E+03 0.  1.
<mgrwt>
<rscale>  0 0.73203884E+03</rscale>
<asrwt>0</asrwt>
<pdfrwt beam="1">  1        2 0.23610140E+00 0.73203884E+03</pdfrwt>
<pdfrwt beam="2">  1       -2 0.67798508E-01 0.73203884E+03</pdfrwt>
<totfact> 0.24824788E+01</totfact>
</mgrwt>
</event>
<event>
 4    1  0.1033139E-008  0.6298391E+03  0.7818608E-02  0.9845363E-01
          2   -1    0    0  501    0  0.00000000000E+00  0.00000000000E+00  0.13780176579E+04  0.13780176579E+04  0.25500000000E-02 0. -1.
         -2   -1    0    0    0  501 -0.00000000000E+00 -0.00000000000E+00 -0.83497165960E+03  0.83497165960E+03  0.25500000000E-02 0.  1.
    8880022    1    1    2    0    0 -0.60872906114E+03  0.52484293279E+02  0.11671874650E+04  0.13262819845E+04  0.15294330000E+03 0.  0.
    8880022    1    1    2    0    0  0.60872906114E+03 -0.52484293279E+02 -0.62414146671E+03  0.88670733300E+03  0.15294330000E+03 0.  0.
<mgrwt>
<rscale>  0 0.62983913E+03</rscale>
<asrwt>0</asrwt>
<pdfrwt beam="1">  1        2 0.21200272E+00 0.62983913E+03</pdfrwt>
<pdfrwt beam="2">  1       -2 0.12845718E+00 0.62983913E+03</pdfrwt>
<totfact> 0.69492467E+00</totfact>
</mgrwt>
</event>
<event>
 4    1  0.1033139E-008  0.4230622E+03  0.7818608E-02  0.1036074E+00
         -2   -1    0    0    0  501 -0.00000000000E+00  0.00000000000E+00  0.11074433558E+04  0.11074433558E+04  0.25500000000E-02 0.  1.
          2   -1    0    0  501    0  0.00000000000E+00 -0.00000000000E+00 -0.55117690453E+03  0.55117690454E+03  0.25500000000E-02 0. -1.
    8880022    1    1    2    0    0  0.34082423296E+03 -0.19856697743E+03 -0.41906873361E+03  0.59548321454E+03  0.15294330000E+03 0.  0.
    8880022    1    1    2    0    0 -0.34082423296E+03  0.19856697743E+03  0.97533518487E+03  0.10631370458E+04  0.15294330000E+03 0.  0.
<mgrwt>
<rscale>  0 0.42306224E+03</rscale>
<asrwt>0</asrwt>
<pdfrwt beam="1">  1        2 0.84796448E-01 0.42306224E+03</pdfrwt>
<pdfrwt beam="2">  1       -2 0.17037590E+00 0.42306224E+03</pdfrwt>
<totfact> 0.12344868E+01</totfact>
</mgrwt>
</event>
<event>
 4    1  0.1033139E-008  0.1561872E+04  0.7818608E-02  0.8844320E-01
         -2   -1    0    0    0  501 -0.00000000000E+00  0.00000000000E+00  0.18548906414E+04  0.18548906414E+04  0.25500000000E-02 0.  1.
          2   -1    0    0  501    0  0.00000000000E+00 -0.00000000000E+00 -0.16123170155E+04  0.16123170155E+04  0.25500000000E-02 0. -1.
    8880022    1    1    2    0    0  0.75549601943E+02  0.15525288675E+04  0.86555681177E+03  0.17856746272E+04  0.15294330000E+03 0.  0.
    8880022    1    1    2    0    0 -0.75549601943E+02 -0.15525288675E+04 -0.62298318593E+03  0.16815330297E+04  0.15294330000E+03 0.  0.
<mgrwt>
<rscale>  0 0.15618724E+04</rscale>
<asrwt>0</asrwt>
<pdfrwt beam="1">  1        2 0.24804877E+00 0.15618724E+04</pdfrwt>
<pdfrwt beam="2">  1       -2 0.28536779E+00 0.15618724E+04</pdfrwt>
<totfact> 0.40018332E-01</totfact>
</mgrwt>
</event>
<event>
 4    1  0.1033139E-008  0.7288384E+03  0.7818608E-02  0.9669147E-01
          2   -1    0    0  501    0  0.00000000000E+00  0.00000000000E+00  0.18977360824E+04  0.18977360825E+04  0.25500000000E-02 0. -1.
         -2   -1    0    0    0  501 -0.00000000000E+00 -0.00000000000E+00 -0.11527192531E+04  0.11527192531E+04  0.25500000000E-02 0.  1.
    8880022    1    1    2    0    0 -0.48629651825E+03  0.52089290822E+03  0.16996927645E+04  0.18493676953E+04  0.15294330000E+03 0.  0.
    8880022    1    1    2    0    0  0.48629651825E+03 -0.52089290822E+03 -0.95467593518E+03  0.12010876403E+04  0.15294330000E+03 0.  0.
<mgrwt>
<rscale>  0 0.72883838E+03</rscale>
<asrwt>0</asrwt>
<pdfrwt beam="1">  1        2 0.29195940E+00 0.72883838E+03</pdfrwt>
<pdfrwt beam="2">  1       -2 0.17734142E+00 0.72883838E+03</pdfrwt>
<totfact> 0.15017892E+00</totfact>
</mgrwt>
</event>
<event>
 4    1  0.1033139E-008  0.8299418E+03  0.7818608E-02  0.9517661E-01
          2   -1    0    0  501    0  0.00000000000E+00  0.00000000000E+00  0.13412418898E+04  0.13412418898E+04  0.25500000000E-02 0. -1.
         -2   -1    0    0    0  501 -0.00000000000E+00 -0.00000000000E+00 -0.13553916686E+04  0.13553916686E+04  0.25500000000E-02 0.  1.
    8880022    1    1    2    0    0  0.80677170661E+03  0.12054500766E+03  0.10555331443E+04  0.13427410611E+04  0.15294330000E+03 0.  0.
    8880022    1    1    2    0    0 -0.80677170661E+03 -0.12054500766E+03 -0.10696829231E+04  0.13538924974E+04  0.15294330000E+03 0.  0.
<mgrwt>
<rscale>  0 0.82994177E+03</rscale>
<asrwt>0</asrwt>
<pdfrwt beam="1">  1        2 0.20634491E+00 0.82994177E+03</pdfrwt>
<pdfrwt beam="2">  1       -2 0.20852179E+00 0.82994177E+03</pdfrwt>
<totfact> 0.18628819E+00</totfact>
</mgrwt>
</event>
<event>
 4    1  0.1033139E-008  0.6254332E+03  0.7818608E-02  0.9854001E-01
         -2   -1    0    0    0  501 -0.00000000000E+00  0.00000000000E+00  0.90274183355E+03  0.90274183355E+03  0.25500000000E-02 0.  1.
          2   -1    0    0  501    0  0.00000000000E+00 -0.00000000000E+00 -0.29231994970E+04  0.29231994970E+04  0.25500000000E-02 0. -1.
    8880022    1    1    2    0    0  0.40906434924E+03 -0.44770676984E+03  0.75527701293E+03  0.98061715917E+03  0.15294330000E+03 0.  0.
    8880022    1    1    2    0    0 -0.40906434924E+03  0.44770676984E+03 -0.27757346764E+04  0.28453241714E+04  0.15294330000E+03 0. -1.
<mgrwt>
<rscale>  0 0.62543317E+03</rscale>
<asrwt>0</asrwt>
<pdfrwt beam="1">  1        2 0.44972300E+00 0.62543317E+03</pdfrwt>
<pdfrwt beam="2">  1       -2 0.13888336E+00 0.62543317E+03</pdfrwt>
<totfact> 0.78437137E-01</totfact>
</mgrwt>
</event>
<event>
 4    1  0.1033139E-008  0.1173759E+04  0.7818608E-02  0.9136141E-01
         -2   -1    0    0    0  501 -0.00000000000E+00  0.00000000000E+00  0.19901265105E+04  0.19901265105E+04  0.25500000000E-02 0.  1.
          2   -1    0    0  501    0  0.00000000000E+00 -0.00000000000E+00 -0.11162710255E+04  0.11162710256E+04  0.25500000000E-02 0. -1.
    8880022    1    1    2    0    0  0.11467794605E+04 -0.19802761151E+03  0.13941756362E+04  0.18224805688E+04  0.15294330000E+03 0.  0.
    8880022    1    1    2    0    0 -0.11467794605E+04  0.19802761151E+03 -0.52032015132E+03  0.12839169672E+04  0.15294330000E+03 0.  0.
<mgrwt>
<rscale>  0 0.11737588E+04</rscale>
<asrwt>0</asrwt>
<pdfrwt beam="1">  1        2 0.17173400E+00 0.11737588E+04</pdfrwt>
<pdfrwt beam="2">  1       -2 0.30617331E+00 0.11737588E+04</pdfrwt>
<totfact> 0.60837006E-01</totfact>
</mgrwt>
</event>
<event>
 4    1  0.1033139E-008  0.1422418E+04  0.7818608E-02  0.8937749E-01
          2   -1    0    0  501    0  0.00000000000E+00  0.00000000000E+00  0.24436109427E+04  0.24436109427E+04  0.25500000000E-02 0. -1.
         -2   -1    0    0    0  501 -0.00000000000E+00 -0.00000000000E+00 -0.11490399472E+04  0.11490399472E+04  0.25500000000E-02 0.  1.
    8880022    1    1    2    0    0 -0.13442560298E+04 -0.43915459638E+03 -0.30224142939E+03  0.14541741876E+04  0.15294330000E+03 0.  0.
    8880022    1    1    2    0    0  0.13442560298E+04  0.43915459638E+03  0.15968124248E+04  0.21384767023E+04  0.15294330000E+03 0.  0.
<mgrwt>
<rscale>  0 0.14224179E+04</rscale>
<asrwt>0</asrwt>
<pdfrwt beam="1">  1        2 0.37594014E+00 0.14224179E+04</pdfrwt>
<pdfrwt beam="2">  1       -2 0.17677538E+00 0.14224179E+04</pdfrwt>
<totfact> 0.68027365E-01</totfact>
</mgrwt>
</event>
<event>
 4    1  0.1033139E-008  0.3659543E+03  0.7818608E-02  0.1056251E+00
          2   -1    0    0  501    0  0.00000000000E+00  0.00000000000E+00  0.14452089060E+04  0.14452089060E+04  0.25500000000E-02 0. -1.
         -2   -1    0    0    0  501 -0.00000000000E+00 -0.00000000000E+00 -0.14362032273E+04  0.14362032273E+04  0.25500000000E-02 0.  1.
    8880022    1    1    2    0    0  0.22213205315E+03 -0.24736256331E+03  0.13979554300E+04  0.14450612181E+04  0.15294330000E+03 0.  0.
    8880022    1    1    2    0    0 -0.22213205315E+03  0.24736256331E+03 -0.13889497514E+04  0.14363509152E+04  0.15294330000E+03 0.  1.
<mgrwt>
<rscale>  0 0.36595429E+03</rscale>
<asrwt>0</asrwt>
<pdfrwt beam="1">  1        2 0.22233983E+00 0.36595429E+03</pdfrwt>
<pdfrwt beam="2">  1       -2 0.22095434E+00 0.36595429E+03</pdfrwt>
<totfact> 0.15228181E+00</totfact>
</mgrwt>
</event>
<event>
 4    1  0.1033139E-008  0.1400739E+04  0.7818608E-02  0.8953284E-01
          2   -1    0    0  501    0  0.00000000000E+00  0.00000000000E+00  0.18229445699E+04  0.18229445699E+04  0.25500000000E-02 0. -1.
         -2   -1    0    0    0  501 -0.00000000000E+00 -0.00000000000E+00 -0.15180900450E+04  0.15180900450E+04  0.25500000000E-02 0.  1.
    8880022    1    1    2    0    0 -0.48141764694E+03 -0.13064898632E+04  0.10535847696E+04  0.17527439155E+04  0.15294330000E+03 0.  0.
    8880022    1    1    2    0    0  0.48141764694E+03  0.13064898632E+04 -0.74873024474E+03  0.15882906994E+04  0.15294330000E+03 0.  0.
<mgrwt>
<rscale>  0 0.14007392E+04</rscale>
<asrwt>0</asrwt>
<pdfrwt beam="1">  1        2 0.28045301E+00 0.14007392E+04</pdfrwt>
<pdfrwt beam="2">  1       -2 0.23355232E+00 0.14007392E+04</pdfrwt>
<totfact> 0.64560845E-01</totfact>
</mgrwt>
</event>
<event>
 4    1  0.1033139E-008  0.1141424E+04  0.7818608E-02  0.9165732E-01
          2   -1    0    0  501    0  0.00000000000E+00  0.00000000000E+00  0.10544923068E+04  0.10544923068E+04  0.25500000000E-02 0. -1.
         -2   -1    0    0    0  501 -0.00000000000E+00 -0.00000000000E+00 -0.17639628838E+04  0.17639628838E+04  0.25500000000E-02 0.  1.
    8880022    1    1    2    0    0 -0.59993844403E+03 -0.95892213613E+03 -0.11260546436E+04  0.16033865764E+04  0.15294330000E+03 0.  0.
    8880022    1    1    2    0    0  0.59993844403E+03  0.95892213613E+03  0.41658406667E+03  0.12150686143E+04  0.15294330000E+03 0.  0.
<mgrwt>
<rscale>  0 0.11414243E+04</rscale>
<asrwt>0</asrwt>
<pdfrwt beam="1">  1        2 0.16222959E+00 0.11414243E+04</pdfrwt>
<pdfrwt beam="2">  1       -2 0.27137890E+00 0.11414243E+04</pdfrwt>
<totfact> 0.10854563E+00</totfact>
</mgrwt>
</event>
<event>
 4    1  0.1033139E-008  0.1290767E+04  0.7818608E-02  0.9036919E-01
          2   -1    0    0  501    0  0.00000000000E+00  0.00000000000E+00  0.10662495100E+04  0.10662495100E+04  0.25500000000E-02 0. -1.
         -2   -1    0    0    0  501 -0.00000000000E+00 -0.00000000000E+00 -0.26290181802E+04  0.26290181802E+04  0.25500000000E-02 0.  1.
    8880022    1    1    2    0    0  0.12711215364E+04 -0.16412818001E+03 -0.19581523870E+04  0.23453017809E+04  0.15294330000E+03 0.  0.
    8880022    1    1    2    0    0 -0.12711215364E+04  0.16412818001E+03  0.39538371674E+03  0.13499659093E+04  0.15294330000E+03 0.  0.
<mgrwt>
<rscale>  0 0.12907671E+04</rscale>
<asrwt>0</asrwt>
<pdfrwt beam="1">  1        2 0.16403839E+00 0.12907671E+04</pdfrwt>
<pdfrwt beam="2">  1       -2 0.40446433E+00 0.12907671E+04</pdfrwt>
<totfact> 0.15439689E-01</totfact>
</mgrwt>
</event>
<event>
 4    1  0.1033139E-008  0.7851881E+03  0.7818608E-02  0.9581708E-01
          2   -1    0    0  501    0  0.00000000000E+00  0.00000000000E+00  0.15851995522E+04  0.15851995522E+04  0.25500000000E-02 0. -1.
         -2   -1    0    0    0  501 -0.00000000000E+00 -0.00000000000E+00 -0.22288799193E+04  0.22288799193E+04  0.25500000000E-02 0.  1.
    8880022    1    1    2    0    0  0.76854243308E+03  0.49711468940E+02  0.14108473450E+04  0.16146239765E+04  0.15294330000E+03 0.  0.
    8880022    1    1    2    0    0 -0.76854243308E+03 -0.49711468940E+02 -0.20545277121E+04  0.21994554949E+04  0.15294330000E+03 0.  0.
<mgrwt>
<rscale>  0 0.78518810E+03</rscale>
<asrwt>0</asrwt>
<pdfrwt beam="1">  1        2 0.24387686E+00 0.78518810E+03</pdfrwt>
<pdfrwt beam="2">  1       -2 0.34290460E+00 0.78518810E+03</pdfrwt>
<totfact> 0.20747164E-01</totfact>
</mgrwt>
</event>
<event>
 4    1  0.1033139E-008  0.9801546E+03  0.7818608E-02  0.9330583E-01
          2   -1    0    0  501    0  0.00000000000E+00  0.00000000000E+00  0.92850513368E+03  0.92850513368E+03  0.25500000000E-02 0. -1.
         -2   -1    0    0    0  501 -0.00000000000E+00 -0.00000000000E+00 -0.12652761426E+04  0.12652761426E+04  0.25500000000E-02 0.  1.
    8880022    1    1    2    0    0  0.28410543468E+03 -0.92552447530E+03  0.29988770538E+03  0.10250052396E+04  0.15294330000E+03 0.  0.
    8880022    1    1    2    0    0 -0.28410543468E+03  0.92552447530E+03 -0.63665871432E+03  0.11687760367E+04  0.15294330000E+03 0.  0.
<mgrwt>
<rscale>  0 0.98015463E+03</rscale>
<asrwt>0</asrwt>
<pdfrwt beam="1">  1        2 0.14284694E+00 0.98015463E+03</pdfrwt>
<pdfrwt beam="2">  1       -2 0.19465787E+00 0.98015463E+03</pdfrwt>
<totfact> 0.40239626E+00</totfact>
</mgrwt>
</event>
<event>
 4    1  0.1033139E-008  0.6476413E+03  0.7818608E-02  0.9811215E-01
         -2   -1    0    0    0  501 -0.00000000000E+00  0.00000000000E+00  0.14132752841E+04  0.14132752841E+04  0.25500000000E-02 0.  1.
          2   -1    0    0  501    0  0.00000000000E+00 -0.00000000000E+00 -0.91574886722E+03  0.91574886723E+03  0.25500000000E-02 0. -1.
    8880022    1    1    2    0    0  0.60929443699E+03  0.15750521297E+03 -0.70862563632E+03  0.95999455651E+03  0.15294330000E+03 0.  0.
    8880022    1    1    2    0    0 -0.60929443699E+03 -0.15750521297E+03  0.12061520532E+04  0.13690295948E+04  0.15294330000E+03 0.  1.
<mgrwt>
<rscale>  0 0.64764130E+03</rscale>
<asrwt>0</asrwt>
<pdfrwt beam="1">  1        2 0.14088444E+00 0.64764130E+03</pdfrwt>
<pdfrwt beam="2">  1       -2 0.21742697E+00 0.64764130E+03</pdfrwt>
<totfact> 0.30637249E+00</totfact>
</mgrwt>
</event>
<event>
 4    1  0.1033139E-008  0.3054279E+03  0.7818608E-02  0.1082558E+00
         -2   -1    0    0    0  501 -0.00000000000E+00  0.00000000000E+00  0.43326388964E+03  0.43326388965E+03  0.25500000000E-02 0.  1.
          2   -1    0    0  501    0  0.00000000000E+00 -0.00000000000E+00 -0.10992774647E+04  0.10992774647E+04  0.25500000000E-02 0. -1.
    8880022    1    1    2    0    0 -0.61704226654E+02 -0.25707420322E+03  0.35413536731E+03  0.46765165341E+03  0.15294330000E+03 0.  0.
    8880022    1    1    2    0    0  0.61704226654E+02  0.25707420322E+03 -0.10201489424E+04  0.10648897010E+04  0.15294330000E+03 0. -1.
<mgrwt>
<rscale>  0 0.30542791E+03</rscale>
<asrwt>0</asrwt>
<pdfrwt beam="1">  1        2 0.16911961E+00 0.30542791E+03</pdfrwt>
<pdfrwt beam="2">  1       -2 0.66655983E-01 0.30542791E+03</pdfrwt>
<totfact> 0.48789609E+01</totfact>
</mgrwt>
</event>
<event>
 4    1  0.1033139E-008  0.3150224E+03  0.7818608E-02  0.1077963E+00
          2   -1    0    0  501    0  0.00000000000E+00  0.00000000000E+00  0.17005764452E+04  0.17005764452E+04  0.25500000000E-02 0. -1.
         -2   -1    0    0    0  501 -0.00000000000E+00 -0.00000000000E+00 -0.16043937136E+04  0.16043937136E+04  0.25500000000E-02 0.  1.
    8880022    1    1    2    0    0 -0.27412053873E+03  0.26558952136E+02 -0.15740626697E+04  0.16052764213E+04  0.15294330000E+03 0.  0.
    8880022    1    1    2    0    0  0.27412053873E+03 -0.26558952136E+02  0.16702454013E+04  0.16996937374E+04  0.15294330000E+03 0. -1.
<mgrwt>
<rscale>  0 0.31502238E+03</rscale>
<asrwt>0</asrwt>
<pdfrwt beam="1">  1        2 0.26162714E+00 0.31502238E+03</pdfrwt>
<pdfrwt beam="2">  1       -2 0.24682980E+00 0.31502238E+03</pdfrwt>
<totfact> 0.79384059E-01</totfact>
</mgrwt>
</event>
<event>
 4    1  0.1033139E-008  0.6001502E+03  0.7818608E-02  0.9905094E-01
          2   -1    0    0  501    0  0.00000000000E+00  0.00000000000E+00  0.14025051153E+04  0.14025051153E+04  0.25500000000E-02 0. -1.
         -2   -1    0    0    0  501 -0.00000000000E+00 -0.00000000000E+00 -0.10004444430E+04  0.10004444430E+04  0.25500000000E-02 0.  1.
    8880022    1    1    2    0    0 -0.53639667581E+03 -0.22151131011E+03  0.12368813630E+04  0.13747930075E+04  0.15294330000E+03 0.  0.
    8880022    1    1    2    0    0  0.53639667581E+03  0.22151131011E+03 -0.83482069069E+03  0.10281565508E+04  0.15294330000E+03 0.  0.
<mgrwt>
<rscale>  0 0.60015024E+03</rscale>
<asrwt>0</asrwt>
<pdfrwt beam="1">  1        2 0.21577002E+00 0.60015024E+03</pdfrwt>
<pdfrwt beam="2">  1       -2 0.15391453E+00 0.60015024E+03</pdfrwt>
<totfact> 0.42429687E+00</totfact>
</mgrwt>
</event>
<event>
 4    1  0.1033139E-008  0.7877424E+03  0.7818608E-02  0.9577931E-01
          2   -1    0    0  501    0  0.00000000000E+00  0.00000000000E+00  0.17436055739E+04  0.17436055739E+04  0.25500000000E-02 0. -1.
         -2   -1    0    0    0  501 -0.00000000000E+00 -0.00000000000E+00 -0.49426557881E+03  0.49426557882E+03  0.25500000000E-02 0.  1.
    8880022    1    1    2    0    0 -0.76328448023E+03  0.12059554443E+03  0.12167070811E+04  0.14494530890E+04  0.15294330000E+03 0.  0.
    8880022    1    1    2    0    0  0.76328448023E+03 -0.12059554443E+03  0.32632914024E+02  0.78841806372E+03  0.15294330000E+03 0.  0.
<mgrwt>
<rscale>  0 0.78774243E+03</rscale>
<asrwt>0</asrwt>
<pdfrwt beam="1">  1        2 0.26824701E+00 0.78774243E+03</pdfrwt>
<pdfrwt beam="2">  1       -2 0.76040860E-01 0.78774243E+03</pdfrwt>
<totfact> 0.14706720E+01</totfact>
</mgrwt>
</event>
<event>
 4    1  0.1033139E-008  0.1165299E+04  0.7818608E-02  0.9143785E-01
          2   -1    0    0  501    0  0.00000000000E+00  0.00000000000E+00  0.25686390531E+04  0.25686390531E+04  0.25500000000E-02 0. -1.
         -2   -1    0    0    0  501 -0.00000000000E+00 -0.00000000000E+00 -0.15189123248E+04  0.15189123248E+04  0.25500000000E-02 0.  1.
    8880022    1    1    2    0    0 -0.11405012086E+04  0.18381096237E+03 -0.11253539606E+04  0.16199823043E+04  0.15294330000E+03 0.  0.
    8880022    1    1    2    0    0  0.11405012086E+04 -0.18381096237E+03  0.21750806888E+04  0.24675690735E+04  0.15294330000E+03 0.  0.
<mgrwt>
<rscale>  0 0.11652987E+04</rscale>
<asrwt>0</asrwt>
<pdfrwt beam="1">  1        2 0.39517524E+00 0.11652987E+04</pdfrwt>
<pdfrwt beam="2">  1       -2 0.23367882E+00 0.11652987E+04</pdfrwt>
<totfact> 0.25299223E-01</totfact>
</mgrwt>
</event>
<event>
 4    1  0.1033139E-008  0.5819719E+03  0.7818608E-02  0.9943531E-01
         -2   -1    0    0    0  501 -0.00000000000E+00  0.00000000000E+00  0.90378868163E+03  0.90378868163E+03  0.25500000000E-02 0.  1.
          2   -1    0    0  501    0  0.00000000000E+00 -0.00000000000E+00 -0.59541030124E+03  0.59541030124E+03  0.25500000000E-02 0. -1.
    8880022    1    1    2    0    0 -0.41533829989E+03 -0.37788057933E+03  0.61052762347E+03  0.84346622198E+03  0.15294330000E+03 0.  0.
    8880022    1    1    2    0    0  0.41533829989E+03  0.37788057933E+03 -0.30214924308E+03  0.65573276089E+03  0.15294330000E+03 0.  0.
<mgrwt>
<rscale>  0 0.58197190E+03</rscale>
<asrwt>0</asrwt>
<pdfrwt beam="1">  1        2 0.91601585E-01 0.58197190E+03</pdfrwt>
<pdfrwt beam="2">  1       -2 0.13904441E+00 0.58197190E+03</pdfrwt>
<totfact> 0.18879436E+01</totfact>
</mgrwt>
</event>
<event>
 4    1  0.1033139E-008  0.6208606E+03  0.7818608E-02  0.9863048E-01
         -2   -1    0    0    0  501 -0.00000000000E+00  0.00000000000E+00  0.87838646840E+03  0.87838646841E+03  0.25500000000E-02 0.  1.
          2   -1    0    0  501    0  0.00000000000E+00 -0.00000000000E+00 -0.44816821159E+03  0.44816821159E+03  0.25500000000E-02 0. -1.
    8880022    1    1    2    0    0 -0.41177448039E+03 -0.43876881110E+03  0.31081925477E+03  0.69431732979E+03  0.15294330000E+03 0.  0.
    8880022    1    1    2    0    0  0.41177448039E+03  0.43876881110E+03  0.11939900204E+03  0.63223735021E+03  0.15294330000E+03 0.  0.
<mgrwt>
<rscale>  0 0.62086065E+03</rscale>
<asrwt>0</asrwt>
<pdfrwt beam="1">  1        2 0.68948958E-01 0.62086065E+03</pdfrwt>
<pdfrwt beam="2">  1       -2 0.13513638E+00 0.62086065E+03</pdfrwt>
<totfact> 0.28140927E+01</totfact>
</mgrwt>
</event>
<event>
 4    1  0.1033139E-008  0.7957306E+03  0.7818608E-02  0.9566218E-01
          2   -1    0    0  501    0  0.00000000000E+00  0.00000000000E+00  0.30785974135E+04  0.30785974135E+04  0.25500000000E-02 0. -1.
         -2   -1    0    0    0  501 -0.00000000000E+00 -0.00000000000E+00 -0.42458006541E+03  0.42458006542E+03  0.25500000000E-02 0.  1.
    8880022    1    1    2    0    0  0.76268850889E+03  0.16763582848E+03  0.69296323371E+02  0.79874224005E+03  0.15294330000E+03 0.  0.
    8880022    1    1    2    0    0 -0.76268850889E+03 -0.16763582848E+03  0.25847210247E+04  0.27044352389E+04  0.15294330000E+03 0.  0.
<mgrwt>
<rscale>  0 0.79573060E+03</rscale>
<asrwt>0</asrwt>
<pdfrwt beam="1">  1        2 0.47363035E+00 0.79573060E+03</pdfrwt>
<pdfrwt beam="2">  1       -2 0.65320013E-01 0.79573060E+03</pdfrwt>
<totfact> 0.35562660E+00</totfact>
</mgrwt>
</event>
<event>
 4    1  0.1033139E-008  0.8824472E+03  0.7818608E-02  0.9447793E-01
          2   -1    0    0  501    0  0.00000000000E+00  0.00000000000E+00  0.11791523377E+04  0.11791523377E+04  0.25500000000E-02 0. -1.
         -2   -1    0    0    0  501 -0.00000000000E+00 -0.00000000000E+00 -0.27713658263E+04  0.27713658263E+04  0.25500000000E-02 0.  1.
    8880022    1    1    2    0    0  0.23557521860E+03 -0.83655582152E+03 -0.25200289839E+04  0.26700672386E+04  0.15294330000E+03 0.  0.
    8880022    1    1    2    0    0 -0.23557521860E+03  0.83655582152E+03  0.92781549527E+03  0.12804509254E+04  0.15294330000E+03 0.  0.
<mgrwt>
<rscale>  0 0.88244715E+03</rscale>
<asrwt>0</asrwt>
<pdfrwt beam="1">  1        2 0.18140805E+00 0.88244715E+03</pdfrwt>
<pdfrwt beam="2">  1       -2 0.42636397E+00 0.88244715E+03</pdfrwt>
<totfact> 0.10108607E-01</totfact>
</mgrwt>
</event>
<event>
 4    1  0.1033139E-008  0.3980771E+03  0.7818608E-02  0.1044448E+00
          2   -1    0    0  501    0  0.00000000000E+00  0.00000000000E+00  0.10510912194E+04  0.10510912194E+04  0.25500000000E-02 0. -1.
         -2   -1    0    0    0  501 -0.00000000000E+00 -0.00000000000E+00 -0.54883046451E+03  0.54883046452E+03  0.25500000000E-02 0.  1.
    8880022    1    1    2    0    0 -0.27998402993E+03 -0.23808128494E+03  0.93241423449E+03  0.10138351508E+04  0.15294330000E+03 0.  0.
    8880022    1    1    2    0    0  0.27998402993E+03  0.23808128494E+03 -0.43015347963E+03  0.58608653312E+03  0.15294330000E+03 0.  0.
<mgrwt>
<rscale>  0 0.39807714E+03</rscale>
<asrwt>0</asrwt>
<pdfrwt beam="1">  1        2 0.16170634E+00 0.39807714E+03</pdfrwt>
<pdfrwt beam="2">  1       -2 0.84435458E-01 0.39807714E+03</pdfrwt>
<totfact> 0.30477268E+01</totfact>
</mgrwt>
</event>
<event>
 4    1  0.1033139E-008  0.6081316E+03  0.7818608E-02  0.9888678E-01
          2   -1    0    0  501    0  0.00000000000E+00  0.00000000000E+00  0.37780104365E+04  0.37780104365E+04  0.25500000000E-02 0. -1.
         -2   -1    0    0    0  501 -0.00000000000E+00 -0.00000000000E+00 -0.14620515452E+03  0.14620515454E+03  0.25500000000E-02 0.  1.
    8880022    1    1    2    0    0  0.22403439317E+03 -0.54428023660E+03  0.68795319452E+03  0.91820675022E+03  0.15294330000E+03 0.  0.
    8880022    1    1    2    0    0 -0.22403439317E+03  0.54428023660E+03  0.29438520874E+04  0.30060088408E+04  0.15294330000E+03 0.  0.
<mgrwt>
<rscale>  0 0.60813160E+03</rscale>
<asrwt>0</asrwt>
<pdfrwt beam="1">  1        2 0.58123242E+00 0.60813160E+03</pdfrwt>
<pdfrwt beam="2">  1       -2 0.22493099E-01 0.60813160E+03</pdfrwt>
<totfact> 0.99608772E+00</totfact>
</mgrwt>
</event>
<event>
 4    1  0.1033139E-008  0.7685249E+03  0.7818608E-02  0.9606728E-01
          2   -1    0    0  501    0  0.00000000000E+00  0.00000000000E+00  0.42058029020E+04  0.42058029020E+04  0.25500000000E-02 0. -1.
         -2   -1    0    0    0  501 -0.00000000000E+00 -0.00000000000E+00 -0.17175977206E+03  0.17175977208E+03  0.25500000000E-02 0.  1.
    8880022    1    1    2    0    0 -0.67081996272E+03  0.34240242206E+03  0.10822522269E+04  0.13273659543E+04  0.15294330000E+03 0.  0.
    8880022    1    1    2    0    0  0.67081996272E+03 -0.34240242206E+03  0.29517909030E+04  0.30501967197E+04  0.15294330000E+03 0.  0.
<mgrwt>
<rscale>  0 0.76852488E+03</rscale>
<asrwt>0</asrwt>
<pdfrwt beam="1">  1        2 0.64704660E+00 0.76852488E+03</pdfrwt>
<pdfrwt beam="2">  1       -2 0.26424580E-01 0.76852488E+03</pdfrwt>
<totfact> 0.33110946E+00</totfact>
</mgrwt>
</event>
<event>
 4    1  0.1033139E-008  0.8821792E+03  0.7818608E-02  0.9448137E-01
         -2   -1    0    0    0  501 -0.00000000000E+00  0.00000000000E+00  0.14055242457E+04  0.14055242457E+04  0.25500000000E-02 0.  1.
          2   -1    0    0  501    0  0.00000000000E+00 -0.00000000000E+00 -0.60559327193E+03  0.60559327193E+03  0.25500000000E-02 0. -1.
    8880022    1    1    2    0    0  0.16396208866E+03  0.85320859759E+03  0.69431845782E+03  0.11226389675E+04  0.15294330000E+03 0.  0.
    8880022    1    1    2    0    0 -0.16396208866E+03 -0.85320859759E+03  0.10561251599E+03  0.88847855015E+03  0.15294330000E+03 0.  0.
<mgrwt>
<rscale>  0 0.88217919E+03</rscale>
<asrwt>0</asrwt>
<pdfrwt beam="1">  1        2 0.93168196E-01 0.88217919E+03</pdfrwt>
<pdfrwt beam="2">  1       -2 0.21623450E+00 0.88217919E+03</pdfrwt>
<totfact> 0.51591097E+00</totfact>
</mgrwt>
</event>
<event>
 4    1  0.1033139E-008  0.2828862E+03  0.7818608E-02  0.1094123E+00
          2   -1    0    0  501    0  0.00000000000E+00  0.00000000000E+00  0.13055124420E+04  0.13055124420E+04  0.25500000000E-02 0. -1.
         -2   -1    0    0    0  501 -0.00000000000E+00 -0.00000000000E+00 -0.27152347153E+03  0.27152347154E+03  0.25500000000E-02 0.  1.
    8880022    1    1    2    0    0  0.18570619714E+03  0.14881580534E+03  0.12108213809E+04  0.12434279251E+04  0.15294330000E+03 0. -1.
    8880022    1    1    2    0    0 -0.18570619714E+03 -0.14881580534E+03 -0.17683241038E+03  0.33360798844E+03  0.15294330000E+03 0.  0.
<mgrwt>
<rscale>  0 0.28288618E+03</rscale>
<asrwt>0</asrwt>
<pdfrwt beam="1">  1        2 0.20084807E+00 0.28288618E+03</pdfrwt>
<pdfrwt beam="2">  1       -2 0.41772842E-01 0.28288618E+03</pdfrwt>
<totfact> 0.96446258E+01</totfact>
</mgrwt>
</event>
<event>
 4    1  0.1033139E-008  0.5004432E+03  0.7818608E-02  0.1013663E+00
         -2   -1    0    0    0  501 -0.00000000000E+00  0.00000000000E+00  0.15065644857E+03  0.15065644860E+03  0.25500000000E-02 0.  1.
          2   -1    0    0  501    0  0.00000000000E+00 -0.00000000000E+00 -0.34239969082E+04  0.34239969082E+04  0.25500000000E-02 0. -1.
    8880022    1    1    2    0    0  0.58292792015E+02 -0.47292034663E+03 -0.35464371194E+03  0.61336410011E+03  0.15294330000E+03 0.  0.
    8880022    1    1    2    0    0 -0.58292792015E+02  0.47292034663E+03 -0.29186967477E+04  0.29612892567E+04  0.15294330000E+03 0.  0.
<mgrwt>
<rscale>  0 0.50044316E+03</rscale>
<asrwt>0</asrwt>
<pdfrwt beam="1">  1        2 0.52676870E+00 0.50044316E+03</pdfrwt>
<pdfrwt beam="2">  1       -2 0.23177918E-01 0.50044316E+03</pdfrwt>
<totfact> 0.17121575E+01</totfact>
</mgrwt>
</event>
<event>
 4    1  0.1033139E-008  0.8090028E+03  0.7818608E-02  0.9547077E-01
         -2   -1    0    0    0  501 -0.00000000000E+00  0.00000000000E+00  0.87772109899E+03  0.87772109899E+03  0.25500000000E-02 0.  1.
          2   -1    0    0  501    0  0.00000000000E+00 -0.00000000000E+00 -0.12070898065E+04  0.12070898065E+04  0.25500000000E-02 0. -1.
    8880022    1    1    2    0    0 -0.79288685470E+03 -0.49238094204E+02  0.47980761724E+03  0.94058543304E+03  0.15294330000E+03 0.  0.
    8880022    1    1    2    0    0  0.79288685470E+03  0.49238094204E+02 -0.80917632480E+03  0.11442254725E+04  0.15294330000E+03 0.  0.
<mgrwt>
<rscale>  0 0.80900285E+03</rscale>
<asrwt>0</asrwt>
<pdfrwt beam="1">  1        2 0.18570612E+00 0.80900285E+03</pdfrwt>
<pdfrwt beam="2">  1       -2 0.13503401E+00 0.80900285E+03</pdfrwt>
<totfact> 0.74902521E+00</totfact>
</mgrwt>
</event>
<event>
 4    1  0.1033139E-008  0.2508001E+03  0.7818608E-02  0.1112800E+00
         -2   -1    0    0    0  501 -0.00000000000E+00  0.00000000000E+00  0.78973910563E+03  0.78973910563E+03  0.25500000000E-02 0.  1.
          2   -1    0    0  501    0  0.00000000000E+00 -0.00000000000E+00 -0.27921937791E+03  0.27921937792E+03  0.25500000000E-02 0. -1.
    8880022    1    1    2    0    0 -0.31749414029E+02  0.19621679112E+03 -0.19660418493E+03  0.31867524685E+03  0.15294330000E+03 0.  0.
    8880022    1    1    2    0    0  0.31749414029E+02 -0.19621679112E+03  0.70712391265E+03  0.75028323670E+03  0.15294330000E+03 0.  1.
<mgrwt>
<rscale>  0 0.25080013E+03</rscale>
<asrwt>0</asrwt>
<pdfrwt beam="1">  1        2 0.42956828E-01 0.25080013E+03</pdfrwt>
<pdfrwt beam="2">  1       -2 0.12149832E+00 0.25080013E+03</pdfrwt>
<totfact> 0.64438399E+01</totfact>
</mgrwt>
</event>
<event>
 4    1  0.1033139E-008  0.4298967E+03  0.7818608E-02  0.1033893E+00
         -2   -1    0    0    0  501 -0.00000000000E+00  0.00000000000E+00  0.49121301375E+03  0.49121301376E+03  0.25500000000E-02 0.  1.
          2   -1    0    0  501    0  0.00000000000E+00 -0.00000000000E+00 -0.15783372327E+04  0.15783372327E+04  0.25500000000E-02 0. -1.
    8880022    1    1    2    0    0  0.66431140563E+02  0.39624034358E+03  0.35949853521E+03  0.56040195945E+03  0.15294330000E+03 0.  0.
    8880022    1    1    2    0    0 -0.66431140563E+02 -0.39624034358E+03 -0.14466227542E+04  0.15091482870E+04  0.15294330000E+03 0.  0.
<mgrwt>
<rscale>  0 0.42989668E+03</rscale>
<asrwt>0</asrwt>
<pdfrwt beam="1">  1        2 0.24282111E+00 0.42989668E+03</pdfrwt>
<pdfrwt beam="2">  1       -2 0.75571234E-01 0.42989668E+03</pdfrwt>
<totfact> 0.19476154E+01</totfact>
</mgrwt>
</event>
<event>
 4    1  0.1033139E-008  0.1943863E+04  0.7818608E-02  0.8633326E-01
          2   -1    0    0  501    0  0.00000000000E+00  0.00000000000E+00  0.23576585659E+04  0.23576585659E+04  0.25500000000E-02 0. -1.
         -2   -1    0    0    0  501 -0.00000000000E+00 -0.00000000000E+00 -0.17886554124E+04  0.17886554124E+04  0.25500000000E-02 0.  1.
    8880022    1    1    2    0    0  0.19378155772E+04 -0.90512693955E+01  0.95297089716E+03  0.21648917573E+04  0.15294330000E+03 0.  0.
    8880022    1    1    2    0    0 -0.19378155772E+04  0.90512693955E+01 -0.38396774368E+03  0.19814222210E+04  0.15294330000E+03 0.  0.
<mgrwt>
<rscale>  0 0.19438629E+04</rscale>
<asrwt>0</asrwt>
<pdfrwt beam="1">  1        2 0.36271670E+00 0.19438629E+04</pdfrwt>
<pdfrwt beam="2">  1       -2 0.27517776E+00 0.19438629E+04</pdfrwt>
<totfact> 0.16929956E-01</totfact>
</mgrwt>
</event>
<event>
 4    1  0.1033139E-008  0.1195790E+04  0.7818608E-02  0.9116549E-01
         -2   -1    0    0    0  501 -0.00000000000E+00  0.00000000000E+00  0.21163506009E+04  0.21163506009E+04  0.25500000000E-02 0.  1.
          2   -1    0    0  501    0  0.00000000000E+00 -0.00000000000E+00 -0.80193382568E+03  0.80193382569E+03  0.25500000000E-02 0. -1.
    8880022    1    1    2    0    0  0.29768250056E+02 -0.11855952619E+04  0.78178627450E+02  0.11983429495E+04  0.15294330000E+03 0.  0.
    8880022    1    1    2    0    0 -0.29768250056E+02  0.11855952619E+04  0.12362381478E+04  0.17199414771E+04  0.15294330000E+03 0.  0.
<mgrwt>
<rscale>  0 0.11957901E+04</rscale>
<asrwt>0</asrwt>
<pdfrwt beam="1">  1        2 0.12337444E+00 0.11957901E+04</pdfrwt>
<pdfrwt beam="2">  1       -2 0.32559239E+00 0.11957901E+04</pdfrwt>
<totfact> 0.74656942E-01</totfact>
</mgrwt>
</event>
<event>
 4    1  0.1033139E-008  0.6759314E+03  0.7818608E-02  0.9759302E-01
          2   -1    0    0  501    0  0.00000000000E+00  0.00000000000E+00  0.29371899736E+04  0.29371899736E+04  0.25500000000E-02 0. -1.
         -2   -1    0    0    0  501 -0.00000000000E+00 -0.00000000000E+00 -0.25389443052E+03  0.25389443053E+03  0.25500000000E-02 0.  1.
    8880022    1    1    2    0    0  0.38348248988E+03 -0.53519413771E+03  0.34863671425E+03  0.76054638032E+03  0.15294330000E+03 0.  0.
    8880022    1    1    2    0    0 -0.38348248988E+03  0.53519413771E+03  0.23346588288E+04  0.24305380238E+04  0.15294330000E+03 0.  0.
<mgrwt>
<rscale>  0 0.67593139E+03</rscale>
<asrwt>0</asrwt>
<pdfrwt beam="1">  1        2 0.45187537E+00 0.67593139E+03</pdfrwt>
<pdfrwt beam="2">  1       -2 0.39060683E-01 0.67593139E+03</pdfrwt>
<totfact> 0.12686761E+01</totfact>
</mgrwt>
</event>
<event>
 4    1  0.1033139E-008  0.8497979E+03  0.7818608E-02  0.9490608E-01
         -2   -1    0    0    0  501 -0.00000000000E+00  0.00000000000E+00  0.36573089005E+03  0.36573089006E+03  0.25500000000E-02 0.  1.
          2   -1    0    0  501    0  0.00000000000E+00 -0.00000000000E+00 -0.26640030215E+04  0.26640030215E+04  0.25500000000E-02 0. -1.
    8880022    1    1    2    0    0 -0.83341369458E+03 -0.64703003375E+02 -0.37848595387E+03  0.93027315088E+03  0.15294330000E+03 0.  0.
    8880022    1    1    2    0    0  0.83341369458E+03  0.64703003375E+02 -0.19197861775E+04  0.20994607606E+04  0.15294330000E+03 0.  0.
<mgrwt>
<rscale>  0 0.84979793E+03</rscale>
<asrwt>0</asrwt>
<pdfrwt beam="1">  1        2 0.40984661E+00 0.84979793E+03</pdfrwt>
<pdfrwt beam="2">  1       -2 0.56266292E-01 0.84979793E+03</pdfrwt>
<totfact> 0.85743286E+00</totfact>
</mgrwt>
</event>
<event>
 4    1  0.1033139E-008  0.9233412E+03  0.7818608E-02  0.9396865E-01
          2   -1    0    0  501    0  0.00000000000E+00  0.00000000000E+00  0.12980198149E+04  0.12980198149E+04  0.25500000000E-02 0. -1.
         -2   -1    0    0    0  501 -0.00000000000E+00 -0.00000000000E+00 -0.15371857093E+04  0.15371857094E+04  0.25500000000E-02 0.  1.
    8880022    1    1    2    0    0 -0.90881437592E+03 -0.56778720189E+02 -0.11923962333E+04  0.15081007338E+04  0.15294330000E+03 0.  0.
    8880022    1    1    2    0    0  0.90881437592E+03  0.56778720189E+02  0.95323033891E+03  0.13271047905E+04  0.15294330000E+03 0.  0.
<mgrwt>
<rscale>  0 0.92334124E+03</rscale>
<asrwt>0</asrwt>
<pdfrwt beam="1">  1        2 0.19969536E+00 0.92334124E+03</pdfrwt>
<pdfrwt beam="2">  1       -2 0.23649011E+00 0.92334124E+03</pdfrwt>
<totfact> 0.12993867E+00</totfact>
</mgrwt>
</event>
<event>
 4    1  0.1033139E-008  0.9179210E+03  0.7818608E-02  0.9403453E-01
          2   -1    0    0  501    0  0.00000000000E+00  0.00000000000E+00  0.19942672862E+04  0.19942672862E+04  0.25500000000E-02 0. -1.
         -2   -1    0    0    0  501 -0.00000000000E+00 -0.00000000000E+00 -0.81396849644E+03  0.81396849644E+03  0.25500000000E-02 0.  1.
    8880022    1    1    2    0    0 -0.49929771428E+03  0.75490995700E+03  0.15639003858E+04  0.18133844932E+04  0.15294330000E+03 0.  1.
    8880022    1    1    2    0    0  0.49929771428E+03 -0.75490995700E+03 -0.38360159598E+03  0.99485128945E+03  0.15294330000E+03 0.  0.
<mgrwt>
<rscale>  0 0.91792097E+03</rscale>
<asrwt>0</asrwt>
<pdfrwt beam="1">  1        2 0.30681035E+00 0.91792097E+03</pdfrwt>
<pdfrwt beam="2">  1       -2 0.12522592E+00 0.91792097E+03</pdfrwt>
<totfact> 0.32437527E+00</totfact>
</mgrwt>
</event>
<event>
 4    1  0.1033139E-008  0.6932781E+03  0.7818608E-02  0.9728797E-01
         -2   -1    0    0    0  501 -0.00000000000E+00  0.00000000000E+00  0.97168072266E+03  0.97168072266E+03  0.25500000000E-02 0.  1.
          2   -1    0    0  501    0  0.00000000000E+00 -0.00000000000E+00 -0.54394511439E+03  0.54394511439E+03  0.25500000000E-02 0. -1.
    8880022    1    1    2    0    0 -0.10089611085E+03 -0.66862763440E+03  0.44201723749E+03  0.82220060199E+03  0.15294330000E+03 0.  0.
    8880022    1    1    2    0    0  0.10089611085E+03  0.66862763440E+03 -0.14281629214E+02  0.69342523506E+03  0.15294330000E+03 0.  0.
<mgrwt>
<rscale>  0 0.69327815E+03</rscale>
<asrwt>0</asrwt>
<pdfrwt beam="1">  1        2 0.83683865E-01 0.69327815E+03</pdfrwt>
<pdfrwt beam="2">  1       -2 0.14948934E+00 0.69327815E+03</pdfrwt>
<totfact> 0.17192742E+01</totfact>
</mgrwt>
</event>
<event>
 4    1  0.1033139E-008  0.1058697E+04  0.7818608E-02  0.9246410E-01
          2   -1    0    0  501    0  0.00000000000E+00  0.00000000000E+00  0.62571139660E+03  0.62571139660E+03  0.25500000000E-02 0. -1.
         -2   -1    0    0    0  501 -0.00000000000E+00 -0.00000000000E+00 -0.18602642872E+04  0.18602642872E+04  0.25500000000E-02 0.  1.
    8880022    1    1    2    0    0 -0.87037475931E+03 -0.58300636745E+03 -0.37795908843E+03  0.11241411707E+04  0.15294330000E+03 0.  0.
    8880022    1    1    2    0    0  0.87037475931E+03  0.58300636745E+03 -0.85659380215E+03  0.13618345131E+04  0.15294330000E+03 0.  0.
<mgrwt>
<rscale>  0 0.10586975E+04</rscale>
<asrwt>0</asrwt>
<pdfrwt beam="1">  1        2 0.96263292E-01 0.10586975E+04</pdfrwt>
<pdfrwt beam="2">  1       -2 0.28619450E+00 0.10586975E+04</pdfrwt>
<totfact> 0.18134385E+00</totfact>
</mgrwt>
</event>
<event>
 4    1  0.1033139E-008  0.4068186E+03  0.7818608E-02  0.1041444E+00
         -2   -1    0    0    0  501 -0.00000000000E+00  0.00000000000E+00  0.32124812280E+03  0.32124812281E+03  0.25500000000E-02 0.  1.
          2   -1    0    0  501    0  0.00000000000E+00 -0.00000000000E+00 -0.11079345460E+04  0.11079345460E+04  0.25500000000E-02 0. -1.
    8880022    1    1    2    0    0  0.17658927354E+03 -0.33305546311E+03 -0.91602488812E+03  0.10022988385E+04  0.15294330000E+03 0.  0.
    8880022    1    1    2    0    0 -0.17658927354E+03  0.33305546311E+03  0.12933846492E+03  0.42688383029E+03  0.15294330000E+03 0.  0.
<mgrwt>
<rscale>  0 0.40681859E+03</rscale>
<asrwt>0</asrwt>
<pdfrwt beam="1">  1        2 0.17045147E+00 0.40681859E+03</pdfrwt>
<pdfrwt beam="2">  1       -2 0.49422789E-01 0.40681859E+03</pdfrwt>
<totfact> 0.87906426E+01</totfact>
</mgrwt>
</event>
<event>
 4    1  0.1033139E-008  0.7087839E+03  0.7818608E-02  0.9702327E-01
         -2   -1    0    0    0  501 -0.00000000000E+00  0.00000000000E+00  0.20658947688E+04  0.20658947688E+04  0.25500000000E-02 0.  1.
          2   -1    0    0  501    0  0.00000000000E+00 -0.00000000000E+00 -0.32328572760E+03  0.32328572761E+03  0.25500000000E-02 0. -1.
    8880022    1    1    2    0    0  0.49537186246E+03 -0.48331119197E+03  0.27664258354E+03  0.76085856928E+03  0.15294330000E+03 0.  0.
    8880022    1    1    2    0    0 -0.49537186246E+03  0.48331119197E+03  0.14659664576E+04  0.16283219271E+04  0.15294330000E+03 0.  0.
<mgrwt>
<rscale>  0 0.70878392E+03</rscale>
<asrwt>0</asrwt>
<pdfrwt beam="1">  1        2 0.49736263E-01 0.70878392E+03</pdfrwt>
<pdfrwt beam="2">  1       -2 0.31782998E+00 0.70878392E+03</pdfrwt>
<totfact> 0.26211826E+00</totfact>
</mgrwt>
</event>
<event>
 4    1  0.1033139E-008  0.6708996E+03  0.7818608E-02  0.9768334E-01
         -2   -1    0    0    0  501 -0.00000000000E+00  0.00000000000E+00  0.10905079917E+04  0.10905079918E+04  0.25500000000E-02 0.  1.
          2   -1    0    0  501    0  0.00000000000E+00 -0.00000000000E+00 -0.66505331312E+03  0.66505331313E+03  0.25500000000E-02 0. -1.
    8880022    1    1    2    0    0 -0.15661234637E+03  0.63418227144E+03 -0.32792737246E+03  0.74675470877E+03  0.15294330000E+03 0.  0.
    8880022    1    1    2    0    0  0.15661234637E+03 -0.63418227144E+03  0.75338205109E+03  0.10088065961E+04  0.15294330000E+03 0.  0.
<mgrwt>
<rscale>  0 0.67089957E+03</rscale>
<asrwt>0</asrwt>
<pdfrwt beam="1">  1        2 0.10231590E+00 0.67089957E+03</pdfrwt>
<pdfrwt beam="2">  1       -2 0.16777046E+00 0.67089957E+03</pdfrwt>
<totfact> 0.99123167E+00</totfact>
</mgrwt>
</event>
<event>
 4    1  0.1033139E-008  0.1387144E+04  0.7818608E-02  0.8963177E-01
          2   -1    0    0  501    0  0.00000000000E+00  0.00000000000E+00  0.15309185958E+04  0.15309185958E+04  0.25500000000E-02 0. -1.
         -2   -1    0    0    0  501 -0.00000000000E+00 -0.00000000000E+00 -0.13882160645E+04  0.13882160645E+04  0.25500000000E-02 0.  1.
    8880022    1    1    2    0    0  0.72263289717E+03 -0.11741285088E+04  0.52030533474E+03  0.14815145472E+04  0.15294330000E+03 0.  0.
    8880022    1    1    2    0    0 -0.72263289717E+03  0.11741285088E+04 -0.37760280349E+03  0.14376201131E+04  0.15294330000E+03 0.  0.
<mgrwt>
<rscale>  0 0.13871437E+04</rscale>
<asrwt>0</asrwt>
<pdfrwt beam="1">  1        2 0.23552594E+00 0.13871437E+04</pdfrwt>
<pdfrwt beam="2">  1       -2 0.21357170E+00 0.13871437E+04</pdfrwt>
<totfact> 0.12598826E+00</totfact>
</mgrwt>
</event>
<event>
 4    1  0.1033139E-008  0.9070937E+03  0.7818608E-02  0.9416757E-01
         -2   -1    0    0    0  501 -0.00000000000E+00  0.00000000000E+00  0.80960682242E+03  0.80960682242E+03  0.25500000000E-02 0.  1.
          2   -1    0    0  501    0  0.00000000000E+00 -0.00000000000E+00 -0.18173526209E+04  0.18173526209E+04  0.25500000000E-02 0. -1.
    8880022    1    1    2    0    0 -0.19516993772E+03 -0.87254566795E+03 -0.13758982467E+04  0.16480033027E+04  0.15294330000E+03 0.  0.
    8880022    1    1    2    0    0  0.19516993772E+03  0.87254566795E+03  0.36815244821E+03  0.97895614069E+03  0.15294330000E+03 0.  0.
<mgrwt>
<rscale>  0 0.90709366E+03</rscale>
<asrwt>0</asrwt>
<pdfrwt beam="1">  1        2 0.27959271E+00 0.90709366E+03</pdfrwt>
<pdfrwt beam="2">  1       -2 0.12455490E+00 0.90709366E+03</pdfrwt>
<totfact> 0.41173329E+00</totfact>
</mgrwt>
</event>
<event>
 4    1  0.1033139E-008  0.2985222E+03  0.7818608E-02  0.1085982E+00
          2   -1    0    0  501    0  0.00000000000E+00  0.00000000000E+00  0.48849852341E+04  0.48849852341E+04  0.25500000000E-02 0. -1.
         -2   -1    0    0    0  501 -0.00000000000E+00 -0.00000000000E+00 -0.38717180470E+03  0.38717180470E+03  0.25500000000E-02 0.  1.
    8880022    1    1    2    0    0 -0.23422586958E+03 -0.10422124817E+03 -0.32431922401E+03  0.44079296572E+03  0.15294330000E+03 0.  0.
    8880022    1    1    2    0    0  0.23422586958E+03  0.10422124817E+03  0.48221326534E+04  0.48313640731E+04  0.15294330000E+03 0.  0.
<mgrwt>
<rscale>  0 0.29852216E+03</rscale>
<asrwt>0</asrwt>
<pdfrwt beam="1">  1        2 0.75153619E+00 0.29852216E+03</pdfrwt>
<pdfrwt beam="2">  1       -2 0.59564893E-01 0.29852216E+03</pdfrwt>
<totfact> 0.18354884E-01</totfact>
</mgrwt>
</event>
<event>
 4    1  0.1033139E-008  0.6628670E+03  0.7818608E-02  0.9782930E-01
          2   -1    0    0  501    0  0.00000000000E+00  0.00000000000E+00  0.76791333340E+03  0.76791333340E+03  0.25500000000E-02 0. -1.
         -2   -1    0    0    0  501 -0.00000000000E+00 -0.00000000000E+00 -0.14702513567E+04  0.14702513567E+04  0.25500000000E-02 0.  1.
    8880022    1    1    2    0    0 -0.60282921631E+03  0.22934254215E+03  0.52345044051E+03  0.84462600147E+03  0.15294330000E+03 0.  0.
    8880022    1    1    2    0    0  0.60282921631E+03 -0.22934254215E+03 -0.12257884638E+04  0.13935386886E+04  0.15294330000E+03 0.  0.
<mgrwt>
<rscale>  0 0.66286704E+03</rscale>
<asrwt>0</asrwt>
<pdfrwt beam="1">  1        2 0.11814051E+00 0.66286704E+03</pdfrwt>
<pdfrwt beam="2">  1       -2 0.22619252E+00 0.66286704E+03</pdfrwt>
<totfact> 0.34163891E+00</totfact>
</mgrwt>
</event>
<event>
 4    1  0.1033139E-008  0.5270885E+03  0.7818608E-02  0.1006941E+00
         -2   -1    0    0    0  501 -0.00000000000E+00  0.00000000000E+00  0.29911947947E+03  0.29911947948E+03  0.25500000000E-02 0.  1.
          2   -1    0    0  501    0  0.00000000000E+00 -0.00000000000E+00 -0.18687891885E+04  0.18687891885E+04  0.25500000000E-02 0. -1.
    8880022    1    1    2    0    0  0.12199968278E+03 -0.48943511046E+03 -0.15535972975E+04  0.16405751631E+04  0.15294330000E+03 0.  0.
    8880022    1    1    2    0    0 -0.12199968278E+03  0.48943511046E+03 -0.16072411534E+02  0.52733350489E+03  0.15294330000E+03 0.  0.
<mgrwt>
<rscale>  0 0.52708852E+03</rscale>
<asrwt>0</asrwt>
<pdfrwt beam="1">  1        2 0.28750602E+00 0.52708852E+03</pdfrwt>
<pdfrwt beam="2">  1       -2 0.46018383E-01 0.52708852E+03</pdfrwt>
<totfact> 0.37621090E+01</totfact>
</mgrwt>
</event>
<event>
 4    1  0.1033139E-008  0.2784934E+03  0.7818608E-02  0.1096515E+00
          2   -1    0    0  501    0  0.00000000000E+00  0.00000000000E+00  0.69073503770E+03  0.69073503771E+03  0.25500000000E-02 0. -1.
         -2   -1    0    0    0  501 -0.00000000000E+00 -0.00000000000E+00 -0.44330132399E+03  0.44330132400E+03  0.25500000000E-02 0.  1.
    8880022    1    1    2    0    0 -0.21906457821E+03 -0.78597898095E+02 -0.36625682899E+03  0.46011154822E+03  0.15294330000E+03 0.  0.
    8880022    1    1    2    0    0  0.21906457821E+03  0.78597898095E+02  0.61369054270E+03  0.67392481348E+03  0.15294330000E+03 0.  0.
<mgrwt>
<rscale>  0 0.27849340E+03</rscale>
<asrwt>0</asrwt>
<pdfrwt beam="1">  1        2 0.10626693E+00 0.27849340E+03</pdfrwt>
<pdfrwt beam="2">  1       -2 0.68200204E-01 0.27849340E+03</pdfrwt>
<totfact> 0.86986540E+01</totfact>
</mgrwt>
</event>
<event>
 4    1  0.1033139E-008  0.1021666E+04  0.7818608E-02  0.9285096E-01
         -2   -1    0    0    0  501 -0.00000000000E+00  0.00000000000E+00  0.58822784023E+03  0.58822784024E+03  0.25500000000E-02 0.  1.
          2   -1    0    0  501    0  0.00000000000E+00 -0.00000000000E+00 -0.37204938606E+04  0.37204938606E+04  0.25500000000E-02 0. -1.
    8880022    1    1    2    0    0 -0.32686159255E+03  0.95580971465E+03 -0.80507207479E+01  0.10216981836E+04  0.15294330000E+03 0.  0.
    8880022    1    1    2    0    0  0.32686159255E+03 -0.95580971465E+03 -0.31242152996E+04  0.32870235172E+04  0.15294330000E+03 0.  0.
<mgrwt>
<rscale>  0 0.10216665E+04</rscale>
<asrwt>0</asrwt>
<pdfrwt beam="1">  1        2 0.57238365E+00 0.10216665E+04</pdfrwt>
<pdfrwt beam="2">  1       -2 0.90496593E-01 0.10216665E+04</pdfrwt>
<totfact> 0.61013057E-01</totfact>
</mgrwt>
</event>
<event>
 4    1  0.1033139E-008  0.6191012E+03  0.7818608E-02  0.9866551E-01
         -2   -1    0    0    0  501 -0.00000000000E+00  0.00000000000E+00  0.19797340025E+04  0.19797340025E+04  0.25500000000E-02 0.  1.
          2   -1    0    0  501    0  0.00000000000E+00 -0.00000000000E+00 -0.55949811559E+03  0.55949811560E+03  0.25500000000E-02 0. -1.
    8880022    1    1    2    0    0 -0.53121122219E+02  0.59755564269E+03 -0.31659788326E+03  0.69535636362E+03  0.15294330000E+03 0.  0.
    8880022    1    1    2    0    0  0.53121122219E+02 -0.59755564269E+03  0.17368337702E+04  0.18438757545E+04  0.15294330000E+03 0.  0.
<mgrwt>
<rscale>  0 0.61910117E+03</rscale>
<asrwt>0</asrwt>
<pdfrwt beam="1">  1        2 0.86076633E-01 0.61910117E+03</pdfrwt>
<pdfrwt beam="2">  1       -2 0.30457446E+00 0.61910117E+03</pdfrwt>
<totfact> 0.17168169E+00</totfact>
</mgrwt>
</event>
<event>
 4    1  0.1033139E-008  0.1313937E+04  0.7818608E-02  0.9018585E-01
         -2   -1    0    0    0  501 -0.00000000000E+00  0.00000000000E+00  0.11055049581E+04  0.11055049581E+04  0.25500000000E-02 0.  1.
          2   -1    0    0  501    0  0.00000000000E+00 -0.00000000000E+00 -0.18381084408E+04  0.18381084408E+04  0.25500000000E-02 0. -1.
    8880022    1    1    2    0    0 -0.11195608989E+04  0.67053966861E+03  0.20447465685E+03  0.13297524551E+04  0.15294330000E+03 0.  0.
    8880022    1    1    2    0    0  0.11195608989E+04 -0.67053966861E+03 -0.93707813956E+03  0.16138609439E+04  0.15294330000E+03 0.  0.
<mgrwt>
<rscale>  0 0.13139375E+04</rscale>
<asrwt>0</asrwt>
<pdfrwt beam="1">  1        2 0.28278591E+00 0.13139375E+04</pdfrwt>
<pdfrwt beam="2">  1       -2 0.17007769E+00 0.13139375E+04</pdfrwt>
<totfact> 0.16785902E+00</totfact>
</mgrwt>
</event>
<event>
 4    1  0.1033139E-008  0.8348058E+03  0.7818608E-02  0.9510960E-01
          2   -1    0    0  501    0  0.00000000000E+00  0.00000000000E+00  0.10489888372E+04  0.10489888372E+04  0.25500000000E-02 0. -1.
         -2   -1    0    0    0  501 -0.00000000000E+00 -0.00000000000E+00 -0.68271511685E+03  0.68271511685E+03  0.25500000000E-02 0.  1.
    8880022    1    1    2    0    0 -0.66261190977E+03 -0.48420504716E+03  0.41144659003E+02  0.83581912316E+03  0.15294330000E+03 0.  0.
    8880022    1    1    2    0    0  0.66261190977E+03  0.48420504716E+03  0.32512906133E+03  0.89588483088E+03  0.15294330000E+03 0.  0.
<mgrwt>
<rscale>  0 0.83480580E+03</rscale>
<asrwt>0</asrwt>
<pdfrwt beam="1">  1        2 0.16138290E+00 0.83480580E+03</pdfrwt>
<pdfrwt beam="2">  1       -2 0.10503310E+00 0.83480580E+03</pdfrwt>
<totfact> 0.17363339E+01</totfact>
</mgrwt>
</event>
<event>
 4    1  0.1033139E-008  0.7759619E+03  0.7818608E-02  0.9595478E-01
          2   -1    0    0  501    0  0.00000000000E+00  0.00000000000E+00  0.24717493083E+04  0.24717493083E+04  0.25500000000E-02 0. -1.
         -2   -1    0    0    0  501 -0.00000000000E+00 -0.00000000000E+00 -0.60812368484E+03  0.60812368485E+03  0.25500000000E-02 0.  1.
    8880022    1    1    2    0    0 -0.50583479330E+03  0.56820452504E+03 -0.26044460238E+03  0.81850367398E+03  0.15294330000E+03 0.  0.
    8880022    1    1    2    0    0  0.50583479330E+03 -0.56820452504E+03  0.21240702259E+04  0.22613693192E+04  0.15294330000E+03 0.  0.
<mgrwt>
<rscale>  0 0.77596190E+03</rscale>
<asrwt>0</asrwt>
<pdfrwt beam="1">  1        2 0.38026912E+00 0.77596190E+03</pdfrwt>
<pdfrwt beam="2">  1       -2 0.93557491E-01 0.77596190E+03</pdfrwt>
<totfact> 0.36465386E+00</totfact>
</mgrwt>
</event>
<event>
 4    1  0.1033139E-008  0.2451077E+03  0.7818608E-02  0.1116436E+00
          2   -1    0    0  501    0  0.00000000000E+00  0.00000000000E+00  0.53107580439E+03  0.53107580440E+03  0.25500000000E-02 0. -1.
         -2   -1    0    0    0  501 -0.00000000000E+00 -0.00000000000E+00 -0.86966441069E+03  0.86966441070E+03  0.25500000000E-02 0.  1.
    8880022    1    1    2    0    0  0.92618370098E+02  0.16765428103E+03  0.48393796066E+03  0.54247002057E+03  0.15294330000E+03 0.  0.
    8880022    1    1    2    0    0 -0.92618370098E+02 -0.16765428103E+03 -0.82252656697E+03  0.85827019452E+03  0.15294330000E+03 0.  1.
<mgrwt>
<rscale>  0 0.24510768E+03</rscale>
<asrwt>0</asrwt>
<pdfrwt beam="1">  1        2 0.81703970E-01 0.24510768E+03</pdfrwt>
<pdfrwt beam="2">  1       -2 0.13379452E+00 0.24510768E+03</pdfrwt>
<totfact> 0.25153441E+01</totfact>
</mgrwt>
</event>
<event>
 4    1  0.1033139E-008  0.5525659E+03  0.7818608E-02  0.1000902E+00
          2   -1    0    0  501    0  0.00000000000E+00  0.00000000000E+00  0.22961525848E+04  0.22961525848E+04  0.25500000000E-02 0. -1.
         -2   -1    0    0    0  501 -0.00000000000E+00 -0.00000000000E+00 -0.51421663475E+03  0.51421663475E+03  0.25500000000E-02 0.  1.
    8880022    1    1    2    0    0  0.52897365889E+03 -0.46089837777E+02 -0.31896395991E+03  0.63801807630E+03  0.15294330000E+03 0.  0.
    8880022    1    1    2    0    0 -0.52897365889E+03  0.46089837777E+02  0.21008999100E+04  0.21723511433E+04  0.15294330000E+03 0.  0.
<mgrwt>
<rscale>  0 0.55256589E+03</rscale>
<asrwt>0</asrwt>
<pdfrwt beam="1">  1        2 0.35325424E+00 0.55256589E+03</pdfrwt>
<pdfrwt beam="2">  1       -2 0.79110253E-01 0.55256589E+03</pdfrwt>
<totfact> 0.70072623E+00</totfact>
</mgrwt>
</event>
<event>
 4    1  0.1033139E-008  0.9697770E+03  0.7818608E-02  0.9342328E-01
         -2   -1    0    0    0  501 -0.00000000000E+00  0.00000000000E+00  0.50968946071E+03  0.50968946072E+03  0.25500000000E-02 0.  1.
          2   -1    0    0  501    0  0.00000000000E+00 -0.00000000000E+00 -0.20149064892E+04  0.20149064892E+04  0.25500000000E-02 0. -1.
    8880022    1    1    2    0    0 -0.83018499603E+03 -0.47735598176E+03 -0.11189722490E+04  0.14807317137E+04  0.15294330000E+03 0.  0.
    8880022    1    1    2    0    0  0.83018499603E+03  0.47735598176E+03 -0.38624477953E+03  0.10438642362E+04  0.15294330000E+03 0.  0.
<mgrwt>
<rscale>  0 0.96977704E+03</rscale>
<asrwt>0</asrwt>
<pdfrwt beam="1">  1        2 0.30998561E+00 0.96977704E+03</pdfrwt>
<pdfrwt beam="2">  1       -2 0.78413764E-01 0.96977704E+03</pdfrwt>
<totfact> 0.95341801E+00</totfact>
</mgrwt>
</event>
<event>
 4    1  0.1033139E-008  0.5632195E+03  0.7818608E-02  0.9984796E-01
         -2   -1    0    0    0  501 -0.00000000000E+00  0.00000000000E+00  0.83428980585E+03  0.83428980586E+03  0.25500000000E-02 0.  1.
          2   -1    0    0  501    0  0.00000000000E+00 -0.00000000000E+00 -0.46526973633E+03  0.46526973634E+03  0.25500000000E-02 0. -1.
    8880022    1    1    2    0    0  0.23685348871E+03  0.48757042932E+03 -0.93296639524E+02  0.57089439884E+03  0.15294330000E+03 0.  0.
    8880022    1    1    2    0    0 -0.23685348871E+03 -0.48757042932E+03  0.46231670905E+03  0.72866514336E+03  0.15294330000E+03 0.  0.
<mgrwt>
<rscale>  0 0.56321945E+03</rscale>
<asrwt>0</asrwt>
<pdfrwt beam="1">  1        2 0.71579960E-01 0.56321945E+03</pdfrwt>
<pdfrwt beam="2">  1       -2 0.12835228E+00 0.56321945E+03</pdfrwt>
<totfact> 0.30887232E+01</totfact>
</mgrwt>
</event>
<event>
 4    1  0.1033139E-008  0.4839004E+03  0.7818608E-02  0.1018069E+00
         -2   -1    0    0    0  501 -0.00000000000E+00  0.00000000000E+00  0.46108262892E+03  0.46108262893E+03  0.25500000000E-02 0.  1.
          2   -1    0    0  501    0  0.00000000000E+00 -0.00000000000E+00 -0.25624450303E+04  0.25624450303E+04  0.25500000000E-02 0. -1.
    8880022    1    1    2    0    0  0.32378202728E+03  0.32547373113E+03 -0.24043738330E+04  0.24525849899E+04  0.15294330000E+03 0.  0.
    8880022    1    1    2    0    0 -0.32378202728E+03 -0.32547373113E+03  0.30301143168E+03  0.57094266927E+03  0.15294330000E+03 0.  0.
<mgrwt>
<rscale>  0 0.48390041E+03</rscale>
<asrwt>0</asrwt>
<pdfrwt beam="1">  1        2 0.39422230E+00 0.48390041E+03</pdfrwt>
<pdfrwt beam="2">  1       -2 0.70935790E-01 0.48390041E+03</pdfrwt>
<totfact> 0.64484910E+00</totfact>
</mgrwt>
</event>
<event>
 4    1  0.1033139E-008  0.7720547E+03  0.7818608E-02  0.9601372E-01
          2   -1    0    0  501    0  0.00000000000E+00  0.00000000000E+00  0.15091500349E+04  0.15091500349E+04  0.25500000000E-02 0. -1.
         -2   -1    0    0    0  501 -0.00000000000E+00 -0.00000000000E+00 -0.46575360190E+03  0.46575360190E+03  0.25500000000E-02 0.  1.
    8880022    1    1    2    0    0 -0.75457271321E+03 -0.57417821812E+02  0.90664903822E+03  0.11908320273E+04  0.15294330000E+03 0.  0.
    8880022    1    1    2    0    0  0.75457271321E+03  0.57417821812E+02  0.13674739478E+03  0.78407160947E+03  0.15294330000E+03 0.  0.
<mgrwt>
<rscale>  0 0.77205469E+03</rscale>
<asrwt>0</asrwt>
<pdfrwt beam="1">  1        2 0.23217693E+00 0.77205469E+03</pdfrwt>
<pdfrwt beam="2">  1       -2 0.71654401E-01 0.77205469E+03</pdfrwt>
<totfact> 0.22625296E+01</totfact>
</mgrwt>
</event>
<event>
 4    1  0.1033139E-008  0.8759484E+03  0.7818608E-02  0.9456157E-01
          2   -1    0    0  501    0  0.00000000000E+00  0.00000000000E+00  0.37403967996E+04  0.37403967996E+04  0.25500000000E-02 0. -1.
         -2   -1    0    0    0  501 -0.00000000000E+00 -0.00000000000E+00 -0.40155419818E+03  0.40155419818E+03  0.25500000000E-02 0.  1.
    8880022    1    1    2    0    0  0.62001051948E+03 -0.59956719941E+03  0.22099943932E+03  0.90339707552E+03  0.15294330000E+03 0.  0.
    8880022    1    1    2    0    0 -0.62001051948E+03  0.59956719941E+03  0.31178431621E+04  0.32385539223E+04  0.15294330000E+03 0.  0.
<mgrwt>
<rscale>  0 0.87594836E+03</rscale>
<asrwt>0</asrwt>
<pdfrwt beam="1">  1        2 0.57544566E+00 0.87594836E+03</pdfrwt>
<pdfrwt beam="2">  1       -2 0.61777569E-01 0.87594836E+03</pdfrwt>
<totfact> 0.14174267E+00</totfact>
</mgrwt>
</event>
<event>
 4    1  0.1033139E-008  0.7675130E+03  0.7818608E-02  0.9608269E-01
         -2   -1    0    0    0  501 -0.00000000000E+00  0.00000000000E+00  0.31855742621E+03  0.31855742622E+03  0.25500000000E-02 0.  1.
          2   -1    0    0  501    0  0.00000000000E+00 -0.00000000000E+00 -0.27248058171E+04  0.27248058171E+04  0.25500000000E-02 0. -1.
    8880022    1    1    2    0    0  0.36701810828E+03  0.65649238438E+03 -0.20657262514E+04  0.22037016907E+04  0.15294330000E+03 0.  0.
    8880022    1    1    2    0    0 -0.36701810828E+03 -0.65649238438E+03 -0.34052213946E+03  0.83966155267E+03  0.15294330000E+03 0.  0.
<mgrwt>
<rscale>  0 0.76751299E+03</rscale>
<asrwt>0</asrwt>
<pdfrwt beam="1">  1        2 0.41920088E+00 0.76751299E+03</pdfrwt>
<pdfrwt beam="2">  1       -2 0.49008836E-01 0.76751299E+03</pdfrwt>
<totfact> 0.10639106E+01</totfact>
</mgrwt>
</event>
<event>
 4    1  0.1033139E-008  0.6741010E+03  0.7818608E-02  0.9762578E-01
          2   -1    0    0  501    0  0.00000000000E+00  0.00000000000E+00  0.99211888891E+03  0.99211888892E+03  0.25500000000E-02 0. -1.
         -2   -1    0    0    0  501 -0.00000000000E+00 -0.00000000000E+00 -0.23737450560E+04  0.23737450560E+04  0.25500000000E-02 0.  1.
    8880022    1    1    2    0    0  0.65425733465E+03 -0.54477875598E+02  0.82106197343E+03  0.10623346535E+04  0.15294330000E+03 0. -1.
    8880022    1    1    2    0    0 -0.65425733465E+03  0.54477875598E+02 -0.22026881406E+04  0.23035292914E+04  0.15294330000E+03 0.  0.
<mgrwt>
<rscale>  0 0.67410100E+03</rscale>
<asrwt>0</asrwt>
<pdfrwt beam="1">  1        2 0.15263368E+00 0.67410100E+03</pdfrwt>
<pdfrwt beam="2">  1       -2 0.36519155E+00 0.67410100E+03</pdfrwt>
<totfact> 0.34343640E-01</totfact>
</mgrwt>
</event>
<event>
 4    1  0.1033139E-008  0.4336502E+03  0.7818608E-02  0.1032713E+00
         -2   -1    0    0    0  501 -0.00000000000E+00  0.00000000000E+00  0.16204606291E+03  0.16204606293E+03  0.25500000000E-02 0.  1.
          2   -1    0    0  501    0  0.00000000000E+00 -0.00000000000E+00 -0.26881928339E+04  0.26881928339E+04  0.25500000000E-02 0. -1.
    8880022    1    1    2    0    0  0.19991582432E+03 -0.35312114853E+03 -0.18873581709E+03  0.47294158627E+03  0.15294330000E+03 0.  0.
    8880022    1    1    2    0    0 -0.19991582432E+03  0.35312114853E+03 -0.23374109539E+04  0.23772973106E+04  0.15294330000E+03 0.  0.
<mgrwt>
<rscale>  0 0.43365025E+03</rscale>
<asrwt>0</asrwt>
<pdfrwt beam="1">  1        2 0.41356809E+00 0.43365025E+03</pdfrwt>
<pdfrwt beam="2">  1       -2 0.24930166E-01 0.43365025E+03</pdfrwt>
<totfact> 0.43174337E+01</totfact>
</mgrwt>
</event>
<event>
 4    1  0.1033139E-008  0.6314894E+03  0.7818608E-02  0.9842147E-01
         -2   -1    0    0    0  501 -0.00000000000E+00  0.00000000000E+00  0.12649213614E+04  0.12649213615E+04  0.25500000000E-02 0.  1.
          2   -1    0    0  501    0  0.00000000000E+00 -0.00000000000E+00 -0.19215155075E+04  0.19215155075E+04  0.25500000000E-02 0. -1.
    8880022    1    1    2    0    0  0.47472854149E+03 -0.38732425208E+03 -0.17849655140E+04  0.18933781459E+04  0.15294330000E+03 0.  0.
    8880022    1    1    2    0    0 -0.47472854149E+03  0.38732425208E+03  0.11283713679E+04  0.12930587231E+04  0.15294330000E+03 0.  0.
<mgrwt>
<rscale>  0 0.63148944E+03</rscale>
<asrwt>0</asrwt>
<pdfrwt beam="1">  1        2 0.29561777E+00 0.63148944E+03</pdfrwt>
<pdfrwt beam="2">  1       -2 0.19460329E+00 0.63148944E+03</pdfrwt>
<totfact> 0.11396327E+00</totfact>
</mgrwt>
</event>
<event>
 4    1  0.1033139E-008  0.4728011E+03  0.7818608E-02  0.1021133E+00
         -2   -1    0    0    0  501 -0.00000000000E+00  0.00000000000E+00  0.34309353821E+03  0.34309353822E+03  0.25500000000E-02 0.  1.
          2   -1    0    0  501    0  0.00000000000E+00 -0.00000000000E+00 -0.32692517728E+04  0.32692517728E+04  0.25500000000E-02 0. -1.
    8880022    1    1    2    0    0 -0.10899627521E+03 -0.43389977484E+03 -0.30792809062E+04  0.31153670337E+04  0.15294330000E+03 0. -1.
    8880022    1    1    2    0    0  0.10899627521E+03  0.43389977484E+03  0.15312267153E+03  0.49697827736E+03  0.15294330000E+03 0.  0.
<mgrwt>
<rscale>  0 0.47280107E+03</rscale>
<asrwt>0</asrwt>
<pdfrwt beam="1">  1        2 0.50296179E+00 0.47280107E+03</pdfrwt>
<pdfrwt beam="2">  1       -2 0.52783623E-01 0.47280107E+03</pdfrwt>
<totfact> 0.45694150E+00</totfact>
</mgrwt>
</event>
<event>
 4    1  0.1033139E-008  0.9925409E+03  0.7818608E-02  0.9316764E-01
          2   -1    0    0  501    0  0.00000000000E+00  0.00000000000E+00  0.72363417059E+03  0.72363417059E+03  0.25500000000E-02 0. -1.
         -2   -1    0    0    0  501 -0.00000000000E+00 -0.00000000000E+00 -0.17960071453E+04  0.17960071453E+04  0.25500000000E-02 0.  1.
    8880022    1    1    2    0    0  0.74794614179E+03  0.63428886328E+03 -0.11559351994E+04  0.15235890625E+04  0.15294330000E+03 0.  0.
    8880022    1    1    2    0    0 -0.74794614179E+03 -0.63428886328E+03  0.83562224682E+02  0.99605225341E+03  0.15294330000E+03 0.  0.
<mgrwt>
<rscale>  0 0.99254090E+03</rscale>
<asrwt>0</asrwt>
<pdfrwt beam="1">  1        2 0.11132833E+00 0.99254090E+03</pdfrwt>
<pdfrwt beam="2">  1       -2 0.27630879E+00 0.99254090E+03</pdfrwt>
<totfact> 0.17461532E+00</totfact>
</mgrwt>
</event>
<event>
 4    1  0.1033139E-008  0.9710740E+03  0.7818608E-02  0.9340852E-01
          2   -1    0    0  501    0  0.00000000000E+00  0.00000000000E+00  0.17210326077E+04  0.17210326077E+04  0.25500000000E-02 0. -1.
         -2   -1    0    0    0  501 -0.00000000000E+00 -0.00000000000E+00 -0.61572253553E+03  0.61572253554E+03  0.25500000000E-02 0.  1.
    8880022    1    1    2    0    0  0.40542420480E+03  0.86903638595E+03  0.94037680136E+03  0.13517740963E+04  0.15294330000E+03 0.  0.
    8880022    1    1    2    0    0 -0.40542420480E+03 -0.86903638595E+03  0.16493327081E+03  0.98498104692E+03  0.15294330000E+03 0.  1.
<mgrwt>
<rscale>  0 0.97107398E+03</rscale>
<asrwt>0</asrwt>
<pdfrwt beam="1">  1        2 0.26477424E+00 0.97107398E+03</pdfrwt>
<pdfrwt beam="2">  1       -2 0.94726546E-01 0.97107398E+03</pdfrwt>
<totfact> 0.89651054E+00</totfact>
</mgrwt>
</event>
<event>
 4    1  0.1033139E-008  0.3694496E+03  0.7818608E-02  0.1054904E+00
         -2   -1    0    0    0  501 -0.00000000000E+00  0.00000000000E+00  0.17278819170E+03  0.17278819172E+03  0.25500000000E-02 0.  1.
          2   -1    0    0  501    0  0.00000000000E+00 -0.00000000000E+00 -0.29501132473E+04  0.29501132473E+04  0.25500000000E-02 0. -1.
    8880022    1    1    2    0    0 -0.32353120511E+03 -0.91809051652E+02 -0.52519875984E+02  0.37316394927E+03  0.15294330000E+03 0.  0.
    8880022    1    1    2    0    0  0.32353120511E+03  0.91809051652E+02 -0.27248051796E+04  0.27497374898E+04  0.15294330000E+03 0.  0.
<mgrwt>
<rscale>  0 0.36944958E+03</rscale>
<asrwt>0</asrwt>
<pdfrwt beam="1">  1        2 0.45386354E+00 0.36944958E+03</pdfrwt>
<pdfrwt beam="2">  1       -2 0.26582801E-01 0.36944958E+03</pdfrwt>
<totfact> 0.27603204E+01</totfact>
</mgrwt>
</event>
<event>
 4    1  0.1033139E-008  0.1239346E+04  0.7818608E-02  0.9079097E-01
          2   -1    0    0  501    0  0.00000000000E+00  0.00000000000E+00  0.17329963948E+04  0.17329963948E+04  0.25500000000E-02 0. -1.
         -2   -1    0    0    0  501 -0.00000000000E+00 -0.00000000000E+00 -0.15033560283E+04  0.15033560283E+04  0.25500000000E-02 0.  1.
    8880022    1    1    2    0    0  0.55962952728E+03 -0.10951722847E+04  0.11515180802E+04  0.16917367062E+04  0.15294330000E+03 0.  0.
    8880022    1    1    2    0    0 -0.55962952728E+03  0.10951722847E+04 -0.92187771373E+03  0.15446157169E+04  0.15294330000E+03 0.  0.
<mgrwt>
<rscale>  0 0.12393463E+04</rscale>
<asrwt>0</asrwt>
<pdfrwt beam="1">  1        2 0.26661483E+00 0.12393463E+04</pdfrwt>
<pdfrwt beam="2">  1       -2 0.23128554E+00 0.12393463E+04</pdfrwt>
<totfact> 0.76233600E-01</totfact>
</mgrwt>
</event>
<event>
 4    1  0.1033139E-008  0.9693220E+03  0.7818608E-02  0.9342847E-01
          2   -1    0    0  501    0  0.00000000000E+00  0.00000000000E+00  0.25015778370E+04  0.25015778370E+04  0.25500000000E-02 0. -1.
         -2   -1    0    0    0  501 -0.00000000000E+00 -0.00000000000E+00 -0.87143934959E+03  0.87143934959E+03  0.25500000000E-02 0.  1.
    8880022    1    1    2    0    0  0.70404439319E+03  0.64847120292E+03 -0.45709093083E+03  0.10716889384E+04  0.15294330000E+03 0.  0.
    8880022    1    1    2    0    0 -0.70404439319E+03 -0.64847120292E+03  0.20872294183E+04  0.23013282482E+04  0.15294330000E+03 0.  0.
<mgrwt>
<rscale>  0 0.96932196E+03</rscale>
<asrwt>0</asrwt>
<pdfrwt beam="1">  1        2 0.38485812E+00 0.96932196E+03</pdfrwt>
<pdfrwt beam="2">  1       -2 0.13406759E+00 0.96932196E+03</pdfrwt>
<totfact> 0.14105068E+00</totfact>
</mgrwt>
</event>
<event>
 4    1  0.1033139E-008  0.8592259E+03  0.7818608E-02  0.9478037E-01
         -2   -1    0    0    0  501 -0.00000000000E+00  0.00000000000E+00  0.28500430377E+03  0.28500430378E+03  0.25500000000E-02 0.  1.
          2   -1    0    0  501    0  0.00000000000E+00 -0.00000000000E+00 -0.27093319030E+04  0.27093319030E+04  0.25500000000E-02 0. -1.
    8880022    1    1    2    0    0 -0.73328490621E+03 -0.42091654983E+03 -0.89845472761E+03  0.12431773993E+04  0.15294330000E+03 0.  0.
    8880022    1    1    2    0    0  0.73328490621E+03  0.42091654983E+03 -0.15258728717E+04  0.17511588075E+04  0.15294330000E+03 0.  0.
<mgrwt>
<rscale>  0 0.85922590E+03</rscale>
<asrwt>0</asrwt>
<pdfrwt beam="1">  1        2 0.41682028E+00 0.85922590E+03</pdfrwt>
<pdfrwt beam="2">  1       -2 0.43846818E-01 0.85922590E+03</pdfrwt>
<totfact> 0.13391020E+01</totfact>
</mgrwt>
</event>
<event>
 4    1  0.1033139E-008  0.5940981E+03  0.7818608E-02  0.9917727E-01
         -2   -1    0    0    0  501 -0.00000000000E+00  0.00000000000E+00  0.16792191768E+04  0.16792191768E+04  0.25500000000E-02 0.  1.
          2   -1    0    0  501    0  0.00000000000E+00 -0.00000000000E+00 -0.25218557523E+04  0.25218557523E+04  0.25500000000E-02 0. -1.
    8880022    1    1    2    0    0 -0.49815684584E+03 -0.28530803373E+03 -0.24324150685E+04  0.25039160600E+04  0.15294330000E+03 0. -1.
    8880022    1    1    2    0    0  0.49815684584E+03  0.28530803373E+03  0.15897784930E+04  0.16971588691E+04  0.15294330000E+03 0.  0.
<mgrwt>
<rscale>  0 0.59409811E+03</rscale>
<asrwt>0</asrwt>
<pdfrwt beam="1">  1        2 0.38797781E+00 0.59409811E+03</pdfrwt>
<pdfrwt beam="2">  1       -2 0.25834141E+00 0.59409811E+03</pdfrwt>
<totfact> 0.21660353E-01</totfact>
</mgrwt>
</event>
<event>
 4    1  0.1033139E-008  0.2198203E+04  0.7818608E-02  0.8519176E-01
          2   -1    0    0  501    0  0.00000000000E+00  0.00000000000E+00  0.19663945309E+04  0.19663945309E+04  0.25500000000E-02 0. -1.
         -2   -1    0    0    0  501 -0.00000000000E+00 -0.00000000000E+00 -0.27439253545E+04  0.27439253545E+04  0.25500000000E-02 0.  1.
    8880022    1    1    2    0    0 -0.67438249130E+03 -0.20866034683E+04 -0.11499013377E+04  0.24808003785E+04  0.15294330000E+03 0.  0.
    8880022    1    1    2    0    0  0.67438249130E+03  0.20866034683E+04  0.37237051412E+03  0.22295195069E+04  0.15294330000E+03 0.  0.
<mgrwt>
<rscale>  0 0.21982032E+04</rscale>
<asrwt>0</asrwt>
<pdfrwt beam="1">  1        2 0.30252224E+00 0.21982032E+04</pdfrwt>
<pdfrwt beam="2">  1       -2 0.42214236E+00 0.21982032E+04</pdfrwt>
<totfact> 0.32141998E-02</totfact>
</mgrwt>
</event>
<event>
 4    1  0.1243151E-008  0.1649905E+04  0.7818608E-02  0.8790462E-01
          2   -1    0    0  501    0  0.00000000000E+00  0.00000000000E+00  0.27950116548E+04  0.27950116548E+04  0.25500000000E-02 0. -1.
         -2   -1    0    0    0  501 -0.00000000000E+00 -0.00000000000E+00 -0.17231797554E+04  0.17231797554E+04  0.25500000000E-02 0.  1.
    8880022    1    1    2    0    0 -0.15036127320E+04 -0.66177412078E+03  0.20255454641E+04  0.26124743663E+04  0.15294330000E+03 0.  0.
    8880022    1    1    2    0    0  0.15036127320E+04  0.66177412078E+03 -0.95371356478E+03  0.19057170439E+04  0.15294330000E+03 0.  0.
<mgrwt>
<rscale>  0 0.16499054E+04</rscale>
<asrwt>0</asrwt>
<pdfrwt beam="1">  1        2 0.43000179E+00 0.16499054E+04</pdfrwt>
<pdfrwt beam="2">  1       -2 0.26510458E+00 0.16499054E+04</pdfrwt>
<totfact> 0.11143426E-01</totfact>
</mgrwt>
</event>
<event>
 4    1  0.1033139E-008  0.5643454E+03  0.7818608E-02  0.9982270E-01
         -2   -1    0    0    0  501 -0.00000000000E+00  0.00000000000E+00  0.26075653964E+03  0.26075653966E+03  0.25500000000E-02 0.  1.
          2   -1    0    0  501    0  0.00000000000E+00 -0.00000000000E+00 -0.13568402007E+04  0.13568402007E+04  0.25500000000E-02 0. -1.
    8880022    1    1    2    0    0 -0.34074502777E+03 -0.42306844000E+03 -0.80358477023E+03  0.98195428347E+03  0.15294330000E+03 0.  0.
    8880022    1    1    2    0    0  0.34074502777E+03  0.42306844000E+03 -0.29249889087E+03  0.63564245693E+03  0.15294330000E+03 0.  0.
<mgrwt>
<rscale>  0 0.56434540E+03</rscale>
<asrwt>0</asrwt>
<pdfrwt beam="1">  1        2 0.20874464E+00 0.56434540E+03</pdfrwt>
<pdfrwt beam="2">  1       -2 0.40116391E-01 0.56434540E+03</pdfrwt>
<totfact> 0.93370441E+01</totfact>
</mgrwt>
</event>
<event>
 4    1  0.1033139E-008  0.1110982E+04  0.7818608E-02  0.9194553E-01
          2   -1    0    0  501    0  0.00000000000E+00  0.00000000000E+00  0.17542609124E+04  0.17542609124E+04  0.25500000000E-02 0. -1.
         -2   -1    0    0    0  501 -0.00000000000E+00 -0.00000000000E+00 -0.14602316109E+04  0.14602316109E+04  0.25500000000E-02 0.  1.
    8880022    1    1    2    0    0 -0.81907133758E+03  0.73485543430E+03  0.13039694797E+04  0.17130728012E+04  0.15294330000E+03 0.  0.
    8880022    1    1    2    0    0  0.81907133758E+03 -0.73485543430E+03 -0.10099401781E+04  0.15014197220E+04  0.15294330000E+03 0.  0.
<mgrwt>
<rscale>  0 0.11109825E+04</rscale>
<asrwt>0</asrwt>
<pdfrwt beam="1">  1        2 0.26988629E+00 0.11109825E+04</pdfrwt>
<pdfrwt beam="2">  1       -2 0.22465102E+00 0.11109825E+04</pdfrwt>
<totfact> 0.82983172E-01</totfact>
</mgrwt>
</event>
<event>
 4    1  0.1033139E-008  0.4452371E+03  0.7818608E-02  0.1029152E+00
         -2   -1    0    0    0  501 -0.00000000000E+00  0.00000000000E+00  0.85021015654E+03  0.85021015654E+03  0.25500000000E-02 0.  1.
          2   -1    0    0  501    0  0.00000000000E+00 -0.00000000000E+00 -0.12648266765E+04  0.12648266765E+04  0.25500000000E-02 0. -1.
    8880022    1    1    2    0    0  0.34385975312E+03  0.23791775072E+03  0.74777641185E+03  0.87029052682E+03  0.15294330000E+03 0.  0.
    8880022    1    1    2    0    0 -0.34385975312E+03 -0.23791775072E+03 -0.11623929318E+04  0.12447463062E+04  0.15294330000E+03 0.  0.
<mgrwt>
<rscale>  0 0.44523706E+03</rscale>
<asrwt>0</asrwt>
<pdfrwt beam="1">  1        2 0.19458872E+00 0.44523706E+03</pdfrwt>
<pdfrwt beam="2">  1       -2 0.13080156E+00 0.44523706E+03</pdfrwt>
<totfact> 0.79815651E+00</totfact>
</mgrwt>
</event>
<event>
 4    1  0.1033139E-008  0.1042185E+04  0.7818608E-02  0.9263450E-01
         -2   -1    0    0    0  501 -0.00000000000E+00  0.00000000000E+00  0.60412960815E+03  0.60412960815E+03  0.25500000000E-02 0.  1.
          2   -1    0    0  501    0  0.00000000000E+00 -0.00000000000E+00 -0.26118688048E+04  0.26118688048E+04  0.25500000000E-02 0. -1.
    8880022    1    1    2    0    0  0.55724223323E+03 -0.86731692290E+03 -0.19015481316E+04  0.21684175108E+04  0.15294330000E+03 0.  0.
    8880022    1    1    2    0    0 -0.55724223323E+03  0.86731692290E+03 -0.10619106503E+03  0.10475809022E+04  0.15294330000E+03 0.  0.
<mgrwt>
<rscale>  0 0.10421848E+04</rscale>
<asrwt>0</asrwt>
<pdfrwt beam="1">  1        2 0.40182596E+00 0.10421848E+04</pdfrwt>
<pdfrwt beam="2">  1       -2 0.92943018E-01 0.10421848E+04</pdfrwt>
<totfact> 0.29533165E+00</totfact>
</mgrwt>
</event>
<event>
 4    1  0.1033139E-008  0.8943685E+03  0.7818608E-02  0.9432649E-01
          2   -1    0    0  501    0  0.00000000000E+00  0.00000000000E+00  0.16941675966E+04  0.16941675966E+04  0.25500000000E-02 0. -1.
         -2   -1    0    0    0  501 -0.00000000000E+00 -0.00000000000E+00 -0.54790254323E+03  0.54790254324E+03  0.25500000000E-02 0.  1.
    8880022    1    1    2    0    0 -0.78595247038E+03  0.39847460255E+03  0.15628543027E+03  0.90792074726E+03  0.15294330000E+03 0.  0.
    8880022    1    1    2    0    0  0.78595247038E+03 -0.39847460255E+03  0.98997962314E+03  0.13341493926E+04  0.15294330000E+03 0.  0.
<mgrwt>
<rscale>  0 0.89436846E+03</rscale>
<asrwt>0</asrwt>
<pdfrwt beam="1">  1        2 0.26064117E+00 0.89436846E+03</pdfrwt>
<pdfrwt beam="2">  1       -2 0.84292699E-01 0.89436846E+03</pdfrwt>
<totfact> 0.12252635E+01</totfact>
</mgrwt>
</event>
<event>
 4    1  0.1033139E-008  0.5536158E+03  0.7818608E-02  0.1000660E+00
          2   -1    0    0  501    0  0.00000000000E+00  0.00000000000E+00  0.16132495996E+04  0.16132495996E+04  0.25500000000E-02 0. -1.
         -2   -1    0    0    0  501 -0.00000000000E+00 -0.00000000000E+00 -0.26920451823E+03  0.26920451824E+03  0.25500000000E-02 0.  1.
    8880022    1    1    2    0    0 -0.20605340306E+03 -0.49055153099E+03  0.16143051919E+03  0.57667172204E+03  0.15294330000E+03 0.  0.
    8880022    1    1    2    0    0  0.20605340306E+03  0.49055153099E+03  0.11826145622E+04  0.13057823958E+04  0.15294330000E+03 0.  0.
<mgrwt>
<rscale>  0 0.55361581E+03</rscale>
<asrwt>0</asrwt>
<pdfrwt beam="1">  1        2 0.24819224E+00 0.55361581E+03</pdfrwt>
<pdfrwt beam="2">  1       -2 0.41416080E-01 0.55361581E+03</pdfrwt>
<totfact> 0.63391303E+01</totfact>
</mgrwt>
</event>
<event>
 4    1  0.1033139E-008  0.8748716E+03  0.7818608E-02  0.9457550E-01
          2   -1    0    0  501    0  0.00000000000E+00  0.00000000000E+00  0.76464290125E+03  0.76464290125E+03  0.25500000000E-02 0. -1.
         -2   -1    0    0    0  501 -0.00000000000E+00 -0.00000000000E+00 -0.13912672033E+04  0.13912672033E+04  0.25500000000E-02 0.  1.
    8880022    1    1    2    0    0 -0.16117051791E+02 -0.86124845280E+03 -0.88424058248E+03  0.12438977922E+04  0.15294330000E+03 0.  0.
    8880022    1    1    2    0    0  0.16117051791E+02  0.86124845280E+03  0.25761628045E+03  0.91201231229E+03  0.15294330000E+03 0.  0.
<mgrwt>
<rscale>  0 0.87487160E+03</rscale>
<asrwt>0</asrwt>
<pdfrwt beam="1">  1        2 0.11763737E+00 0.87487160E+03</pdfrwt>
<pdfrwt beam="2">  1       -2 0.21404111E+00 0.87487160E+03</pdfrwt>
<totfact> 0.39747320E+00</totfact>
</mgrwt>
</event>
<event>
 4    1  0.1033139E-008  0.7822830E+03  0.7818608E-02  0.9586022E-01
         -2   -1    0    0    0  501 -0.00000000000E+00  0.00000000000E+00  0.49351206879E+03  0.49351206880E+03  0.25500000000E-02 0.  1.
          2   -1    0    0  501    0  0.00000000000E+00 -0.00000000000E+00 -0.15715094719E+04  0.15715094719E+04  0.25500000000E-02 0. -1.
    8880022    1    1    2    0    0 -0.74746475450E+03 -0.17283367710E+03 -0.64791118431E+02  0.78496151574E+03  0.15294330000E+03 0. -1.
    8880022    1    1    2    0    0  0.74746475450E+03  0.17283367710E+03 -0.10132062846E+04  0.12800600249E+04  0.15294330000E+03 0.  0.
<mgrwt>
<rscale>  0 0.78228300E+03</rscale>
<asrwt>0</asrwt>
<pdfrwt beam="1">  1        2 0.24177069E+00 0.78228300E+03</pdfrwt>
<pdfrwt beam="2">  1       -2 0.75924934E-01 0.78228300E+03</pdfrwt>
<totfact> 0.18361373E+01</totfact>
</mgrwt>
</event>
<event>
 4    1  0.1033139E-008  0.9868130E+03  0.7818608E-02  0.9323127E-01
          2   -1    0    0  501    0  0.00000000000E+00  0.00000000000E+00  0.38940579619E+04  0.38940579619E+04  0.25500000000E-02 0. -1.
         -2   -1    0    0    0  501 -0.00000000000E+00 -0.00000000000E+00 -0.30113518818E+03  0.30113518819E+03  0.25500000000E-02 0.  1.
    8880022    1    1    2    0    0  0.17405393999E+03 -0.95922550204E+03  0.93270837424E+03  0.13578456842E+04  0.15294330000E+03 0.  0.
    8880022    1    1    2    0    0 -0.17405393999E+03  0.95922550204E+03  0.26602143995E+04  0.28373474659E+04  0.15294330000E+03 0.  0.
<mgrwt>
<rscale>  0 0.98681305E+03</rscale>
<asrwt>0</asrwt>
<pdfrwt beam="1">  1        2 0.59908583E+00 0.98681305E+03</pdfrwt>
<pdfrwt beam="2">  1       -2 0.46328491E-01 0.98681305E+03</pdfrwt>
<totfact> 0.19330925E+00</totfact>
</mgrwt>
</event>
<event>
 4    1  0.1033139E-008  0.3369927E+03  0.7818608E-02  0.1068084E+00
          2   -1    0    0  501    0  0.00000000000E+00  0.00000000000E+00  0.11776472382E+04  0.11776472382E+04  0.25500000000E-02 0. -1.
         -2   -1    0    0    0  501 -0.00000000000E+00 -0.00000000000E+00 -0.23322586747E+03  0.23322586749E+03  0.25500000000E-02 0.  1.
    8880022    1    1    2    0    0 -0.42368995916E+02 -0.29728315265E+03 -0.68047462449E+02  0.34379429143E+03  0.15294330000E+03 0.  0.
    8880022    1    1    2    0    0  0.42368995916E+02  0.29728315265E+03  0.10124688331E+04  0.10670788142E+04  0.15294330000E+03 0.  0.
<mgrwt>
<rscale>  0 0.33699267E+03</rscale>
<asrwt>0</asrwt>
<pdfrwt beam="1">  1        2 0.18117650E+00 0.33699267E+03</pdfrwt>
<pdfrwt beam="2">  1       -2 0.35880903E-01 0.33699267E+03</pdfrwt>
<totfact> 0.15082758E+02</totfact>
</mgrwt>
</event>
<event>
 4    1  0.1033139E-008  0.7808567E+03  0.7818608E-02  0.9588147E-01
         -2   -1    0    0    0  501 -0.00000000000E+00  0.00000000000E+00  0.46631352343E+03  0.46631352344E+03  0.25500000000E-02 0.  1.
          2   -1    0    0  501    0  0.00000000000E+00 -0.00000000000E+00 -0.22163013300E+04  0.22163013300E+04  0.25500000000E-02 0. -1.
    8880022    1    1    2    0    0  0.36817647546E+03  0.67141021779E+03 -0.17338726221E+04  0.19015918385E+04  0.15294330000E+03 0.  0.
    8880022    1    1    2    0    0 -0.36817647546E+03 -0.67141021779E+03 -0.16115184458E+02  0.78102301491E+03  0.15294330000E+03 0.  0.
<mgrwt>
<rscale>  0 0.78085674E+03</rscale>
<asrwt>0</asrwt>
<pdfrwt beam="1">  1        2 0.34096943E+00 0.78085674E+03</pdfrwt>
<pdfrwt beam="2">  1       -2 0.71740543E-01 0.78085674E+03</pdfrwt>
<totfact> 0.92260291E+00</totfact>
</mgrwt>
</event>
<event>
 4    1  0.1033139E-008  0.1194488E+04  0.7818608E-02  0.9117695E-01
          2   -1    0    0  501    0  0.00000000000E+00  0.00000000000E+00  0.33490757909E+04  0.33490757909E+04  0.25500000000E-02 0. -1.
         -2   -1    0    0    0  501 -0.00000000000E+00 -0.00000000000E+00 -0.53246774080E+03  0.53246774081E+03  0.25500000000E-02 0.  1.
    8880022    1    1    2    0    0  0.59608413111E+03  0.10237640563E+04  0.22760233636E+04  0.25704247001E+04  0.15294330000E+03 0.  0.
    8880022    1    1    2    0    0 -0.59608413111E+03 -0.10237640563E+04  0.54058468656E+03  0.13111188316E+04  0.15294330000E+03 0.  0.
<mgrwt>
<rscale>  0 0.11944877E+04</rscale>
<asrwt>0</asrwt>
<pdfrwt beam="1">  1        2 0.51524244E+00 0.11944877E+04</pdfrwt>
<pdfrwt beam="2">  1       -2 0.81918113E-01 0.11944877E+04</pdfrwt>
<totfact> 0.13536977E+00</totfact>
</mgrwt>
</event>
<event>
 4    1  0.1033139E-008  0.9933648E+03  0.7818608E-02  0.9315852E-01
          2   -1    0    0  501    0  0.00000000000E+00  0.00000000000E+00  0.18529721029E+04  0.18529721029E+04  0.25500000000E-02 0. -1.
         -2   -1    0    0    0  501 -0.00000000000E+00 -0.00000000000E+00 -0.11760939815E+04  0.11760939815E+04  0.25500000000E-02 0.  1.
    8880022    1    1    2    0    0 -0.49452112732E+03  0.84783895494E+03 -0.78190573092E+03  0.12641796802E+04  0.15294330000E+03 0.  0.
    8880022    1    1    2    0    0  0.49452112732E+03 -0.84783895494E+03  0.14587838523E+04  0.17648864042E+04  0.15294330000E+03 0.  0.
<mgrwt>
<rscale>  0 0.99336483E+03</rscale>
<asrwt>0</asrwt>
<pdfrwt beam="1">  1        2 0.28507263E+00 0.99336483E+03</pdfrwt>
<pdfrwt beam="2">  1       -2 0.18093754E+00 0.99336483E+03</pdfrwt>
<totfact> 0.14361647E+00</totfact>
</mgrwt>
</event>
<event>
 4    1  0.1033139E-008  0.5150682E+03  0.7818608E-02  0.1009919E+00
          2   -1    0    0  501    0  0.00000000000E+00  0.00000000000E+00  0.16853538497E+04  0.16853538497E+04  0.25500000000E-02 0. -1.
         -2   -1    0    0    0  501 -0.00000000000E+00 -0.00000000000E+00 -0.10276432306E+04  0.10276432306E+04  0.25500000000E-02 0.  1.
    8880022    1    1    2    0    0  0.48585074563E+03 -0.76502869707E+02  0.15771451208E+04  0.16591208579E+04  0.15294330000E+03 0.  0.
    8880022    1    1    2    0    0 -0.48585074563E+03  0.76502869707E+02 -0.91943450172E+03  0.10538762224E+04  0.15294330000E+03 0.  0.
<mgrwt>
<rscale>  0 0.51506824E+03</rscale>
<asrwt>0</asrwt>
<pdfrwt beam="1">  1        2 0.25928520E+00 0.51506824E+03</pdfrwt>
<pdfrwt beam="2">  1       -2 0.15809896E+00 0.51506824E+03</pdfrwt>
<totfact> 0.28147205E+00</totfact>
</mgrwt>
</event>
<event>
 4    1  0.1033139E-008  0.8710596E+03  0.7818608E-02  0.9462499E-01
          2   -1    0    0  501    0  0.00000000000E+00  0.00000000000E+00  0.16735877523E+04  0.16735877523E+04  0.25500000000E-02 0. -1.
         -2   -1    0    0    0  501 -0.00000000000E+00 -0.00000000000E+00 -0.69555205274E+03  0.69555205274E+03  0.25500000000E-02 0.  1.
    8880022    1    1    2    0    0  0.52919336723E+03  0.67476487076E+03 -0.20997379348E+03  0.89600998750E+03  0.15294330000E+03 0.  0.
    8880022    1    1    2    0    0 -0.52919336723E+03 -0.67476487076E+03  0.11880094930E+04  0.14731298175E+04  0.15294330000E+03 0.  0.
<mgrwt>
<rscale>  0 0.87105964E+03</rscale>
<asrwt>0</asrwt>
<pdfrwt beam="1">  1        2 0.25747504E+00 0.87105964E+03</pdfrwt>
<pdfrwt beam="2">  1       -2 0.10700801E+00 0.87105964E+03</pdfrwt>
<totfact> 0.72067467E+00</totfact>
</mgrwt>
</event>
<event>
 4    1  0.1033139E-008  0.7304638E+03  0.7818608E-02  0.9666508E-01
         -2   -1    0    0    0  501 -0.00000000000E+00  0.00000000000E+00  0.93925264974E+03  0.93925264974E+03  0.25500000000E-02 0.  1.
          2   -1    0    0  501    0  0.00000000000E+00 -0.00000000000E+00 -0.96114935598E+03  0.96114935599E+03  0.25500000000E-02 0. -1.
    8880022    1    1    2    0    0  0.30575527552E+03  0.64552257029E+03  0.59669773509E+03  0.94319961692E+03  0.15294330000E+03 0.  0.
    8880022    1    1    2    0    0 -0.30575527552E+03 -0.64552257029E+03 -0.61859444134E+03  0.95720238881E+03  0.15294330000E+03 0.  0.
<mgrwt>
<rscale>  0 0.73046378E+03</rscale>
<asrwt>0</asrwt>
<pdfrwt beam="1">  1        2 0.14786913E+00 0.73046378E+03</pdfrwt>
<pdfrwt beam="2">  1       -2 0.14450041E+00 0.73046378E+03</pdfrwt>
<totfact> 0.90038334E+00</totfact>
</mgrwt>
</event>
<event>
 4    1  0.1033139E-008  0.5356045E+03  0.7818608E-02  0.1004882E+00
         -2   -1    0    0    0  501 -0.00000000000E+00  0.00000000000E+00  0.78706679929E+03  0.78706679930E+03  0.25500000000E-02 0.  1.
          2   -1    0    0  501    0  0.00000000000E+00 -0.00000000000E+00 -0.83630681897E+03  0.83630681897E+03  0.25500000000E-02 0. -1.
    8880022    1    1    2    0    0 -0.10555722647E+03 -0.50233274617E+03 -0.63429134315E+03  0.83017930409E+03  0.15294330000E+03 0.  0.
    8880022    1    1    2    0    0  0.10555722647E+03  0.50233274617E+03  0.58505132347E+03  0.79319431418E+03  0.15294330000E+03 0.  0.
<mgrwt>
<rscale>  0 0.53560449E+03</rscale>
<asrwt>0</asrwt>
<pdfrwt beam="1">  1        2 0.12866259E+00 0.53560449E+03</pdfrwt>
<pdfrwt beam="2">  1       -2 0.12108720E+00 0.53560449E+03</pdfrwt>
<totfact> 0.17548925E+01</totfact>
</mgrwt>
</event>
<event>
 4    1  0.1033139E-008  0.5496131E+03  0.7818608E-02  0.1001584E+00
         -2   -1    0    0    0  501 -0.00000000000E+00  0.00000000000E+00  0.48592810330E+03  0.48592810331E+03  0.25500000000E-02 0.  1.
          2   -1    0    0  501    0  0.00000000000E+00 -0.00000000000E+00 -0.20018961558E+04  0.20018961558E+04  0.25500000000E-02 0. -1.
    8880022    1    1    2    0    0 -0.18640622744E+03 -0.49389839649E+03  0.27489167182E+03  0.61452419963E+03  0.15294330000E+03 0.  1.
    8880022    1    1    2    0    0  0.18640622744E+03  0.49389839649E+03 -0.17908597243E+04  0.18733000595E+04  0.15294330000E+03 0.  0.
<mgrwt>
<rscale>  0 0.54961310E+03</rscale>
<asrwt>0</asrwt>
<pdfrwt beam="1">  1        2 0.30798402E+00 0.54961310E+03</pdfrwt>
<pdfrwt beam="2">  1       -2 0.74758171E-01 0.54961310E+03</pdfrwt>
<totfact> 0.11495182E+01</totfact>
</mgrwt>
</event>
<event>
 4    1  0.1033139E-008  0.8344279E+03  0.7818608E-02  0.9511479E-01
         -2   -1    0    0    0  501 -0.00000000000E+00  0.00000000000E+00  0.40306037380E+04  0.40306037381E+04  0.25500000000E-02 0.  1.
          2   -1    0    0  501    0  0.00000000000E+00 -0.00000000000E+00 -0.25363654749E+03  0.25363654750E+03  0.25500000000E-02 0. -1.
    8880022    1    1    2    0    0 -0.82028205000E+03 -0.39451925758E+01  0.67875669434E+03  0.10756302846E+04  0.15294330000E+03 0.  0.
    8880022    1    1    2    0    0  0.82028205000E+03  0.39451925758E+01  0.30982104962E+04  0.32086100009E+04  0.15294330000E+03 0.  0.
<mgrwt>
<rscale>  0 0.83442786E+03</rscale>
<asrwt>0</asrwt>
<pdfrwt beam="1">  1        2 0.39021007E-01 0.83442786E+03</pdfrwt>
<pdfrwt beam="2">  1       -2 0.62009288E+00 0.83442786E+03</pdfrwt>
<totfact> 0.56903645E-02</totfact>
</mgrwt>
</event>
<event>
 4    1  0.1033139E-008  0.1206064E+04  0.7818608E-02  0.9107565E-01
         -2   -1    0    0    0  501 -0.00000000000E+00  0.00000000000E+00  0.12647305943E+04  0.12647305943E+04  0.25500000000E-02 0.  1.
          2   -1    0    0  501    0  0.00000000000E+00 -0.00000000000E+00 -0.23709475902E+04  0.23709475902E+04  0.25500000000E-02 0. -1.
    8880022    1    1    2    0    0  0.44067758353E+03 -0.11122057501E+04  0.75132487547E+03  0.14209430265E+04  0.15294330000E+03 0.  0.
    8880022    1    1    2    0    0 -0.44067758353E+03  0.11122057501E+04 -0.18575418713E+04  0.22147351580E+04  0.15294330000E+03 0.  0.
<mgrwt>
<rscale>  0 0.12060639E+04</rscale>
<asrwt>0</asrwt>
<pdfrwt beam="1">  1        2 0.36476117E+00 0.12060639E+04</pdfrwt>
<pdfrwt beam="2">  1       -2 0.19457394E+00 0.12060639E+04</pdfrwt>
<totfact> 0.58096521E-01</totfact>
</mgrwt>
</event>
<event>
 4    1  0.1033139E-008  0.7013367E+03  0.7818608E-02  0.9714949E-01
         -2   -1    0    0    0  501 -0.00000000000E+00  0.00000000000E+00  0.50708720424E+03  0.50708720424E+03  0.25500000000E-02 0.  1.
          2   -1    0    0  501    0  0.00000000000E+00 -0.00000000000E+00 -0.13761095902E+04  0.13761095902E+04  0.25500000000E-02 0. -1.
    8880022    1    1    2    0    0  0.49836460742E+03  0.46916330501E+03 -0.94603087349E+03  0.11776449190E+04  0.15294330000E+03 0.  0.
    8880022    1    1    2    0    0 -0.49836460742E+03 -0.46916330501E+03  0.77008487550E+02  0.70555187540E+03  0.15294330000E+03 0.  0.
<mgrwt>
<rscale>  0 0.70133668E+03</rscale>
<asrwt>0</asrwt>
<pdfrwt beam="1">  1        2 0.21170917E+00 0.70133668E+03</pdfrwt>
<pdfrwt beam="2">  1       -2 0.78013416E-01 0.70133668E+03</pdfrwt>
<totfact> 0.22448213E+01</totfact>
</mgrwt>
</event>
<event>
 4    1  0.1467128E-008  0.9141219E+03  0.7818608E-02  0.9408099E-01
          2   -1    0    0  501    0  0.00000000000E+00  0.00000000000E+00  0.35655669424E+04  0.35655669424E+04  0.25500000000E-02 0. -1.
         -2   -1    0    0    0  501 -0.00000000000E+00 -0.00000000000E+00 -0.14970681890E+04  0.14970681890E+04  0.25500000000E-02 0.  1.
    8880022    1    1    2    0    0 -0.66235309403E+03  0.61115919344E+03 -0.12905083447E+04  0.15814647077E+04  0.15294330000E+03 0.  0.
    8880022    1    1    2    0    0  0.66235309403E+03 -0.61115919344E+03  0.33590070981E+04  0.34811704238E+04  0.15294330000E+03 0. -1.
<mgrwt>
<rscale>  0 0.91412189E+03</rscale>
<asrwt>0</asrwt>
<pdfrwt beam="1">  1        2 0.54854876E+00 0.91412189E+03</pdfrwt>
<pdfrwt beam="2">  1       -2 0.23031818E+00 0.91412189E+03</pdfrwt>
<totfact> 0.65756905E-02</totfact>
</mgrwt>
</event>
<event>
 4    1  0.1033139E-008  0.1098602E+04  0.7818608E-02  0.9206556E-01
          2   -1    0    0  501    0  0.00000000000E+00  0.00000000000E+00  0.20731312006E+04  0.20731312006E+04  0.25500000000E-02 0. -1.
         -2   -1    0    0    0  501 -0.00000000000E+00 -0.00000000000E+00 -0.11605409370E+04  0.11605409370E+04  0.25500000000E-02 0.  1.
    8880022    1    1    2    0    0  0.75913955425E+03  0.77925689296E+03  0.15976928239E+04  0.19389554354E+04  0.15294330000E+03 0.  0.
    8880022    1    1    2    0    0 -0.75913955425E+03 -0.77925689296E+03 -0.68510256024E+03  0.12947167023E+04  0.15294330000E+03 0.  0.
<mgrwt>
<rscale>  0 0.10986018E+04</rscale>
<asrwt>0</asrwt>
<pdfrwt beam="1">  1        2 0.31894327E+00 0.10986018E+04</pdfrwt>
<pdfrwt beam="2">  1       -2 0.17854476E+00 0.10986018E+04</pdfrwt>
<totfact> 0.11118473E+00</totfact>
</mgrwt>
</event>
<event>
 4    1  0.1033139E-008  0.3252910E+03  0.7818608E-02  0.1073240E+00
         -2   -1    0    0    0  501 -0.00000000000E+00  0.00000000000E+00  0.12776458609E+04  0.12776458609E+04  0.25500000000E-02 0.  1.
          2   -1    0    0  501    0  0.00000000000E+00 -0.00000000000E+00 -0.23251645846E+03  0.23251645847E+03  0.25500000000E-02 0. -1.
    8880022    1    1    2    0    0 -0.17588463778E+03  0.22690780750E+03 -0.83296333553E+02  0.33578637719E+03  0.15294330000E+03 0.  0.
    8880022    1    1    2    0    0  0.17588463778E+03 -0.22690780750E+03  0.11284257360E+04  0.11743759422E+04  0.15294330000E+03 0.  0.
<mgrwt>
<rscale>  0 0.32529097E+03</rscale>
<asrwt>0</asrwt>
<pdfrwt beam="1">  1        2 0.35771763E-01 0.32529097E+03</pdfrwt>
<pdfrwt beam="2">  1       -2 0.19656090E+00 0.32529097E+03</pdfrwt>
<totfact> 0.21832635E+01</totfact>
</mgrwt>
</event>
<event>
 4    1  0.1471463E-008  0.1883191E+04  0.7818608E-02  0.8663269E-01
          2   -1    0    0  501    0  0.00000000000E+00  0.00000000000E+00  0.22549937323E+04  0.22549937323E+04  0.25500000000E-02 0. -1.
         -2   -1    0    0    0  501 -0.00000000000E+00 -0.00000000000E+00 -0.23375649284E+04  0.23375649284E+04  0.25500000000E-02 0.  1.
    8880022    1    1    2    0    0  0.54755672847E+03 -0.17953263434E+04 -0.13548095944E+04  0.23198956313E+04  0.15294330000E+03 0.  0.
    8880022    1    1    2    0    0 -0.54755672847E+03  0.17953263434E+04  0.12722383983E+04  0.22726630294E+04  0.15294330000E+03 0.  0.
<mgrwt>
<rscale>  0 0.18831906E+04</rscale>
<asrwt>0</asrwt>
<pdfrwt beam="1">  1        2 0.34692211E+00 0.18831906E+04</pdfrwt>
<pdfrwt beam="2">  1       -2 0.35962538E+00 0.18831906E+04</pdfrwt>
<totfact> 0.58272654E-02</totfact>
</mgrwt>
</event>
<event>
 4    1  0.1033139E-008  0.7754402E+03  0.7818608E-02  0.9596263E-01
          2   -1    0    0  501    0  0.00000000000E+00  0.00000000000E+00  0.29137679236E+04  0.29137679236E+04  0.25500000000E-02 0. -1.
         -2   -1    0    0    0  501 -0.00000000000E+00 -0.00000000000E+00 -0.26254763624E+03  0.26254763625E+03  0.25500000000E-02 0.  1.
    8880022    1    1    2    0    0 -0.69231934510E+03  0.31402203156E+03  0.20602597284E+04  0.22013581520E+04  0.15294330000E+03 0.  0.
    8880022    1    1    2    0    0  0.69231934510E+03 -0.31402203156E+03  0.59096055903E+03  0.97495740791E+03  0.15294330000E+03 0.  0.
<mgrwt>
<rscale>  0 0.77544024E+03</rscale>
<asrwt>0</asrwt>
<pdfrwt beam="1">  1        2 0.44827198E+00 0.77544024E+03</pdfrwt>
<pdfrwt beam="2">  1       -2 0.40391945E-01 0.77544024E+03</pdfrwt>
<totfact> 0.12060445E+01</totfact>
</mgrwt>
</event>
<event>
 4    1  0.1033139E-008  0.1019514E+04  0.7818608E-02  0.9287397E-01
          2   -1    0    0  501    0  0.00000000000E+00  0.00000000000E+00  0.14881583633E+04  0.14881583633E+04  0.25500000000E-02 0. -1.
         -2   -1    0    0    0  501 -0.00000000000E+00 -0.00000000000E+00 -0.97629493538E+03  0.97629493539E+03  0.25500000000E-02 0.  1.
    8880022    1    1    2    0    0  0.11519700587E+03 -0.10013726351E+04 -0.40142139650E+03  0.10956953478E+04  0.15294330000E+03 0.  0.
    8880022    1    1    2    0    0 -0.11519700587E+03  0.10013726351E+04  0.91328482438E+03  0.13687579509E+04  0.15294330000E+03 0.  0.
<mgrwt>
<rscale>  0 0.10195142E+04</rscale>
<asrwt>0</asrwt>
<pdfrwt beam="1">  1        2 0.22894744E+00 0.10195142E+04</pdfrwt>
<pdfrwt beam="2">  1       -2 0.15019922E+00 0.10195142E+04</pdfrwt>
<totfact> 0.38119031E+00</totfact>
</mgrwt>
</event>
<event>
 4    1  0.1033139E-008  0.1211104E+04  0.7818608E-02  0.9103193E-01
         -2   -1    0    0    0  501 -0.00000000000E+00  0.00000000000E+00  0.56528679975E+03  0.56528679976E+03  0.25500000000E-02 0.  1.
          2   -1    0    0  501    0  0.00000000000E+00 -0.00000000000E+00 -0.32342698329E+04  0.32342698329E+04  0.25500000000E-02 0. -1.
    8880022    1    1    2    0    0 -0.81967941787E+03 -0.87835439714E+03 -0.21792743869E+04  0.24931925922E+04  0.15294330000E+03 0.  0.
    8880022    1    1    2    0    0  0.81967941787E+03  0.87835439714E+03 -0.48970864618E+03  0.13063640405E+04  0.15294330000E+03 0.  0.
<mgrwt>
<rscale>  0 0.12111038E+04</rscale>
<asrwt>0</asrwt>
<pdfrwt beam="1">  1        2 0.49757996E+00 0.12111038E+04</pdfrwt>
<pdfrwt beam="2">  1       -2 0.86967202E-01 0.12111038E+04</pdfrwt>
<totfact> 0.14014473E+00</totfact>
</mgrwt>
</event>
<event>
 4    1  0.1033139E-008  0.6841514E+03  0.7818608E-02  0.9744726E-01
          2   -1    0    0  501    0  0.00000000000E+00  0.00000000000E+00  0.98407500239E+03  0.98407500240E+03  0.25500000000E-02 0. -1.
         -2   -1    0    0    0  501 -0.00000000000E+00 -0.00000000000E+00 -0.14781985696E+04  0.14781985696E+04  0.25500000000E-02 0.  1.
    8880022    1    1    2    0    0 -0.63707926393E+03 -0.19698085727E+03 -0.12609622197E+04  0.14346040636E+04  0.15294330000E+03 0.  0.
    8880022    1    1    2    0    0  0.63707926393E+03  0.19698085727E+03  0.76683865248E+03  0.10276695085E+04  0.15294330000E+03 0.  0.
<mgrwt>
<rscale>  0 0.68415137E+03</rscale>
<asrwt>0</asrwt>
<pdfrwt beam="1">  1        2 0.15139615E+00 0.68415137E+03</pdfrwt>
<pdfrwt beam="2">  1       -2 0.22741517E+00 0.68415137E+03</pdfrwt>
<totfact> 0.23813786E+00</totfact>
</mgrwt>
</event>
<event>
 4    1  0.1033139E-008  0.1065278E+04  0.7818608E-02  0.9239712E-01
         -2   -1    0    0    0  501 -0.00000000000E+00  0.00000000000E+00  0.61038955606E+03  0.61038955607E+03  0.25500000000E-02 0.  1.
          2   -1    0    0  501    0  0.00000000000E+00 -0.00000000000E+00 -0.22934927539E+04  0.22934927539E+04  0.25500000000E-02 0. -1.
    8880022    1    1    2    0    0  0.33382436359E+03  0.99999294329E+03 -0.14733929098E+04  0.18181592098E+04  0.15294330000E+03 0.  0.
    8880022    1    1    2    0    0 -0.33382436359E+03 -0.99999294329E+03 -0.20971028800E+03  0.10857231002E+04  0.15294330000E+03 0.  0.
<mgrwt>
<rscale>  0 0.10652775E+04</rscale>
<asrwt>0</asrwt>
<pdfrwt beam="1">  1        2 0.35284503E+00 0.10652775E+04</pdfrwt>
<pdfrwt beam="2">  1       -2 0.93906087E-01 0.10652775E+04</pdfrwt>
<totfact> 0.43659379E+00</totfact>
</mgrwt>
</event>
<event>
 4    1  0.1033139E-008  0.9354183E+03  0.7818608E-02  0.9382359E-01
          2   -1    0    0  501    0  0.00000000000E+00  0.00000000000E+00  0.19458290031E+04  0.19458290031E+04  0.25500000000E-02 0. -1.
         -2   -1    0    0    0  501 -0.00000000000E+00 -0.00000000000E+00 -0.48647835468E+03  0.48647835468E+03  0.25500000000E-02 0.  1.
    8880022    1    1    2    0    0 -0.29512606782E+03 -0.87436623252E+03  0.10641396134E+04  0.14168276092E+04  0.15294330000E+03 0.  0.
    8880022    1    1    2    0    0  0.29512606782E+03  0.87436623252E+03  0.39521103501E+03  0.10154797485E+04  0.15294330000E+03 0.  0.
<mgrwt>
<rscale>  0 0.93541828E+03</rscale>
<asrwt>0</asrwt>
<pdfrwt beam="1">  1        2 0.29935832E+00 0.93541828E+03</pdfrwt>
<pdfrwt beam="2">  1       -2 0.74842822E-01 0.93541828E+03</pdfrwt>
<totfact> 0.11593960E+01</totfact>
</mgrwt>
</event>
<event>
 4    1  0.1033139E-008  0.3918390E+03  0.7818608E-02  0.1046643E+00
         -2   -1    0    0    0  501 -0.00000000000E+00  0.00000000000E+00  0.50084558088E+03  0.50084558089E+03  0.25500000000E-02 0.  1.
          2   -1    0    0  501    0  0.00000000000E+00 -0.00000000000E+00 -0.10462434691E+04  0.10462434691E+04  0.25500000000E-02 0. -1.
    8880022    1    1    2    0    0  0.21194369398E+03 -0.29193499357E+03  0.37771929712E+03  0.54425149546E+03  0.15294330000E+03 0.  0.
    8880022    1    1    2    0    0 -0.21194369398E+03  0.29193499357E+03 -0.92311718536E+03  0.10028375546E+04  0.15294330000E+03 0.  0.
<mgrwt>
<rscale>  0 0.39183903E+03</rscale>
<asrwt>0</asrwt>
<pdfrwt beam="1">  1        2 0.16096053E+00 0.39183903E+03</pdfrwt>
<pdfrwt beam="2">  1       -2 0.77053166E-01 0.39183903E+03</pdfrwt>
<totfact> 0.37677414E+01</totfact>
</mgrwt>
</event>
<event>
 4    1  0.1033139E-008  0.6692320E+03  0.7818608E-02  0.9771346E-01
          2   -1    0    0  501    0  0.00000000000E+00  0.00000000000E+00  0.25260503004E+04  0.25260503004E+04  0.25500000000E-02 0. -1.
         -2   -1    0    0    0  501 -0.00000000000E+00 -0.00000000000E+00 -0.45683369588E+03  0.45683369589E+03  0.25500000000E-02 0.  1.
    8880022    1    1    2    0    0  0.64868092769E+03 -0.60768984421E+02  0.22012662422E+04  0.23007486906E+04  0.15294330000E+03 0. -1.
    8880022    1    1    2    0    0 -0.64868092769E+03  0.60768984421E+02 -0.13204963767E+03  0.68213530567E+03  0.15294330000E+03 0.  0.
<mgrwt>
<rscale>  0 0.66923200E+03</rscale>
<asrwt>0</asrwt>
<pdfrwt beam="1">  1        2 0.38862312E+00 0.66923200E+03</pdfrwt>
<pdfrwt beam="2">  1       -2 0.70282108E-01 0.66923200E+03</pdfrwt>
<totfact> 0.66047977E+00</totfact>
</mgrwt>
</event>
<event>
 4    1  0.1033139E-008  0.1298010E+04  0.7818608E-02  0.9031144E-01
         -2   -1    0    0    0  501 -0.00000000000E+00  0.00000000000E+00  0.91686743081E+03  0.91686743082E+03  0.25500000000E-02 0.  1.
          2   -1    0    0  501    0  0.00000000000E+00 -0.00000000000E+00 -0.22635726297E+04  0.22635726297E+04  0.25500000000E-02 0. -1.
    8880022    1    1    2    0    0  0.34922126087E+03  0.12407593565E+04 -0.13632006563E+04  0.18823248796E+04  0.15294330000E+03 0.  0.
    8880022    1    1    2    0    0 -0.34922126087E+03 -0.12407593565E+04  0.16495457472E+02  0.12981151809E+04  0.15294330000E+03 0.  0.
<mgrwt>
<rscale>  0 0.12980104E+04</rscale>
<asrwt>0</asrwt>
<pdfrwt beam="1">  1        2 0.34824194E+00 0.12980104E+04</pdfrwt>
<pdfrwt beam="2">  1       -2 0.14105653E+00 0.12980104E+04</pdfrwt>
<totfact> 0.16162139E+00</totfact>
</mgrwt>
</event>
<event>
 4    1  0.1033139E-008  0.6592657E+03  0.7818608E-02  0.9789546E-01
          2   -1    0    0  501    0  0.00000000000E+00  0.00000000000E+00  0.25671335496E+03  0.25671335498E+03  0.25500000000E-02 0. -1.
         -2   -1    0    0    0  501 -0.00000000000E+00 -0.00000000000E+00 -0.19012550014E+04  0.19012550014E+04  0.25500000000E-02 0.  1.
    8880022    1    1    2    0    0  0.62183011488E+03  0.15673840202E+03 -0.11793211180E+04  0.13510845905E+04  0.15294330000E+03 0.  0.
    8880022    1    1    2    0    0 -0.62183011488E+03 -0.15673840202E+03 -0.46522052840E+03  0.80688376580E+03  0.15294330000E+03 0.  0.
<mgrwt>
<rscale>  0 0.65926571E+03</rscale>
<asrwt>0</asrwt>
<pdfrwt beam="1">  1        2 0.39494364E-01 0.65926571E+03</pdfrwt>
<pdfrwt beam="2">  1       -2 0.29250076E+00 0.65926571E+03</pdfrwt>
<totfact> 0.48456452E+00</totfact>
</mgrwt>
</event>
<event>
 4    1  0.1033139E-008  0.1052619E+04  0.7818608E-02  0.9252644E-01
         -2   -1    0    0    0  501 -0.00000000000E+00  0.00000000000E+00  0.11043059058E+04  0.11043059058E+04  0.25500000000E-02 0.  1.
          2   -1    0    0  501    0  0.00000000000E+00 -0.00000000000E+00 -0.10895489378E+04  0.10895489378E+04  0.25500000000E-02 0. -1.
    8880022    1    1    2    0    0  0.18465005234E+03 -0.10249486664E+04 -0.30115444795E+03  0.10948520746E+04  0.15294330000E+03 0.  0.
    8880022    1    1    2    0    0 -0.18465005234E+03  0.10249486664E+04  0.31591141594E+03  0.10990027690E+04  0.15294330000E+03 0.  0.
<mgrwt>
<rscale>  0 0.10526191E+04</rscale>
<asrwt>0</asrwt>
<pdfrwt beam="1">  1        2 0.16762291E+00 0.10526191E+04</pdfrwt>
<pdfrwt beam="2">  1       -2 0.16989322E+00 0.10526191E+04</pdfrwt>
<totfact> 0.46544046E+00</totfact>
</mgrwt>
</event>
<event>
 4    1  0.1033139E-008  0.9679870E+03  0.7818608E-02  0.9344370E-01
         -2   -1    0    0    0  501 -0.00000000000E+00  0.00000000000E+00  0.10248646835E+04  0.10248646835E+04  0.25500000000E-02 0.  1.
          2   -1    0    0  501    0  0.00000000000E+00 -0.00000000000E+00 -0.24155177914E+04  0.24155177914E+04  0.25500000000E-02 0. -1.
    8880022    1    1    2    0    0 -0.50496601133E+03 -0.81155190246E+03 -0.20514474153E+04  0.22683552001E+04  0.15294330000E+03 0.  0.
    8880022    1    1    2    0    0  0.50496601133E+03  0.81155190246E+03  0.66079430745E+03  0.11720272748E+04  0.15294330000E+03 0.  0.
<mgrwt>
<rscale>  0 0.96798699E+03</rscale>
<asrwt>0</asrwt>
<pdfrwt beam="1">  1        2 0.37161812E+00 0.96798699E+03</pdfrwt>
<pdfrwt beam="2">  1       -2 0.15767149E+00 0.96798699E+03</pdfrwt>
<totfact> 0.10303721E+00</totfact>
</mgrwt>
</event>
<event>
 4    1  0.1033139E-008  0.8662637E+03  0.7818608E-02  0.9468765E-01
          2   -1    0    0  501    0  0.00000000000E+00  0.00000000000E+00  0.32018230269E+04  0.32018230269E+04  0.25500000000E-02 0. -1.
         -2   -1    0    0    0  501 -0.00000000000E+00 -0.00000000000E+00 -0.60308832887E+03  0.60308832887E+03  0.25500000000E-02 0.  1.
    8880022    1    1    2    0    0 -0.85265499607E+03 -0.80026902672E+00  0.27869159360E+04  0.29184436384E+04  0.15294330000E+03 0.  0.
    8880022    1    1    2    0    0  0.85265499607E+03  0.80026902672E+00 -0.18818123796E+03  0.88646771745E+03  0.15294330000E+03 0.  0.
<mgrwt>
<rscale>  0 0.86626372E+03</rscale>
<asrwt>0</asrwt>
<pdfrwt beam="1">  1        2 0.49258815E+00 0.86626372E+03</pdfrwt>
<pdfrwt beam="2">  1       -2 0.92782821E-01 0.86626372E+03</pdfrwt>
<totfact> 0.13371559E+00</totfact>
</mgrwt>
</event>
<event>
 4    1  0.1033139E-008  0.3690599E+03  0.7818608E-02  0.1055053E+00
         -2   -1    0    0    0  501 -0.00000000000E+00  0.00000000000E+00  0.29108189928E+03  0.29108189930E+03  0.25500000000E-02 0.  1.
          2   -1    0    0  501    0  0.00000000000E+00 -0.00000000000E+00 -0.10532852494E+04  0.10532852494E+04  0.25500000000E-02 0. -1.
    8880022    1    1    2    0    0  0.31601124637E+03  0.11379990727E+03  0.11999975134E+03  0.38807875498E+03  0.15294330000E+03 0.  0.
    8880022    1    1    2    0    0 -0.31601124637E+03 -0.11379990727E+03 -0.88220310148E+03  0.95628839374E+03  0.15294330000E+03 0.  0.
<mgrwt>
<rscale>  0 0.36905986E+03</rscale>
<asrwt>0</asrwt>
<pdfrwt beam="1">  1        2 0.16204388E+00 0.36905986E+03</pdfrwt>
<pdfrwt beam="2">  1       -2 0.44781831E-01 0.36905986E+03</pdfrwt>
<totfact> 0.11602910E+02</totfact>
</mgrwt>
</event>
<event>
 4    1  0.1033139E-008  0.3853847E+03  0.7818608E-02  0.1048961E+00
         -2   -1    0    0    0  501 -0.00000000000E+00  0.00000000000E+00  0.69699214669E+03  0.69699214670E+03  0.25500000000E-02 0.  1.
          2   -1    0    0  501    0  0.00000000000E+00 -0.00000000000E+00 -0.24429468629E+04  0.24429468629E+04  0.25500000000E-02 0. -1.
    8880022    1    1    2    0    0  0.32428744030E+03  0.14130582159E+03 -0.23729136064E+04  0.24040050573E+04  0.15294330000E+03 0.  0.
    8880022    1    1    2    0    0 -0.32428744030E+03 -0.14130582159E+03  0.62695889018E+03  0.73593395229E+03  0.15294330000E+03 0.  1.
<mgrwt>
<rscale>  0 0.38538465E+03</rscale>
<asrwt>0</asrwt>
<pdfrwt beam="1">  1        2 0.37583797E+00 0.38538465E+03</pdfrwt>
<pdfrwt beam="2">  1       -2 0.10722956E+00 0.38538465E+03</pdfrwt>
<totfact> 0.30322405E+00</totfact>
</mgrwt>
</event>
<event>
 4    1  0.1033139E-008  0.1311503E+04  0.7818608E-02  0.9020492E-01
          2   -1    0    0  501    0  0.00000000000E+00  0.00000000000E+00  0.20747828845E+04  0.20747828845E+04  0.25500000000E-02 0. -1.
         -2   -1    0    0    0  501 -0.00000000000E+00 -0.00000000000E+00 -0.24652988514E+04  0.24652988514E+04  0.25500000000E-02 0.  1.
    8880022    1    1    2    0    0 -0.12798339819E+04  0.24222754772E+03 -0.20446427223E+04  0.24291160370E+04  0.15294330000E+03 0.  0.
    8880022    1    1    2    0    0  0.12798339819E+04 -0.24222754772E+03  0.16541267555E+04  0.21109656990E+04  0.15294330000E+03 0.  0.
<mgrwt>
<rscale>  0 0.13115033E+04</rscale>
<asrwt>0</asrwt>
<pdfrwt beam="1">  1        2 0.31919737E+00 0.13115033E+04</pdfrwt>
<pdfrwt beam="2">  1       -2 0.37927675E+00 0.13115033E+04</pdfrwt>
<totfact> 0.59344622E-02</totfact>
</mgrwt>
</event>
<event>
 4    1  0.1033139E-008  0.1514952E+04  0.7818608E-02  0.8874570E-01
         -2   -1    0    0    0  501 -0.00000000000E+00  0.00000000000E+00  0.97728881704E+03  0.97728881704E+03  0.25500000000E-02 0.  1.
          2   -1    0    0  501    0  0.00000000000E+00 -0.00000000000E+00 -0.30833348844E+04  0.30833348844E+04  0.25500000000E-02 0. -1.
    8880022    1    1    2    0    0  0.29441920952E+03 -0.14781765203E+04 -0.61797981723E+02  0.15162121025E+04  0.15294330000E+03 0.  0.
    8880022    1    1    2    0    0 -0.29441920952E+03  0.14781765203E+04 -0.20442480857E+04  0.25444115990E+04  0.15294330000E+03 0.  0.
<mgrwt>
<rscale>  0 0.15149522E+04</rscale>
<asrwt>0</asrwt>
<pdfrwt beam="1">  1        2 0.47435921E+00 0.15149522E+04</pdfrwt>
<pdfrwt beam="2">  1       -2 0.15035213E+00 0.15149522E+04</pdfrwt>
<totfact> 0.43475878E-01</totfact>
</mgrwt>
</event>
<event>
 4    1  0.1033139E-008  0.2684718E+03  0.7818608E-02  0.1102157E+00
          2   -1    0    0  501    0  0.00000000000E+00  0.00000000000E+00  0.22892326777E+03  0.22892326778E+03  0.25500000000E-02 0. -1.
         -2   -1    0    0    0  501 -0.00000000000E+00 -0.00000000000E+00 -0.74799925458E+03  0.74799925459E+03  0.25500000000E-02 0.  1.
    8880022    1    1    2    0    0 -0.21015434529E+03  0.67235568386E+02  0.11216575793E+03  0.29096096090E+03  0.15294330000E+03 0.  0.
    8880022    1    1    2    0    0  0.21015434529E+03 -0.67235568386E+02 -0.63124174474E+03  0.68596156147E+03  0.15294330000E+03 0.  0.
<mgrwt>
<rscale>  0 0.26847183E+03</rscale>
<asrwt>0</asrwt>
<pdfrwt beam="1">  1        2 0.35218965E-01 0.26847183E+03</pdfrwt>
<pdfrwt beam="2">  1       -2 0.11507681E+00 0.26847183E+03</pdfrwt>
<totfact> 0.90994424E+01</totfact>
</mgrwt>
</event>
<event>
 4    1  0.1033139E-008  0.7532827E+03  0.7818608E-02  0.9630214E-01
          2   -1    0    0  501    0  0.00000000000E+00  0.00000000000E+00  0.64972627587E+03  0.64972627588E+03  0.25500000000E-02 0. -1.
         -2   -1    0    0    0  501 -0.00000000000E+00 -0.00000000000E+00 -0.18652524140E+04  0.18652524140E+04  0.25500000000E-02 0.  1.
    8880022    1    1    2    0    0 -0.58261805384E+03 -0.45232657950E+03 -0.15247670370E+04  0.17006908306E+04  0.15294330000E+03 0.  0.
    8880022    1    1    2    0    0  0.58261805384E+03  0.45232657950E+03  0.30924089888E+03  0.81428785926E+03  0.15294330000E+03 0.  0.
<mgrwt>
<rscale>  0 0.75328267E+03</rscale>
<asrwt>0</asrwt>
<pdfrwt beam="1">  1        2 0.99957889E-01 0.75328267E+03</pdfrwt>
<pdfrwt beam="2">  1       -2 0.28696191E+00 0.75328267E+03</pdfrwt>
<totfact> 0.17845568E+00</totfact>
</mgrwt>
</event>
<event>
 4    1  0.1033139E-008  0.9703605E+03  0.7818608E-02  0.9341664E-01
          2   -1    0    0  501    0  0.00000000000E+00  0.00000000000E+00  0.10364370015E+04  0.10364370015E+04  0.25500000000E-02 0. -1.
         -2   -1    0    0    0  501 -0.00000000000E+00 -0.00000000000E+00 -0.25257450096E+04  0.25257450096E+04  0.25500000000E-02 0.  1.
    8880022    1    1    2    0    0  0.88994198149E+03  0.35526212275E+03  0.68055880317E+03  0.11852256510E+04  0.15294330000E+03 0.  0.
    8880022    1    1    2    0    0 -0.88994198149E+03 -0.35526212275E+03 -0.21698668112E+04  0.23769563601E+04  0.15294330000E+03 0.  0.
<mgrwt>
<rscale>  0 0.97036053E+03</rscale>
<asrwt>0</asrwt>
<pdfrwt beam="1">  1        2 0.15945185E+00 0.97036053E+03</pdfrwt>
<pdfrwt beam="2">  1       -2 0.38857615E+00 0.97036053E+03</pdfrwt>
<totfact> 0.21481153E-01</totfact>
</mgrwt>
</event>
<event>
 4    1  0.1033139E-008  0.6536928E+03  0.7818608E-02  0.9799874E-01
          2   -1    0    0  501    0  0.00000000000E+00  0.00000000000E+00  0.10960568838E+04  0.10960568838E+04  0.25500000000E-02 0. -1.
         -2   -1    0    0    0  501 -0.00000000000E+00 -0.00000000000E+00 -0.14908060771E+04  0.14908060771E+04  0.25500000000E-02 0.  1.
    8880022    1    1    2    0    0 -0.26706624976E+03  0.57671331403E+03 -0.13088884402E+04  0.14630458743E+04  0.15294330000E+03 0.  0.
    8880022    1    1    2    0    0  0.26706624976E+03 -0.57671331403E+03  0.91413924689E+03  0.11238170866E+04  0.15294330000E+03 0.  0.
<mgrwt>
<rscale>  0 0.65369280E+03</rscale>
<asrwt>0</asrwt>
<pdfrwt beam="1">  1        2 0.16862414E+00 0.65369280E+03</pdfrwt>
<pdfrwt beam="2">  1       -2 0.22935478E+00 0.65369280E+03</pdfrwt>
<totfact> 0.19831763E+00</totfact>
</mgrwt>
</event>
<event>
 4    1  0.1033139E-008  0.8906867E+03  0.7818608E-02  0.9437299E-01
         -2   -1    0    0    0  501 -0.00000000000E+00  0.00000000000E+00  0.91405447875E+03  0.91405447875E+03  0.25500000000E-02 0.  1.
          2   -1    0    0  501    0  0.00000000000E+00 -0.00000000000E+00 -0.16014646326E+04  0.16014646326E+04  0.25500000000E-02 0. -1.
    8880022    1    1    2    0    0 -0.59051334404E+03 -0.64901859434E+03 -0.11949476016E+04  0.14903766533E+04  0.15294330000E+03 0.  0.
    8880022    1    1    2    0    0  0.59051334404E+03  0.64901859434E+03  0.50753744775E+03  0.10251424580E+04  0.15294330000E+03 0.  0.
<mgrwt>
<rscale>  0 0.89068670E+03</rscale>
<asrwt>0</asrwt>
<pdfrwt beam="1">  1        2 0.24637917E+00 0.89068670E+03</pdfrwt>
<pdfrwt beam="2">  1       -2 0.14062377E+00 0.89068670E+03</pdfrwt>
<totfact> 0.39807360E+00</totfact>
</mgrwt>
</event>
<event>
 4    1  0.1033139E-008  0.1029033E+04  0.7818608E-02  0.9277263E-01
         -2   -1    0    0    0  501 -0.00000000000E+00  0.00000000000E+00  0.18385810256E+04  0.18385810256E+04  0.25500000000E-02 0.  1.
          2   -1    0    0  501    0  0.00000000000E+00 -0.00000000000E+00 -0.16708742700E+04  0.16708742700E+04  0.25500000000E-02 0. -1.
    8880022    1    1    2    0    0  0.29400757162E+03  0.97420548773E+03  0.15043240791E+04  0.18226078493E+04  0.15294330000E+03 0.  0.
    8880022    1    1    2    0    0 -0.29400757162E+03 -0.97420548773E+03 -0.13366173235E+04  0.16868474463E+04  0.15294330000E+03 0.  0.
<mgrwt>
<rscale>  0 0.10290328E+04</rscale>
<asrwt>0</asrwt>
<pdfrwt beam="1">  1        2 0.25705758E+00 0.10290328E+04</pdfrwt>
<pdfrwt beam="2">  1       -2 0.28285862E+00 0.10290328E+04</pdfrwt>
<totfact> 0.41153985E-01</totfact>
</mgrwt>
</event>
<event>
 4    1  0.1033139E-008  0.8190758E+03  0.7818608E-02  0.9532809E-01
          2   -1    0    0  501    0  0.00000000000E+00  0.00000000000E+00  0.93056481673E+03  0.93056481674E+03  0.25500000000E-02 0. -1.
         -2   -1    0    0    0  501 -0.00000000000E+00 -0.00000000000E+00 -0.92705272017E+03  0.92705272018E+03  0.25500000000E-02 0.  1.
    8880022    1    1    2    0    0  0.76345840049E+03 -0.25421405734E+03 -0.43619162098E+03  0.92798076459E+03  0.15294330000E+03 0.  0.
    8880022    1    1    2    0    0 -0.76345840049E+03  0.25421405734E+03  0.43970371754E+03  0.92963677232E+03  0.15294330000E+03 0.  0.
<mgrwt>
<rscale>  0 0.81907580E+03</rscale>
<asrwt>0</asrwt>
<pdfrwt beam="1">  1        2 0.14316382E+00 0.81907580E+03</pdfrwt>
<pdfrwt beam="2">  1       -2 0.14262350E+00 0.81907580E+03</pdfrwt>
<totfact> 0.96582104E+00</totfact>
</mgrwt>
</event>
<event>
 4    1  0.1033139E-008  0.7668759E+03  0.7818608E-02  0.9609240E-01
         -2   -1    0    0    0  501 -0.00000000000E+00  0.00000000000E+00  0.11340447183E+04  0.11340447183E+04  0.25500000000E-02 0.  1.
          2   -1    0    0  501    0  0.00000000000E+00 -0.00000000000E+00 -0.57295425172E+03  0.57295425173E+03  0.25500000000E-02 0. -1.
    8880022    1    1    2    0    0 -0.71505403940E+03  0.23109467738E+03  0.17627663698E+02  0.76707849450E+03  0.15294330000E+03 0.  0.
    8880022    1    1    2    0    0  0.71505403940E+03 -0.23109467738E+03  0.54346280286E+03  0.93992047551E+03  0.15294330000E+03 0.  0.
<mgrwt>
<rscale>  0 0.76687592E+03</rscale>
<asrwt>0</asrwt>
<pdfrwt beam="1">  1        2 0.88146810E-01 0.76687592E+03</pdfrwt>
<pdfrwt beam="2">  1       -2 0.17446841E+00 0.76687592E+03</pdfrwt>
<totfact> 0.10543311E+01</totfact>
</mgrwt>
</event>
<event>
 4    1  0.1033139E-008  0.8510320E+03  0.7818608E-02  0.9488953E-01
          2   -1    0    0  501    0  0.00000000000E+00  0.00000000000E+00  0.39853037151E+04  0.39853037151E+04  0.25500000000E-02 0. -1.
         -2   -1    0    0    0  501 -0.00000000000E+00 -0.00000000000E+00 -0.49755224421E+03  0.49755224421E+03  0.25500000000E-02 0.  1.
    8880022    1    1    2    0    0  0.83717167284E+03  0.27117560107E+01  0.35296466161E+04  0.36307933914E+04  0.15294330000E+03 0.  0.
    8880022    1    1    2    0    0 -0.83717167284E+03 -0.27117560107E+01 -0.41895145217E+02  0.85206256791E+03  0.15294330000E+03 0.  0.
<mgrwt>
<rscale>  0 0.85103197E+03</rscale>
<asrwt>0</asrwt>
<pdfrwt beam="1">  1        2 0.61312365E+00 0.85103197E+03</pdfrwt>
<pdfrwt beam="2">  1       -2 0.76546499E-01 0.85103197E+03</pdfrwt>
<totfact> 0.58252270E-01</totfact>
</mgrwt>
</event>
<event>
 4    1  0.1033139E-008  0.8436677E+03  0.7818608E-02  0.9498876E-01
          2   -1    0    0  501    0  0.00000000000E+00  0.00000000000E+00  0.26197524201E+04  0.26197524201E+04  0.25500000000E-02 0. -1.
         -2   -1    0    0    0  501 -0.00000000000E+00 -0.00000000000E+00 -0.94388501506E+03  0.94388501507E+03  0.25500000000E-02 0.  1.
    8880022    1    1    2    0    0 -0.57095407890E+03  0.60199246333E+03 -0.66572687604E+03  0.10746941019E+04  0.15294330000E+03 0.  0.
    8880022    1    1    2    0    0  0.57095407890E+03 -0.60199246333E+03  0.23415942811E+04  0.24889433333E+04  0.15294330000E+03 0.  0.
<mgrwt>
<rscale>  0 0.84366767E+03</rscale>
<asrwt>0</asrwt>
<pdfrwt beam="1">  1        2 0.40303882E+00 0.84366767E+03</pdfrwt>
<pdfrwt beam="2">  1       -2 0.14521308E+00 0.84366767E+03</pdfrwt>
<totfact> 0.10020027E+00</totfact>
</mgrwt>
</event>
<event>
 4    1  0.1033139E-008  0.6305572E+03  0.7818608E-02  0.9843962E-01
         -2   -1    0    0    0  501 -0.00000000000E+00  0.00000000000E+00  0.57393849506E+03  0.57393849506E+03  0.25500000000E-02 0.  1.
          2   -1    0    0  501    0  0.00000000000E+00 -0.00000000000E+00 -0.11571836640E+04  0.11571836640E+04  0.25500000000E-02 0. -1.
    8880022    1    1    2    0    0 -0.64208441322E+02 -0.60834856915E+03  0.25672148535E+03  0.68081442375E+03  0.15294330000E+03 0.  0.
    8880022    1    1    2    0    0  0.64208441322E+02  0.60834856915E+03 -0.83996665429E+03  0.10503077353E+04  0.15294330000E+03 0.  0.
<mgrwt>
<rscale>  0 0.63055718E+03</rscale>
<asrwt>0</asrwt>
<pdfrwt beam="1">  1        2 0.17802826E+00 0.63055718E+03</pdfrwt>
<pdfrwt beam="2">  1       -2 0.88298230E-01 0.63055718E+03</pdfrwt>
<totfact> 0.22925405E+01</totfact>
</mgrwt>
</event>
<event>
 4    1  0.1033139E-008  0.1387512E+04  0.7818608E-02  0.8962908E-01
          2   -1    0    0  501    0  0.00000000000E+00  0.00000000000E+00  0.24555741999E+04  0.24555741999E+04  0.25500000000E-02 0. -1.
         -2   -1    0    0    0  501 -0.00000000000E+00 -0.00000000000E+00 -0.10157351054E+04  0.10157351054E+04  0.25500000000E-02 0.  1.
    8880022    1    1    2    0    0 -0.13505878396E+04 -0.27876619365E+03  0.15489329028E+04  0.20795150621E+04  0.15294330000E+03 0.  0.
    8880022    1    1    2    0    0  0.13505878396E+04  0.27876619365E+03 -0.10909380830E+03  0.13917942432E+04  0.15294330000E+03 0.  0.
<mgrwt>
<rscale>  0 0.13875121E+04</rscale>
<asrwt>0</asrwt>
<pdfrwt beam="1">  1        2 0.37778064E+00 0.13875121E+04</pdfrwt>
<pdfrwt beam="2">  1       -2 0.15626694E+00 0.13875121E+04</pdfrwt>
<totfact> 0.94750154E-01</totfact>
</mgrwt>
</event>
<event>
 4    1  0.1097732E-008  0.9450617E+03  0.7818608E-02  0.9370941E-01
         -2   -1    0    0    0  501 -0.00000000000E+00  0.00000000000E+00  0.42013155150E+04  0.42013155150E+04  0.25500000000E-02 0.  1.
          2   -1    0    0  501    0  0.00000000000E+00 -0.00000000000E+00 -0.12775267002E+04  0.12775267002E+04  0.25500000000E-02 0. -1.
    8880022    1    1    2    0    0  0.90706965279E+03 -0.21673612078E+03  0.39630256657E+04  0.40741519340E+04  0.15294330000E+03 0.  0.
    8880022    1    1    2    0    0 -0.90706965279E+03  0.21673612078E+03 -0.10392368509E+04  0.14046902813E+04  0.15294330000E+03 0.  0.
<mgrwt>
<rscale>  0 0.94506167E+03</rscale>
<asrwt>0</asrwt>
<pdfrwt beam="1">  1        2 0.19654257E+00 0.94506167E+03</pdfrwt>
<pdfrwt beam="2">  1       -2 0.64635623E+00 0.94506167E+03</pdfrwt>
<totfact> 0.58635442E-03</totfact>
</mgrwt>
</event>
<event>
 4    1  0.1033139E-008  0.1020969E+04  0.7818608E-02  0.9285841E-01
          2   -1    0    0  501    0  0.00000000000E+00  0.00000000000E+00  0.21382770208E+04  0.21382770208E+04  0.25500000000E-02 0. -1.
         -2   -1    0    0    0  501 -0.00000000000E+00 -0.00000000000E+00 -0.10873642358E+04  0.10873642358E+04  0.25500000000E-02 0.  1.
    8880022    1    1    2    0    0 -0.10034155832E+04 -0.11019291579E+03  0.17233841628E+04  0.20031050738E+04  0.15294330000E+03 0.  0.
    8880022    1    1    2    0    0  0.10034155832E+04  0.11019291579E+03 -0.67247137779E+03  0.12225361828E+04  0.15294330000E+03 0.  0.
<mgrwt>
<rscale>  0 0.10209686E+04</rscale>
<asrwt>0</asrwt>
<pdfrwt beam="1">  1        2 0.32896570E+00 0.10209686E+04</pdfrwt>
<pdfrwt beam="2">  1       -2 0.16728681E+00 0.10209686E+04</pdfrwt>
<totfact> 0.12421199E+00</totfact>
</mgrwt>
</event>
<event>
 4    1  0.1033139E-008  0.5766725E+03  0.7818608E-02  0.9955021E-01
         -2   -1    0    0    0  501 -0.00000000000E+00  0.00000000000E+00  0.15462011087E+04  0.15462011088E+04  0.25500000000E-02 0.  1.
          2   -1    0    0  501    0  0.00000000000E+00 -0.00000000000E+00 -0.15747411940E+04  0.15747411940E+04  0.25500000000E-02 0. -1.
    8880022    1    1    2    0    0  0.41552005572E+03 -0.36946257399E+03 -0.14642670215E+04  0.15737309407E+04  0.15294330000E+03 0.  0.
    8880022    1    1    2    0    0 -0.41552005572E+03  0.36946257399E+03  0.14357269363E+04  0.15472113621E+04  0.15294330000E+03 0.  0.
<mgrwt>
<rscale>  0 0.57667249E+03</rscale>
<asrwt>0</asrwt>
<pdfrwt beam="1">  1        2 0.24226787E+00 0.57667249E+03</pdfrwt>
<pdfrwt beam="2">  1       -2 0.23787709E+00 0.57667249E+03</pdfrwt>
<totfact> 0.95313014E-01</totfact>
</mgrwt>
</event>
<event>
 4    1  0.1033139E-008  0.1296078E+04  0.7818608E-02  0.9032681E-01
          2   -1    0    0  501    0  0.00000000000E+00  0.00000000000E+00  0.31505177664E+04  0.31505177664E+04  0.25500000000E-02 0. -1.
         -2   -1    0    0    0  501 -0.00000000000E+00 -0.00000000000E+00 -0.11055182326E+04  0.11055182326E+04  0.25500000000E-02 0.  1.
    8880022    1    1    2    0    0  0.12759773270E+04  0.16825143298E+03  0.25536425004E+04  0.28637228142E+04  0.15294330000E+03 0.  0.
    8880022    1    1    2    0    0 -0.12759773270E+04 -0.16825143298E+03 -0.50864296668E+03  0.13923131847E+04  0.15294330000E+03 0.  0.
<mgrwt>
<rscale>  0 0.12960781E+04</rscale>
<asrwt>0</asrwt>
<pdfrwt beam="1">  1        2 0.48469503E+00 0.12960781E+04</pdfrwt>
<pdfrwt beam="2">  1       -2 0.17007973E+00 0.12960781E+04</pdfrwt>
<totfact> 0.28900306E-01</totfact>
</mgrwt>
</event>
<event>
 4    1  0.1033139E-008  0.1793662E+04  0.7818608E-02  0.8709677E-01
          2   -1    0    0  501    0  0.00000000000E+00  0.00000000000E+00  0.22229126057E+04  0.22229126057E+04  0.25500000000E-02 0. -1.
         -2   -1    0    0    0  501 -0.00000000000E+00 -0.00000000000E+00 -0.15137122254E+04  0.15137122254E+04  0.25500000000E-02 0.  1.
    8880022    1    1    2    0    0  0.17854243823E+04  0.78048284723E+02  0.74593539353E+03  0.19425866838E+04  0.15294330000E+03 0.  0.
    8880022    1    1    2    0    0 -0.17854243823E+04 -0.78048284723E+02 -0.36735013221E+02  0.17940381473E+04  0.15294330000E+03 0.  0.
<mgrwt>
<rscale>  0 0.17936620E+04</rscale>
<asrwt>0</asrwt>
<pdfrwt beam="1">  1        2 0.34198655E+00 0.17936620E+04</pdfrwt>
<pdfrwt beam="2">  1       -2 0.23287881E+00 0.17936620E+04</pdfrwt>
<totfact> 0.37420072E-01</totfact>
</mgrwt>
</event>
<event>
 4    1  0.1033139E-008  0.3110788E+03  0.7818608E-02  0.1079830E+00
          2   -1    0    0  501    0  0.00000000000E+00  0.00000000000E+00  0.30886487728E+04  0.30886487728E+04  0.25500000000E-02 0. -1.
         -2   -1    0    0    0  501 -0.00000000000E+00 -0.00000000000E+00 -0.15795305735E+03  0.15795305737E+03  0.25500000000E-02 0.  1.
    8880022    1    1    2    0    0  0.19054580999E+03  0.19253748633E+03  0.11931890766E+02  0.31130758484E+03  0.15294330000E+03 0.  0.
    8880022    1    1    2    0    0 -0.19054580999E+03 -0.19253748633E+03  0.29187638247E+04  0.29352942454E+04  0.15294330000E+03 0.  0.
<mgrwt>
<rscale>  0 0.31107884E+03</rscale>
<asrwt>0</asrwt>
<pdfrwt beam="1">  1        2 0.47517673E+00 0.31107884E+03</pdfrwt>
<pdfrwt beam="2">  1       -2 0.24300471E-01 0.31107884E+03</pdfrwt>
<totfact> 0.27340282E+01</totfact>
</mgrwt>
</event>
<event>
 4    1  0.1033139E-008  0.1981733E+04  0.7818608E-02  0.8615209E-01
         -2   -1    0    0    0  501 -0.00000000000E+00  0.00000000000E+00  0.22560582202E+04  0.22560582202E+04  0.25500000000E-02 0.  1.
          2   -1    0    0  501    0  0.00000000000E+00 -0.00000000000E+00 -0.17771537007E+04  0.17771537007E+04  0.25500000000E-02 0. -1.
    8880022    1    1    2    0    0 -0.19704173961E+04 -0.14604468807E+03  0.52801915332E+03  0.20508704604E+04  0.15294330000E+03 0.  0.
    8880022    1    1    2    0    0  0.19704173961E+04  0.14604468807E+03 -0.49114633802E+02  0.19823414605E+04  0.15294330000E+03 0.  0.
<mgrwt>
<rscale>  0 0.19817329E+04</rscale>
<asrwt>0</asrwt>
<pdfrwt beam="1">  1        2 0.27340826E+00 0.19817329E+04</pdfrwt>
<pdfrwt beam="2">  1       -2 0.34708588E+00 0.19817329E+04</pdfrwt>
<totfact> 0.12880189E-01</totfact>
</mgrwt>
</event>
<event>
 4    1  0.1033139E-008  0.1209229E+04  0.7818608E-02  0.9104816E-01
         -2   -1    0    0    0  501 -0.00000000000E+00  0.00000000000E+00  0.64812669166E+03  0.64812669167E+03  0.25500000000E-02 0.  1.
          2   -1    0    0  501    0  0.00000000000E+00 -0.00000000000E+00 -0.25440239363E+04  0.25440239363E+04  0.25500000000E-02 0. -1.
    8880022    1    1    2    0    0 -0.11977194549E+04 -0.65663671487E+02 -0.14849007724E+04  0.19149844823E+04  0.15294330000E+03 0.  0.
    8880022    1    1    2    0    0  0.11977194549E+04  0.65663671487E+02 -0.41099647227E+03  0.12771661457E+04  0.15294330000E+03 0.  0.
<mgrwt>
<rscale>  0 0.12092292E+04</rscale>
<asrwt>0</asrwt>
<pdfrwt beam="1">  1        2 0.39138829E+00 0.12092292E+04</pdfrwt>
<pdfrwt beam="2">  1       -2 0.99711800E-01 0.12092292E+04</pdfrwt>
<totfact> 0.26826586E+00</totfact>
</mgrwt>
</event>
<event>
 4    1  0.1033139E-008  0.1980895E+04  0.7818608E-02  0.8615605E-01
         -2   -1    0    0    0  501 -0.00000000000E+00  0.00000000000E+00  0.18185857910E+04  0.18185857910E+04  0.25500000000E-02 0.  1.
          2   -1    0    0  501    0  0.00000000000E+00 -0.00000000000E+00 -0.25548067236E+04  0.25548067236E+04  0.25500000000E-02 0. -1.
    8880022    1    1    2    0    0 -0.16991286733E+04  0.10067353545E+04 -0.12302311084E+04  0.23318264420E+04  0.15294330000E+03 0.  0.
    8880022    1    1    2    0    0  0.16991286733E+04 -0.10067353545E+04  0.49401017580E+03  0.20415660727E+04  0.15294330000E+03 0.  0.
<mgrwt>
<rscale>  0 0.19808952E+04</rscale>
<asrwt>0</asrwt>
<pdfrwt beam="1">  1        2 0.39304719E+00 0.19808952E+04</pdfrwt>
<pdfrwt beam="2">  1       -2 0.27978243E+00 0.19808952E+04</pdfrwt>
<totfact> 0.12148072E-01</totfact>
</mgrwt>
</event>
<event>
 4    1  0.1033139E-008  0.1342429E+04  0.7818608E-02  0.8996579E-01
          2   -1    0    0  501    0  0.00000000000E+00  0.00000000000E+00  0.29821717739E+04  0.29821717739E+04  0.25500000000E-02 0. -1.
         -2   -1    0    0    0  501 -0.00000000000E+00 -0.00000000000E+00 -0.85417466804E+03  0.85417466804E+03  0.25500000000E-02 0.  1.
    8880022    1    1    2    0    0  0.12173154946E+04  0.54485492597E+03  0.26520888714E+02  0.13426909228E+04  0.15294330000E+03 0.  1.
    8880022    1    1    2    0    0 -0.12173154946E+04 -0.54485492597E+03  0.21014762172E+04  0.24936555191E+04  0.15294330000E+03 0.  0.
<mgrwt>
<rscale>  0 0.13424290E+04</rscale>
<asrwt>0</asrwt>
<pdfrwt beam="1">  1        2 0.45879567E+00 0.13424290E+04</pdfrwt>
<pdfrwt beam="2">  1       -2 0.13141148E+00 0.13424290E+04</pdfrwt>
<totfact> 0.73083529E-01</totfact>
</mgrwt>
</event>
<event>
 4    1  0.1033139E-008  0.3057718E+03  0.7818608E-02  0.1082390E+00
         -2   -1    0    0    0  501 -0.00000000000E+00  0.00000000000E+00  0.76079934213E+03  0.76079934213E+03  0.25500000000E-02 0.  1.
          2   -1    0    0  501    0  0.00000000000E+00 -0.00000000000E+00 -0.21073338763E+03  0.21073338764E+03  0.25500000000E-02 0. -1.
    8880022    1    1    2    0    0 -0.72345610019E+02 -0.25469755361E+03 -0.38591252801E+02  0.30819745118E+03  0.15294330000E+03 0. -1.
    8880022    1    1    2    0    0  0.72345610019E+02  0.25469755361E+03  0.58865720730E+03  0.66333527860E+03  0.15294330000E+03 0.  0.
<mgrwt>
<rscale>  0 0.30577178E+03</rscale>
<asrwt>0</asrwt>
<pdfrwt beam="1">  1        2 0.32420521E-01 0.30577178E+03</pdfrwt>
<pdfrwt beam="2">  1       -2 0.11704605E+00 0.30577178E+03</pdfrwt>
<totfact> 0.95333159E+01</totfact>
</mgrwt>
</event>
<event>
 4    1  0.1033139E-008  0.6023281E+03  0.7818608E-02  0.9900588E-01
         -2   -1    0    0    0  501 -0.00000000000E+00  0.00000000000E+00  0.27413959647E+03  0.27413959648E+03  0.25500000000E-02 0.  1.
          2   -1    0    0  501    0  0.00000000000E+00 -0.00000000000E+00 -0.15769622060E+04  0.15769622060E+04  0.25500000000E-02 0. -1.
    8880022    1    1    2    0    0 -0.52111628572E+03 -0.26047139341E+03 -0.28028387762E+03  0.66434797741E+03  0.15294330000E+03 0.  0.
    8880022    1    1    2    0    0  0.52111628572E+03  0.26047139341E+03 -0.10225387319E+04  0.11867538250E+04  0.15294330000E+03 0.  0.
<mgrwt>
<rscale>  0 0.60232814E+03</rscale>
<asrwt>0</asrwt>
<pdfrwt beam="1">  1        2 0.24260956E+00 0.60232814E+03</pdfrwt>
<pdfrwt beam="2">  1       -2 0.42175324E-01 0.60232814E+03</pdfrwt>
<totfact> 0.63614195E+01</totfact>
</mgrwt>
</event>
<event>
 4    1  0.1033139E-008  0.1269078E+04  0.7818608E-02  0.9054452E-01
         -2   -1    0    0    0  501 -0.00000000000E+00  0.00000000000E+00  0.60812612773E+03  0.60812612774E+03  0.25500000000E-02 0.  1.
          2   -1    0    0  501    0  0.00000000000E+00 -0.00000000000E+00 -0.29835473433E+04  0.29835473433E+04  0.25500000000E-02 0. -1.
    8880022    1    1    2    0    0 -0.94829561706E+02  0.12562546305E+04 -0.17896040303E+04  0.21939103401E+04  0.15294330000E+03 0.  0.
    8880022    1    1    2    0    0  0.94829561706E+02 -0.12562546305E+04 -0.58581718528E+03  0.13977631309E+04  0.15294330000E+03 0.  0.
<mgrwt>
<rscale>  0 0.12690784E+04</rscale>
<asrwt>0</asrwt>
<pdfrwt beam="1">  1        2 0.45900728E+00 0.12690784E+04</pdfrwt>
<pdfrwt beam="2">  1       -2 0.93557867E-01 0.12690784E+04</pdfrwt>
<totfact> 0.16921928E+00</totfact>
</mgrwt>
</event>
<event>
 4    1  0.1033139E-008  0.3422551E+03  0.7818608E-02  0.1065839E+00
         -2   -1    0    0    0  501 -0.00000000000E+00  0.00000000000E+00  0.54104869237E+03  0.54104869238E+03  0.25500000000E-02 0.  1.
          2   -1    0    0  501    0  0.00000000000E+00 -0.00000000000E+00 -0.40739944596E+03  0.40739944597E+03  0.25500000000E-02 0. -1.
    8880022    1    1    2    0    0  0.26045123146E+03  0.16097231908E+03 -0.25779327877E+03  0.42848099033E+03  0.15294330000E+03 0.  0.
    8880022    1    1    2    0    0 -0.26045123146E+03 -0.16097231908E+03  0.39144252518E+03  0.51996714801E+03  0.15294330000E+03 0.  0.
<mgrwt>
<rscale>  0 0.34225515E+03</rscale>
<asrwt>0</asrwt>
<pdfrwt beam="1">  1        2 0.62676838E-01 0.34225515E+03</pdfrwt>
<pdfrwt beam="2">  1       -2 0.83238260E-01 0.34225515E+03</pdfrwt>
<totfact> 0.10226374E+02</totfact>
</mgrwt>
</event>
<event>
 4    1  0.1033139E-008  0.1149648E+04  0.7818608E-02  0.9158108E-01
          2   -1    0    0  501    0  0.00000000000E+00  0.00000000000E+00  0.17045847037E+04  0.17045847037E+04  0.25500000000E-02 0. -1.
         -2   -1    0    0    0  501 -0.00000000000E+00 -0.00000000000E+00 -0.15890537445E+04  0.15890537445E+04  0.25500000000E-02 0.  1.
    8880022    1    1    2    0    0  0.36409310867E+03 -0.10796922350E+04 -0.11206633826E+04  0.16054834737E+04  0.15294330000E+03 0.  0.
    8880022    1    1    2    0    0 -0.36409310867E+03  0.10796922350E+04  0.12361943418E+04  0.16881549745E+04  0.15294330000E+03 0.  0.
<mgrwt>
<rscale>  0 0.11496481E+04</rscale>
<asrwt>0</asrwt>
<pdfrwt beam="1">  1        2 0.26224380E+00 0.11496481E+04</pdfrwt>
<pdfrwt beam="2">  1       -2 0.24446981E+00 0.11496481E+04</pdfrwt>
<totfact> 0.66271791E-01</totfact>
</mgrwt>
</event>
<event>
 4    1  0.1033139E-008  0.1352157E+04  0.7818608E-02  0.8989197E-01
         -2   -1    0    0    0  501 -0.00000000000E+00  0.00000000000E+00  0.56665107439E+03  0.56665107439E+03  0.25500000000E-02 0.  1.
          2   -1    0    0  501    0  0.00000000000E+00 -0.00000000000E+00 -0.36835939406E+04  0.36835939406E+04  0.25500000000E-02 0. -1.
    8880022    1    1    2    0    0 -0.12334026220E+04 -0.53259255838E+03 -0.80991135319E+03  0.15761614493E+04  0.15294330000E+03 0.  0.
    8880022    1    1    2    0    0  0.12334026220E+04  0.53259255838E+03 -0.23070315130E+04  0.26740835657E+04  0.15294330000E+03 0.  0.
<mgrwt>
<rscale>  0 0.13521570E+04</rscale>
<asrwt>0</asrwt>
<pdfrwt beam="1">  1        2 0.56670675E+00 0.13521570E+04</pdfrwt>
<pdfrwt beam="2">  1       -2 0.87177091E-01 0.13521570E+04</pdfrwt>
<totfact> 0.67264886E-01</totfact>
</mgrwt>
</event>
<event>
 4    1  0.1033139E-008  0.4045733E+03  0.7818608E-02  0.1042208E+00
         -2   -1    0    0    0  501 -0.00000000000E+00  0.00000000000E+00  0.87710949291E+03  0.87710949292E+03  0.25500000000E-02 0.  1.
          2   -1    0    0  501    0  0.00000000000E+00 -0.00000000000E+00 -0.32481361562E+03  0.32481361563E+03  0.25500000000E-02 0. -1.
    8880022    1    1    2    0    0  0.34464289236E+03  0.14665994380E+03 -0.11585154419E+03  0.42083381005E+03  0.15294330000E+03 0. -1.
    8880022    1    1    2    0    0 -0.34464289236E+03 -0.14665994380E+03  0.66814742148E+03  0.78108929850E+03  0.15294330000E+03 0.  0.
<mgrwt>
<rscale>  0 0.40457325E+03</rscale>
<asrwt>0</asrwt>
<pdfrwt beam="1">  1        2 0.49971326E-01 0.40457325E+03</pdfrwt>
<pdfrwt beam="2">  1       -2 0.13493992E+00 0.40457325E+03</pdfrwt>
<totfact> 0.41316790E+01</totfact>
</mgrwt>
</event>
<event>
 4    1  0.1033139E-008  0.4690817E+03  0.7818608E-02  0.1022180E+00
          2   -1    0    0  501    0  0.00000000000E+00  0.00000000000E+00  0.11562743661E+04  0.11562743661E+04  0.25500000000E-02 0. -1.
         -2   -1    0    0    0  501 -0.00000000000E+00 -0.00000000000E+00 -0.24459095932E+03  0.24459095933E+03  0.25500000000E-02 0.  1.
    8880022    1    1    2    0    0  0.37737592679E+03 -0.23288066718E+03  0.78584225389E+03  0.91519708057E+03  0.15294330000E+03 0.  0.
    8880022    1    1    2    0    0 -0.37737592679E+03  0.23288066718E+03  0.12584115285E+03  0.48566824482E+03  0.15294330000E+03 0.  0.
<mgrwt>
<rscale>  0 0.46908171E+03</rscale>
<asrwt>0</asrwt>
<pdfrwt beam="1">  1        2 0.17788837E+00 0.46908171E+03</pdfrwt>
<pdfrwt beam="2">  1       -2 0.37629377E-01 0.46908171E+03</pdfrwt>
<totfact> 0.13934129E+02</totfact>
</mgrwt>
</event>
<event>
 4    1  0.1033139E-008  0.1013162E+04  0.7818608E-02  0.9294226E-01
         -2   -1    0    0    0  501 -0.00000000000E+00  0.00000000000E+00  0.24990481651E+04  0.24990481651E+04  0.25500000000E-02 0.  1.
          2   -1    0    0  501    0  0.00000000000E+00 -0.00000000000E+00 -0.83360880394E+03  0.83360880394E+03  0.25500000000E-02 0. -1.
    8880022    1    1    2    0    0 -0.34737967859E+03  0.93937849382E+03 -0.35407242961E+03  0.10732490551E+04  0.15294330000E+03 0.  0.
    8880022    1    1    2    0    0  0.34737967859E+03 -0.93937849382E+03  0.20195117908E+04  0.22594079140E+04  0.15294330000E+03 0.  0.
<mgrwt>
<rscale>  0 0.10131615E+04</rscale>
<asrwt>0</asrwt>
<pdfrwt beam="1">  1        2 0.12824751E+00 0.10131615E+04</pdfrwt>
<pdfrwt beam="2">  1       -2 0.38446894E+00 0.10131615E+04</pdfrwt>
<totfact> 0.30958076E-01</totfact>
</mgrwt>
</event>
<event>
 4    1  0.1662866E-008  0.1712584E+04  0.7818608E-02  0.8754220E-01
          2   -1    0    0  501    0  0.00000000000E+00  0.00000000000E+00  0.19702059174E+04  0.19702059174E+04  0.25500000000E-02 0. -1.
         -2   -1    0    0    0  501 -0.00000000000E+00 -0.00000000000E+00 -0.30498769266E+04  0.30498769266E+04  0.25500000000E-02 0.  1.
    8880022    1    1    2    0    0  0.14277419864E+04  0.93333037556E+03 -0.23356973868E+04  0.28962780780E+04  0.15294330000E+03 0.  0.
    8880022    1    1    2    0    0 -0.14277419864E+04 -0.93333037556E+03  0.12560263776E+04  0.21238047659E+04  0.15294330000E+03 0.  0.
<mgrwt>
<rscale>  0 0.17125841E+04</rscale>
<asrwt>0</asrwt>
<pdfrwt beam="1">  1        2 0.30310860E+00 0.17125841E+04</pdfrwt>
<pdfrwt beam="2">  1       -2 0.46921184E+00 0.17125841E+04</pdfrwt>
<totfact> 0.16388825E-02</totfact>
</mgrwt>
</event>
<event>
 4    1  0.1033139E-008  0.1305744E+04  0.7818608E-02  0.9025022E-01
         -2   -1    0    0    0  501 -0.00000000000E+00  0.00000000000E+00  0.11320212386E+04  0.11320212386E+04  0.25500000000E-02 0.  1.
          2   -1    0    0  501    0  0.00000000000E+00 -0.00000000000E+00 -0.16463040899E+04  0.16463040899E+04  0.25500000000E-02 0. -1.
    8880022    1    1    2    0    0  0.12388751205E+04 -0.38309813263E+03  0.14821501741E+03  0.13141290225E+04  0.15294330000E+03 0.  0.
    8880022    1    1    2    0    0 -0.12388751205E+04  0.38309813263E+03 -0.66249786863E+03  0.14641963060E+04  0.15294330000E+03 0.  0.
<mgrwt>
<rscale>  0 0.13057440E+04</rscale>
<asrwt>0</asrwt>
<pdfrwt beam="1">  1        2 0.25327755E+00 0.13057440E+04</pdfrwt>
<pdfrwt beam="2">  1       -2 0.17415711E+00 0.13057440E+04</pdfrwt>
<totfact> 0.20093597E+00</totfact>
</mgrwt>
</event>
<event>
 4    1  0.1033139E-008  0.7595507E+03  0.7818608E-02  0.9620485E-01
          2   -1    0    0  501    0  0.00000000000E+00  0.00000000000E+00  0.35317810410E+04  0.35317810410E+04  0.25500000000E-02 0. -1.
         -2   -1    0    0    0  501 -0.00000000000E+00 -0.00000000000E+00 -0.43193111779E+03  0.43193111780E+03  0.25500000000E-02 0.  1.
    8880022    1    1    2    0    0  0.59381847094E+03 -0.44822457336E+03  0.31127213798E+04  0.32040523850E+04  0.15294330000E+03 0.  0.
    8880022    1    1    2    0    0 -0.59381847094E+03  0.44822457336E+03 -0.12871456533E+02  0.75965977385E+03  0.15294330000E+03 0.  0.
<mgrwt>
<rscale>  0 0.75955072E+03</rscale>
<asrwt>0</asrwt>
<pdfrwt beam="1">  1        2 0.54335090E+00 0.75955072E+03</pdfrwt>
<pdfrwt beam="2">  1       -2 0.66450944E-01 0.75955072E+03</pdfrwt>
<totfact> 0.17467892E+00</totfact>
</mgrwt>
</event>
<event>
 4    1  0.1033139E-008  0.4525229E+03  0.7818608E-02  0.1026972E+00
          2   -1    0    0  501    0  0.00000000000E+00  0.00000000000E+00  0.14705060843E+04  0.14705060843E+04  0.25500000000E-02 0. -1.
         -2   -1    0    0    0  501 -0.00000000000E+00 -0.00000000000E+00 -0.76263417228E+03  0.76263417228E+03  0.25500000000E-02 0.  1.
    8880022    1    1    2    0    0  0.37310786431E+03 -0.20536768996E+03 -0.65555775293E+03  0.79657578857E+03  0.15294330000E+03 0.  0.
    8880022    1    1    2    0    0 -0.37310786431E+03  0.20536768996E+03  0.13634296650E+04  0.14365644680E+04  0.15294330000E+03 0.  0.
<mgrwt>
<rscale>  0 0.45252295E+03</rscale>
<asrwt>0</asrwt>
<pdfrwt beam="1">  1        2 0.22623170E+00 0.45252295E+03</pdfrwt>
<pdfrwt beam="2">  1       -2 0.11732834E+00 0.45252295E+03</pdfrwt>
<totfact> 0.80061442E+00</totfact>
</mgrwt>
</event>
<event>
 4    1  0.1033139E-008  0.1096879E+04  0.7818608E-02  0.9208239E-01
          2   -1    0    0  501    0  0.00000000000E+00  0.00000000000E+00  0.90558945131E+03  0.90558945131E+03  0.25500000000E-02 0. -1.
         -2   -1    0    0    0  501 -0.00000000000E+00 -0.00000000000E+00 -0.26647126851E+04  0.26647126851E+04  0.25500000000E-02 0.  1.
    8880022    1    1    2    0    0 -0.96213455774E+03  0.50403313280E+03  0.38452055019E+03  0.11623252611E+04  0.15294330000E+03 0.  0.
    8880022    1    1    2    0    0  0.96213455774E+03 -0.50403313280E+03 -0.21436437839E+04  0.24079768752E+04  0.15294330000E+03 0.  0.
<mgrwt>
<rscale>  0 0.10968792E+04</rscale>
<asrwt>0</asrwt>
<pdfrwt beam="1">  1        2 0.13932146E+00 0.10968792E+04</pdfrwt>
<pdfrwt beam="2">  1       -2 0.40995579E+00 0.10968792E+04</pdfrwt>
<totfact> 0.18601999E-01</totfact>
</mgrwt>
</event>
<event>
 4    1  0.1033139E-008  0.1254516E+04  0.7818608E-02  0.9066433E-01
         -2   -1    0    0    0  501 -0.00000000000E+00  0.00000000000E+00  0.26276081030E+04  0.26276081030E+04  0.25500000000E-02 0.  1.
          2   -1    0    0  501    0  0.00000000000E+00 -0.00000000000E+00 -0.14344340449E+04  0.14344340449E+04  0.25500000000E-02 0. -1.
    8880022    1    1    2    0    0 -0.58939950403E+03 -0.10968263873E+04 -0.95345208060E+03  0.15757164790E+04  0.15294330000E+03 0.  0.
    8880022    1    1    2    0    0  0.58939950403E+03  0.10968263873E+04  0.21466261388E+04  0.24863256689E+04  0.15294330000E+03 0.  0.
<mgrwt>
<rscale>  0 0.12545165E+04</rscale>
<asrwt>0</asrwt>
<pdfrwt beam="1">  1        2 0.22068216E+00 0.12545165E+04</pdfrwt>
<pdfrwt beam="2">  1       -2 0.40424740E+00 0.12545165E+04</pdfrwt>
<totfact> 0.93900603E-02</totfact>
</mgrwt>
</event>
<event>
 4    1  0.1033139E-008  0.5315229E+03  0.7818608E-02  0.1005863E+00
         -2   -1    0    0    0  501 -0.00000000000E+00  0.00000000000E+00  0.28826874627E+03  0.28826874628E+03  0.25500000000E-02 0.  1.
          2   -1    0    0  501    0  0.00000000000E+00 -0.00000000000E+00 -0.16962550375E+04  0.16962550375E+04  0.25500000000E-02 0. -1.
    8880022    1    1    2    0    0 -0.10750634001E+03 -0.49756139653E+03 -0.59229326481E+02  0.53481279209E+03  0.15294330000E+03 0.  0.
    8880022    1    1    2    0    0  0.10750634001E+03  0.49756139653E+03 -0.13487569647E+04  0.14497109917E+04  0.15294330000E+03 0.  0.
<mgrwt>
<rscale>  0 0.53152292E+03</rscale>
<asrwt>0</asrwt>
<pdfrwt beam="1">  1        2 0.26096231E+00 0.53152292E+03</pdfrwt>
<pdfrwt beam="2">  1       -2 0.44349039E-01 0.53152292E+03</pdfrwt>
<totfact> 0.50119528E+01</totfact>
</mgrwt>
</event>
<event>
 4    1  0.1033139E-008  0.5769984E+03  0.7818608E-02  0.9954311E-01
         -2   -1    0    0    0  501 -0.00000000000E+00  0.00000000000E+00  0.34248109385E+03  0.34248109386E+03  0.25500000000E-02 0.  1.
          2   -1    0    0  501    0  0.00000000000E+00 -0.00000000000E+00 -0.32084395208E+04  0.32084395208E+04  0.25500000000E-02 0. -1.
    8880022    1    1    2    0    0  0.21574761514E+03  0.51282402051E+03  0.49308614136E+02  0.57910146079E+03  0.15294330000E+03 0.  0.
    8880022    1    1    2    0    0 -0.21574761514E+03 -0.51282402051E+03 -0.29152670411E+04  0.29718191538E+04  0.15294330000E+03 0.  0.
<mgrwt>
<rscale>  0 0.57699841E+03</rscale>
<asrwt>0</asrwt>
<pdfrwt beam="1">  1        2 0.49360606E+00 0.57699841E+03</pdfrwt>
<pdfrwt beam="2">  1       -2 0.52689401E-01 0.57699841E+03</pdfrwt>
<totfact> 0.48602189E+00</totfact>
</mgrwt>
</event>
<event>
 4    1  0.1033139E-008  0.8284640E+03  0.7818608E-02  0.9519707E-01
          2   -1    0    0  501    0  0.00000000000E+00  0.00000000000E+00  0.22865864391E+04  0.22865864391E+04  0.25500000000E-02 0. -1.
         -2   -1    0    0    0  501 -0.00000000000E+00 -0.00000000000E+00 -0.72180987084E+03  0.72180987085E+03  0.25500000000E-02 0.  1.
    8880022    1    1    2    0    0 -0.20139755779E+03 -0.78892326323E+03  0.19320424195E+04  0.21021751724E+04  0.15294330000E+03 0.  0.
    8880022    1    1    2    0    0  0.20139755779E+03  0.78892326323E+03 -0.36726585131E+03  0.90622113752E+03  0.15294330000E+03 0.  0.
<mgrwt>
<rscale>  0 0.82846397E+03</rscale>
<asrwt>0</asrwt>
<pdfrwt beam="1">  1        2 0.35178253E+00 0.82846397E+03</pdfrwt>
<pdfrwt beam="2">  1       -2 0.11104767E+00 0.82846397E+03</pdfrwt>
<totfact> 0.30511849E+00</totfact>
</mgrwt>
</event>
<event>
 4    1  0.1033139E-008  0.1438768E+04  0.7818608E-02  0.8926225E-01
         -2   -1    0    0    0  501 -0.00000000000E+00  0.00000000000E+00  0.11555147143E+04  0.11555147143E+04  0.25500000000E-02 0.  1.
          2   -1    0    0  501    0  0.00000000000E+00 -0.00000000000E+00 -0.27373813942E+04  0.27373813942E+04  0.25500000000E-02 0. -1.
    8880022    1    1    2    0    0  0.41716292979E+03  0.13684430524E+04  0.35327146481E+03  0.14815038571E+04  0.15294330000E+03 0.  0.
    8880022    1    1    2    0    0 -0.41716292979E+03 -0.13684430524E+04 -0.19351381447E+04  0.24113922513E+04  0.15294330000E+03 0.  0.
<mgrwt>
<rscale>  0 0.14387679E+04</rscale>
<asrwt>0</asrwt>
<pdfrwt beam="1">  1        2 0.42113560E+00 0.14387679E+04</pdfrwt>
<pdfrwt beam="2">  1       -2 0.17777150E+00 0.14387679E+04</pdfrwt>
<totfact> 0.44993849E-01</totfact>
</mgrwt>
</event>
<event>
 4    1  0.1033139E-008  0.4337542E+03  0.7818608E-02  0.1032681E+00
         -2   -1    0    0    0  501 -0.00000000000E+00  0.00000000000E+00  0.23337659128E+03  0.23337659130E+03  0.25500000000E-02 0.  1.
          2   -1    0    0  501    0  0.00000000000E+00 -0.00000000000E+00 -0.21580682813E+04  0.21580682813E+04  0.25500000000E-02 0. -1.
    8880022    1    1    2    0    0 -0.99310374495E+02  0.39355878538E+03 -0.15958873039E+02  0.43404770093E+03  0.15294330000E+03 0.  0.
    8880022    1    1    2    0    0  0.99310374495E+02 -0.39355878538E+03 -0.19087328170E+04  0.19573971716E+04  0.15294330000E+03 0.  0.
<mgrwt>
<rscale>  0 0.43375422E+03</rscale>
<asrwt>0</asrwt>
<pdfrwt beam="1">  1        2 0.33201049E+00 0.43375422E+03</pdfrwt>
<pdfrwt beam="2">  1       -2 0.35904092E-01 0.43375422E+03</pdfrwt>
<totfact> 0.43370983E+01</totfact>
</mgrwt>
</event>
<event>
 4    1  0.1033139E-008  0.4554175E+03  0.7818608E-02  0.1026119E+00
          2   -1    0    0  501    0  0.00000000000E+00  0.00000000000E+00  0.17647541842E+04  0.17647541842E+04  0.25500000000E-02 0. -1.
         -2   -1    0    0    0  501 -0.00000000000E+00 -0.00000000000E+00 -0.14891114083E+03  0.14891114085E+03  0.25500000000E-02 0.  1.
    8880022    1    1    2    0    0 -0.19982396604E+03 -0.37958380238E+03  0.36865110599E+03  0.58592556813E+03  0.15294330000E+03 0.  0.
    8880022    1    1    2    0    0  0.19982396604E+03  0.37958380238E+03  0.12471919373E+04  0.13277397569E+04  0.15294330000E+03 0.  0.
<mgrwt>
<rscale>  0 0.45541754E+03</rscale>
<asrwt>0</asrwt>
<pdfrwt beam="1">  1        2 0.27150065E+00 0.45541754E+03</pdfrwt>
<pdfrwt beam="2">  1       -2 0.22909406E-01 0.45541754E+03</pdfrwt>
<totfact> 0.15965086E+02</totfact>
</mgrwt>
</event>
<event>
 4    1  0.1033139E-008  0.1144593E+04  0.7818608E-02  0.9162786E-01
          2   -1    0    0  501    0  0.00000000000E+00  0.00000000000E+00  0.10444304125E+04  0.10444304125E+04  0.25500000000E-02 0. -1.
         -2   -1    0    0    0  501 -0.00000000000E+00 -0.00000000000E+00 -0.13546285543E+04  0.13546285543E+04  0.25500000000E-02 0.  1.
    8880022    1    1    2    0    0  0.29747349158E+03  0.10946283284E+04 -0.48144629439E+03  0.12417261546E+04  0.15294330000E+03 0.  0.
    8880022    1    1    2    0    0 -0.29747349158E+03 -0.10946283284E+04  0.17124815260E+03  0.11573328122E+04  0.15294330000E+03 0. -1.
<mgrwt>
<rscale>  0 0.11445931E+04</rscale>
<asrwt>0</asrwt>
<pdfrwt beam="1">  1        2 0.16068160E+00 0.11445931E+04</pdfrwt>
<pdfrwt beam="2">  1       -2 0.20840439E+00 0.11445931E+04</pdfrwt>
<totfact> 0.27047493E+00</totfact>
</mgrwt>
</event>
<event>
 4    1  0.1033139E-008  0.8497261E+03  0.7818608E-02  0.9490705E-01
          2   -1    0    0  501    0  0.00000000000E+00  0.00000000000E+00  0.13485767549E+04  0.13485767549E+04  0.25500000000E-02 0. -1.
         -2   -1    0    0    0  501 -0.00000000000E+00 -0.00000000000E+00 -0.64052499538E+03  0.64052499538E+03  0.25500000000E-02 0.  1.
    8880022    1    1    2    0    0 -0.80337337347E+03 -0.23072514143E+03 -0.48878474430E+02  0.85113079275E+03  0.15294330000E+03 0.  0.
    8880022    1    1    2    0    0  0.80337337347E+03  0.23072514143E+03  0.75693023394E+03  0.11379709575E+04  0.15294330000E+03 0.  0.
<mgrwt>
<rscale>  0 0.84972614E+03</rscale>
<asrwt>0</asrwt>
<pdfrwt beam="1">  1        2 0.20747334E+00 0.84972614E+03</pdfrwt>
<pdfrwt beam="2">  1       -2 0.98542309E-01 0.84972614E+03</pdfrwt>
<totfact> 0.13379226E+01</totfact>
</mgrwt>
</event>
<event>
 4    1  0.1033139E-008  0.1128246E+04  0.7818608E-02  0.9178090E-01
          2   -1    0    0  501    0  0.00000000000E+00  0.00000000000E+00  0.93641864873E+03  0.93641864873E+03  0.25500000000E-02 0. -1.
         -2   -1    0    0    0  501 -0.00000000000E+00 -0.00000000000E+00 -0.15599513314E+04  0.15599513314E+04  0.25500000000E-02 0.  1.
    8880022    1    1    2    0    0 -0.10128140085E+03 -0.11132341764E+04 -0.75934371304E+03  0.13599789635E+04  0.15294330000E+03 0.  0.
    8880022    1    1    2    0    0  0.10128140085E+03  0.11132341764E+04  0.13581103034E+03  0.11363910166E+04  0.15294330000E+03 0. -1.
<mgrwt>
<rscale>  0 0.11282464E+04</rscale>
<asrwt>0</asrwt>
<pdfrwt beam="1">  1        2 0.14406441E+00 0.11282464E+04</pdfrwt>
<pdfrwt beam="2">  1       -2 0.23999251E+00 0.11282464E+04</pdfrwt>
<totfact> 0.20154912E+00</totfact>
</mgrwt>
</event>
<event>
 4    1  0.1033139E-008  0.1472213E+04  0.7818608E-02  0.8903144E-01
          2   -1    0    0  501    0  0.00000000000E+00  0.00000000000E+00  0.25866513016E+04  0.25866513016E+04  0.25500000000E-02 0. -1.
         -2   -1    0    0    0  501 -0.00000000000E+00 -0.00000000000E+00 -0.95866219680E+03  0.95866219680E+03  0.25500000000E-02 0.  1.
    8880022    1    1    2    0    0 -0.14430256753E+04  0.24838685521E+03  0.14430930616E+04  0.20615354391E+04  0.15294330000E+03 0.  0.
    8880022    1    1    2    0    0  0.14430256753E+04 -0.24838685521E+03  0.18489604326E+03  0.14837780593E+04  0.15294330000E+03 0.  0.
<mgrwt>
<rscale>  0 0.14722129E+04</rscale>
<asrwt>0</asrwt>
<pdfrwt beam="1">  1        2 0.39794635E+00 0.14722129E+04</pdfrwt>
<pdfrwt beam="2">  1       -2 0.14748649E+00 0.14722129E+04</pdfrwt>
<totfact> 0.92071068E-01</totfact>
</mgrwt>
</event>
<event>
 4    1  0.1033139E-008  0.1536467E+03  0.7818608E-02  0.1196062E+00
          2   -1    0    0  501    0  0.00000000000E+00  0.00000000000E+00  0.27775415080E+04  0.27775415080E+04  0.25500000000E-02 0. -1.
         -2   -1    0    0    0  501 -0.00000000000E+00 -0.00000000000E+00 -0.12505372146E+03  0.12505372149E+03  0.25500000000E-02 0.  1.
    8880022    1    1    2    0    0  0.14675100608E+02 -0.54542384057E+00  0.27273545840E+04  0.27316790323E+04  0.15294330000E+03 0. -1.
    8880022    1    1    2    0    0 -0.14675100608E+02  0.54542384057E+00 -0.74866797442E+02  0.17091619712E+03  0.15294330000E+03 0.  0.
<mgrwt>
<rscale>  0 0.15364670E+03</rscale>
<asrwt>0</asrwt>
<pdfrwt beam="1">  1        2 0.42731406E+00 0.15364670E+03</pdfrwt>
<pdfrwt beam="2">  1       -2 0.19239035E-01 0.15364670E+03</pdfrwt>
<totfact> 0.67467454E+01</totfact>
</mgrwt>
</event>
<event>
 4    1  0.1033139E-008  0.1196268E+04  0.7818608E-02  0.9116129E-01
          2   -1    0    0  501    0  0.00000000000E+00  0.00000000000E+00  0.20212721096E+04  0.20212721096E+04  0.25500000000E-02 0. -1.
         -2   -1    0    0    0  501 -0.00000000000E+00 -0.00000000000E+00 -0.10407337372E+04  0.10407337372E+04  0.25500000000E-02 0.  1.
    8880022    1    1    2    0    0 -0.87254147229E+03 -0.80395070277E+03  0.13559460286E+04  0.18082164248E+04  0.15294330000E+03 0.  0.
    8880022    1    1    2    0    0  0.87254147229E+03  0.80395070277E+03 -0.37540765623E+03  0.12537894220E+04  0.15294330000E+03 0.  0.
<mgrwt>
<rscale>  0 0.11962679E+04</rscale>
<asrwt>0</asrwt>
<pdfrwt beam="1">  1        2 0.31096494E+00 0.11962679E+04</pdfrwt>
<pdfrwt beam="2">  1       -2 0.16011288E+00 0.11962679E+04</pdfrwt>
<totfact> 0.15907015E+00</totfact>
</mgrwt>
</event>
<event>
 4    1  0.1033139E-008  0.1235296E+04  0.7818608E-02  0.9082511E-01
          2   -1    0    0  501    0  0.00000000000E+00  0.00000000000E+00  0.31330651217E+04  0.31330651217E+04  0.25500000000E-02 0. -1.
         -2   -1    0    0    0  501 -0.00000000000E+00 -0.00000000000E+00 -0.69460959347E+03  0.69460959348E+03  0.25500000000E-02 0.  1.
    8880022    1    1    2    0    0  0.42652306361E+03  0.11491917959E+04  0.17304542883E+03  0.12473572388E+04  0.15294330000E+03 0.  0.
    8880022    1    1    2    0    0 -0.42652306361E+03 -0.11491917959E+04  0.22654100994E+04  0.25803174764E+04  0.15294330000E+03 0.  0.
<mgrwt>
<rscale>  0 0.12352957E+04</rscale>
<asrwt>0</asrwt>
<pdfrwt beam="1">  1        2 0.48201002E+00 0.12352957E+04</pdfrwt>
<pdfrwt beam="2">  1       -2 0.10686302E+00 0.12352957E+04</pdfrwt>
<totfact> 0.99686132E-01</totfact>
</mgrwt>
</event>
<event>
 4    1  0.1033139E-008  0.9489428E+03  0.7818608E-02  0.9366387E-01
          2   -1    0    0  501    0  0.00000000000E+00  0.00000000000E+00  0.16636756757E+04  0.16636756757E+04  0.25500000000E-02 0. -1.
         -2   -1    0    0    0  501 -0.00000000000E+00 -0.00000000000E+00 -0.79712680706E+03  0.79712680706E+03  0.25500000000E-02 0.  1.
    8880022    1    1    2    0    0  0.20683046613E+02  0.93630816365E+03 -0.26380818158E+03  0.98493003580E+03  0.15294330000E+03 0.  0.
    8880022    1    1    2    0    0 -0.20683046613E+02 -0.93630816365E+03  0.11303570503E+04  0.14758724470E+04  0.15294330000E+03 0.  0.
<mgrwt>
<rscale>  0 0.94894279E+03</rscale>
<asrwt>0</asrwt>
<pdfrwt beam="1">  1        2 0.25595010E+00 0.94894279E+03</pdfrwt>
<pdfrwt beam="2">  1       -2 0.12263489E+00 0.94894279E+03</pdfrwt>
<totfact> 0.51739989E+00</totfact>
</mgrwt>
</event>
<event>
 4    1  0.1033139E-008  0.1067568E+04  0.7818608E-02  0.9237392E-01
          2   -1    0    0  501    0  0.00000000000E+00  0.00000000000E+00  0.18776445524E+04  0.18776445524E+04  0.25500000000E-02 0. -1.
         -2   -1    0    0    0  501 -0.00000000000E+00 -0.00000000000E+00 -0.11728566570E+04  0.11728566570E+04  0.25500000000E-02 0.  1.
    8880022    1    1    2    0    0 -0.77026274260E+03 -0.72319021657E+03 -0.70705014582E+03  0.12804766080E+04  0.15294330000E+03 0.  0.
    8880022    1    1    2    0    0  0.77026274260E+03  0.72319021657E+03  0.14118380411E+04  0.17700246014E+04  0.15294330000E+03 0.  0.
<mgrwt>
<rscale>  0 0.10675675E+04</rscale>
<asrwt>0</asrwt>
<pdfrwt beam="1">  1        2 0.28886839E+00 0.10675675E+04</pdfrwt>
<pdfrwt beam="2">  1       -2 0.18043949E+00 0.10675675E+04</pdfrwt>
<totfact> 0.13887951E+00</totfact>
</mgrwt>
</event>
<event>
 4    1  0.1033139E-008  0.1013230E+04  0.7818608E-02  0.9294153E-01
         -2   -1    0    0    0  501 -0.00000000000E+00  0.00000000000E+00  0.93437460080E+03  0.93437460081E+03  0.25500000000E-02 0.  1.
          2   -1    0    0  501    0  0.00000000000E+00 -0.00000000000E+00 -0.21588015897E+04  0.21588015897E+04  0.25500000000E-02 0. -1.
    8880022    1    1    2    0    0  0.94486070311E+03 -0.33238646474E+03 -0.16959756360E+04  0.19755929543E+04  0.15294330000E+03 0.  0.
    8880022    1    1    2    0    0 -0.94486070311E+03  0.33238646474E+03  0.47154864710E+03  0.11175832362E+04  0.15294330000E+03 0.  0.
<mgrwt>
<rscale>  0 0.10132296E+04</rscale>
<asrwt>0</asrwt>
<pdfrwt beam="1">  1        2 0.33212332E+00 0.10132296E+04</pdfrwt>
<pdfrwt beam="2">  1       -2 0.14374994E+00 0.10132296E+04</pdfrwt>
<totfact> 0.18226191E+00</totfact>
</mgrwt>
</event>
<event>
 4    1  0.1033139E-008  0.4670824E+03  0.7818608E-02  0.1022747E+00
         -2   -1    0    0    0  501 -0.00000000000E+00  0.00000000000E+00  0.13597557346E+03  0.13597557348E+03  0.25500000000E-02 0.  1.
          2   -1    0    0  501    0  0.00000000000E+00 -0.00000000000E+00 -0.26881595537E+04  0.26881595537E+04  0.25500000000E-02 0. -1.
    8880022    1    1    2    0    0  0.30281991688E+02 -0.44029231362E+03 -0.21726625187E+04  0.22223024983E+04  0.15294330000E+03 0.  0.
    8880022    1    1    2    0    0 -0.30281991688E+02  0.44029231362E+03 -0.37952146146E+03  0.60183262887E+03  0.15294330000E+03 0.  0.
<mgrwt>
<rscale>  0 0.46708241E+03</rscale>
<asrwt>0</asrwt>
<pdfrwt beam="1">  1        2 0.41356297E+00 0.46708241E+03</pdfrwt>
<pdfrwt beam="2">  1       -2 0.20919321E-01 0.46708241E+03</pdfrwt>
<totfact> 0.58389883E+01</totfact>
</mgrwt>
</event>
<event>
 4    1  0.1033139E-008  0.1128440E+04  0.7818608E-02  0.9177908E-01
         -2   -1    0    0    0  501 -0.00000000000E+00  0.00000000000E+00  0.14070071119E+04  0.14070071119E+04  0.25500000000E-02 0.  1.
          2   -1    0    0  501    0  0.00000000000E+00 -0.00000000000E+00 -0.21809545966E+04  0.21809545966E+04  0.25500000000E-02 0. -1.
    8880022    1    1    2    0    0  0.11043617246E+04 -0.17426792943E+03 -0.17591438293E+04  0.20899671757E+04  0.15294330000E+03 0.  0.
    8880022    1    1    2    0    0 -0.11043617246E+04  0.17426792943E+03  0.98519634467E+03  0.14979945329E+04  0.15294330000E+03 0.  0.
<mgrwt>
<rscale>  0 0.11284395E+04</rscale>
<asrwt>0</asrwt>
<pdfrwt beam="1">  1        2 0.33553148E+00 0.11284395E+04</pdfrwt>
<pdfrwt beam="2">  1       -2 0.21646263E+00 0.11284395E+04</pdfrwt>
<totfact> 0.54137003E-01</totfact>
</mgrwt>
</event>
<event>
 4    1  0.1033139E-008  0.8588338E+03  0.7818608E-02  0.9478557E-01
         -2   -1    0    0    0  501 -0.00000000000E+00  0.00000000000E+00  0.35157232576E+03  0.35157232577E+03  0.25500000000E-02 0.  1.
          2   -1    0    0  501    0  0.00000000000E+00 -0.00000000000E+00 -0.30268986351E+04  0.30268986351E+04  0.25500000000E-02 0. -1.
    8880022    1    1    2    0    0  0.63050856890E+03  0.56272805284E+03 -0.40187503822E+03  0.94820837175E+03  0.15294330000E+03 0.  0.
    8880022    1    1    2    0    0 -0.63050856890E+03 -0.56272805284E+03 -0.22734512711E+04  0.24302625891E+04  0.15294330000E+03 0.  0.
<mgrwt>
<rscale>  0 0.85883384E+03</rscale>
<asrwt>0</asrwt>
<pdfrwt beam="1">  1        2 0.46567669E+00 0.85883384E+03</pdfrwt>
<pdfrwt beam="2">  1       -2 0.54088052E-01 0.85883384E+03</pdfrwt>
<totfact> 0.56382327E+00</totfact>
</mgrwt>
</event>
<event>
 4    1  0.1033139E-008  0.7022573E+03  0.7818608E-02  0.9713380E-01
         -2   -1    0    0    0  501 -0.00000000000E+00  0.00000000000E+00  0.52041274282E+03  0.52041274282E+03  0.25500000000E-02 0.  1.
          2   -1    0    0  501    0  0.00000000000E+00 -0.00000000000E+00 -0.20606024639E+04  0.20606024639E+04  0.25500000000E-02 0. -1.
    8880022    1    1    2    0    0 -0.44998565200E+03  0.51699759313E+03 -0.17185203649E+04  0.18564690937E+04  0.15294330000E+03 0.  0.
    8880022    1    1    2    0    0  0.44998565200E+03 -0.51699759313E+03  0.17833064384E+03  0.72454611299E+03  0.15294330000E+03 0.  0.
<mgrwt>
<rscale>  0 0.70225725E+03</rscale>
<asrwt>0</asrwt>
<pdfrwt beam="1">  1        2 0.31701576E+00 0.70225725E+03</pdfrwt>
<pdfrwt beam="2">  1       -2 0.80063500E-01 0.70225725E+03</pdfrwt>
<totfact> 0.89132766E+00</totfact>
</mgrwt>
</event>
<event>
 4    1  0.1033139E-008  0.9656102E+03  0.7818608E-02  0.9347089E-01
         -2   -1    0    0    0  501 -0.00000000000E+00  0.00000000000E+00  0.55956315612E+03  0.55956315612E+03  0.25500000000E-02 0.  1.
          2   -1    0    0  501    0  0.00000000000E+00 -0.00000000000E+00 -0.17770800519E+04  0.17770800519E+04  0.25500000000E-02 0. -1.
    8880022    1    1    2    0    0  0.87357168230E+03  0.38194742634E+03 -0.31706304694E+03  0.10163325978E+04  0.15294330000E+03 0.  0.
    8880022    1    1    2    0    0 -0.87357168230E+03 -0.38194742634E+03 -0.90045384886E+03  0.13203106103E+04  0.15294330000E+03 0.  0.
<mgrwt>
<rscale>  0 0.96561016E+03</rscale>
<asrwt>0</asrwt>
<pdfrwt beam="1">  1        2 0.27339693E+00 0.96561016E+03</pdfrwt>
<pdfrwt beam="2">  1       -2 0.86086640E-01 0.96561016E+03</pdfrwt>
<totfact> 0.10428581E+01</totfact>
</mgrwt>
</event>
<event>
 4    1  0.1033139E-008  0.1076064E+04  0.7818608E-02  0.9228841E-01
         -2   -1    0    0    0  501 -0.00000000000E+00  0.00000000000E+00  0.49112145530E+03  0.49112145531E+03  0.25500000000E-02 0.  1.
          2   -1    0    0  501    0  0.00000000000E+00 -0.00000000000E+00 -0.26583679881E+04  0.26583679881E+04  0.25500000000E-02 0. -1.
    8880022    1    1    2    0    0 -0.10160694347E+04 -0.31956943762E+03 -0.16132277096E+04  0.19391794702E+04  0.15294330000E+03 0.  0.
    8880022    1    1    2    0    0  0.10160694347E+04  0.31956943762E+03 -0.55401882315E+03  0.12103099731E+04  0.15294330000E+03 0.  0.
<mgrwt>
<rscale>  0 0.10760638E+04</rscale>
<asrwt>0</asrwt>
<pdfrwt beam="1">  1        2 0.40897968E+00 0.10760638E+04</pdfrwt>
<pdfrwt beam="2">  1       -2 0.75557148E-01 0.10760638E+04</pdfrwt>
<totfact> 0.44320530E+00</totfact>
</mgrwt>
</event>
<event>
 4    1  0.1033139E-008  0.8518018E+03  0.7818608E-02  0.9487922E-01
         -2   -1    0    0    0  501 -0.00000000000E+00  0.00000000000E+00  0.43409009229E+04  0.43409009229E+04  0.25500000000E-02 0.  1.
          2   -1    0    0  501    0  0.00000000000E+00 -0.00000000000E+00 -0.35879064677E+03  0.35879064678E+03  0.25500000000E-02 0. -1.
    8880022    1    1    2    0    0  0.81930872079E+03 -0.17580627163E+03  0.37084359863E+04  0.38050050911E+04  0.15294330000E+03 0.  0.
    8880022    1    1    2    0    0 -0.81930872079E+03  0.17580627163E+03  0.27367428976E+03  0.89468647860E+03  0.15294330000E+03 0.  0.
<mgrwt>
<rscale>  0 0.85180178E+03</rscale>
<asrwt>0</asrwt>
<pdfrwt beam="1">  1        2 0.55198562E-01 0.85180178E+03</pdfrwt>
<pdfrwt beam="2">  1       -2 0.66783090E+00 0.85180178E+03</pdfrwt>
<totfact> 0.26879967E-02</totfact>
</mgrwt>
</event>
<event>
 4    1  0.1033139E-008  0.1286937E+04  0.7818608E-02  0.9039989E-01
         -2   -1    0    0    0  501 -0.00000000000E+00  0.00000000000E+00  0.16061516534E+04  0.16061516534E+04  0.25500000000E-02 0.  1.
          2   -1    0    0  501    0  0.00000000000E+00 -0.00000000000E+00 -0.11620192083E+04  0.11620192083E+04  0.25500000000E-02 0. -1.
    8880022    1    1    2    0    0  0.54692728416E+03 -0.11548534023E+04  0.68652798784E+03  0.14586048698E+04  0.15294330000E+03 0.  0.
    8880022    1    1    2    0    0 -0.54692728416E+03  0.11548534023E+04 -0.24239554276E+03  0.13095659919E+04  0.15294330000E+03 0.  0.
<mgrwt>
<rscale>  0 0.12869373E+04</rscale>
<asrwt>0</asrwt>
<pdfrwt beam="1">  1        2 0.17877219E+00 0.12869373E+04</pdfrwt>
<pdfrwt beam="2">  1       -2 0.24710026E+00 0.12869373E+04</pdfrwt>
<totfact> 0.12884596E+00</totfact>
</mgrwt>
</event>
<event>
 4    1  0.1033139E-008  0.1583979E+04  0.7818608E-02  0.8830451E-01
         -2   -1    0    0    0  501 -0.00000000000E+00  0.00000000000E+00  0.23790865244E+04  0.23790865244E+04  0.25500000000E-02 0.  1.
          2   -1    0    0  501    0  0.00000000000E+00 -0.00000000000E+00 -0.11759584541E+04  0.11759584541E+04  0.25500000000E-02 0. -1.
    8880022    1    1    2    0    0 -0.14972016317E+04 -0.49394855155E+03  0.11725828861E+04  0.19707714671E+04  0.15294330000E+03 0.  0.
    8880022    1    1    2    0    0  0.14972016317E+04  0.49394855155E+03  0.30545184195E+02  0.15842735114E+04  0.15294330000E+03 0.  0.
<mgrwt>
<rscale>  0 0.15839790E+04</rscale>
<asrwt>0</asrwt>
<pdfrwt beam="1">  1        2 0.18091668E+00 0.15839790E+04</pdfrwt>
<pdfrwt beam="2">  1       -2 0.36601331E+00 0.15839790E+04</pdfrwt>
<totfact> 0.22615239E-01</totfact>
</mgrwt>
</event>
<event>
 4    1  0.1053254E-008  0.9412294E+03  0.7818608E-02  0.9375461E-01
         -2   -1    0    0    0  501 -0.00000000000E+00  0.00000000000E+00  0.23421790607E+04  0.23421790607E+04  0.25500000000E-02 0.  1.
          2   -1    0    0  501    0  0.00000000000E+00 -0.00000000000E+00 -0.14893221426E+04  0.14893221426E+04  0.25500000000E-02 0. -1.
    8880022    1    1    2    0    0  0.90401039215E+03  0.21280570318E+03  0.20811204138E+04  0.22840698076E+04  0.15294330000E+03 0.  0.
    8880022    1    1    2    0    0 -0.90401039215E+03 -0.21280570318E+03 -0.12282634957E+04  0.15474313957E+04  0.15294330000E+03 0.  0.
<mgrwt>
<rscale>  0 0.94122936E+03</rscale>
<asrwt>0</asrwt>
<pdfrwt beam="1">  1        2 0.22912648E+00 0.94122936E+03</pdfrwt>
<pdfrwt beam="2">  1       -2 0.36033524E+00 0.94122936E+03</pdfrwt>
<totfact> 0.17664195E-01</totfact>
</mgrwt>
</event>
<event>
 4    1  0.1033139E-008  0.7276773E+03  0.7818608E-02  0.9671037E-01
         -2   -1    0    0    0  501 -0.00000000000E+00  0.00000000000E+00  0.59286549523E+03  0.59286549523E+03  0.25500000000E-02 0.  1.
          2   -1    0    0  501    0  0.00000000000E+00 -0.00000000000E+00 -0.13567273175E+04  0.13567273175E+04  0.25500000000E-02 0. -1.
    8880022    1    1    2    0    0  0.27486019032E+02 -0.71089179064E+03  0.18788100146E+03  0.75154077931E+03  0.15294330000E+03 0.  0.
    8880022    1    1    2    0    0 -0.27486019032E+02  0.71089179064E+03 -0.95174282374E+03  0.11980520334E+04  0.15294330000E+03 0.  0.
<mgrwt>
<rscale>  0 0.72767731E+03</rscale>
<asrwt>0</asrwt>
<pdfrwt beam="1">  1        2 0.20872728E+00 0.72767731E+03</pdfrwt>
<pdfrwt beam="2">  1       -2 0.91210076E-01 0.72767731E+03</pdfrwt>
<totfact> 0.16087377E+01</totfact>
</mgrwt>
</event>
<event>
 4    1  0.1033139E-008  0.1319463E+04  0.7818608E-02  0.9014271E-01
         -2   -1    0    0    0  501 -0.00000000000E+00  0.00000000000E+00  0.51179905997E+03  0.51179905998E+03  0.25500000000E-02 0.  1.
          2   -1    0    0  501    0  0.00000000000E+00 -0.00000000000E+00 -0.39880285178E+04  0.39880285178E+04  0.25500000000E-02 0. -1.
    8880022    1    1    2    0    0 -0.21072085737E+03 -0.12935177836E+04 -0.26008149645E+04  0.29163713187E+04  0.15294330000E+03 0.  0.
    8880022    1    1    2    0    0  0.21072085737E+03  0.12935177836E+04 -0.87541449332E+03  0.15834562590E+04  0.15294330000E+03 0.  0.
<mgrwt>
<rscale>  0 0.13194632E+04</rscale>
<asrwt>0</asrwt>
<pdfrwt beam="1">  1        2 0.61354283E+00 0.13194632E+04</pdfrwt>
<pdfrwt beam="2">  1       -2 0.78738320E-01 0.13194632E+04</pdfrwt>
<totfact> 0.50033291E-01</totfact>
</mgrwt>
</event>
<event>
 4    1  0.1033139E-008  0.3055227E+03  0.7818608E-02  0.1082512E+00
         -2   -1    0    0    0  501 -0.00000000000E+00  0.00000000000E+00  0.47501784303E+03  0.47501784304E+03  0.25500000000E-02 0.  1.
          2   -1    0    0  501    0  0.00000000000E+00 -0.00000000000E+00 -0.10065439671E+04  0.10065439671E+04  0.25500000000E-02 0. -1.
    8880022    1    1    2    0    0 -0.26306135555E+03 -0.27407464670E+02  0.39878432486E+03  0.50236743194E+03  0.15294330000E+03 0.  0.
    8880022    1    1    2    0    0  0.26306135555E+03  0.27407464670E+02 -0.93031044890E+03  0.97919437817E+03  0.15294330000E+03 0.  0.
<mgrwt>
<rscale>  0 0.30552267E+03</rscale>
<asrwt>0</asrwt>
<pdfrwt beam="1">  1        2 0.15485292E+00 0.30552267E+03</pdfrwt>
<pdfrwt beam="2">  1       -2 0.73079668E-01 0.30552267E+03</pdfrwt>
<totfact> 0.45530219E+01</totfact>
</mgrwt>
</event>
<event>
 4    1  0.1033139E-008  0.3917333E+03  0.7818608E-02  0.1046680E+00
          2   -1    0    0  501    0  0.00000000000E+00  0.00000000000E+00  0.82871402314E+03  0.82871402314E+03  0.25500000000E-02 0. -1.
         -2   -1    0    0    0  501 -0.00000000000E+00 -0.00000000000E+00 -0.11550837656E+04  0.11550837656E+04  0.25500000000E-02 0.  1.
    8880022    1    1    2    0    0  0.10958087067E+03 -0.34359184606E+03  0.74573727875E+03  0.84236516181E+03  0.15294330000E+03 0. -1.
    8880022    1    1    2    0    0 -0.10958087067E+03  0.34359184606E+03 -0.10721070212E+04  0.11414326269E+04  0.15294330000E+03 0.  0.
<mgrwt>
<rscale>  0 0.39173330E+03</rscale>
<asrwt>0</asrwt>
<pdfrwt beam="1">  1        2 0.12749447E+00 0.39173330E+03</pdfrwt>
<pdfrwt beam="2">  1       -2 0.17770519E+00 0.39173330E+03</pdfrwt>
<totfact> 0.67008721E+00</totfact>
</mgrwt>
</event>
<event>
 4    1  0.1033139E-008  0.1467584E+04  0.7818608E-02  0.8906300E-01
          2   -1    0    0  501    0  0.00000000000E+00  0.00000000000E+00  0.27285352452E+04  0.27285352452E+04  0.25500000000E-02 0. -1.
         -2   -1    0    0    0  501 -0.00000000000E+00 -0.00000000000E+00 -0.90360611443E+03  0.90360611443E+03  0.25500000000E-02 0.  1.
    8880022    1    1    2    0    0  0.57459934703E+03  0.13417331518E+04  0.26672294667E+03  0.14916249674E+04  0.15294330000E+03 0.  0.
    8880022    1    1    2    0    0 -0.57459934703E+03 -0.13417331518E+04  0.15582061841E+04  0.21405163922E+04  0.15294330000E+03 0.  0.
<mgrwt>
<rscale>  0 0.14675844E+04</rscale>
<asrwt>0</asrwt>
<pdfrwt beam="1">  1        2 0.41977464E+00 0.14675844E+04</pdfrwt>
<pdfrwt beam="2">  1       -2 0.13901633E+00 0.14675844E+04</pdfrwt>
<totfact> 0.88805693E-01</totfact>
</mgrwt>
</event>
<event>
 4    1  0.1033139E-008  0.5367355E+03  0.7818608E-02  0.1004612E+00
         -2   -1    0    0    0  501 -0.00000000000E+00  0.00000000000E+00  0.51635616429E+03  0.51635616430E+03  0.25500000000E-02 0.  1.
          2   -1    0    0  501    0  0.00000000000E+00 -0.00000000000E+00 -0.16208585950E+04  0.16208585950E+04  0.25500000000E-02 0. -1.
    8880022    1    1    2    0    0 -0.22869511506E+03 -0.46085996402E+03 -0.14176172748E+04  0.15158244466E+04  0.15294330000E+03 0.  0.
    8880022    1    1    2    0    0  0.22869511506E+03  0.46085996402E+03  0.31311484410E+03  0.62139031268E+03  0.15294330000E+03 0.  0.
<mgrwt>
<rscale>  0 0.53673552E+03</rscale>
<asrwt>0</asrwt>
<pdfrwt beam="1">  1        2 0.24936286E+00 0.53673552E+03</pdfrwt>
<pdfrwt beam="2">  1       -2 0.79439411E-01 0.53673552E+03</pdfrwt>
<totfact> 0.16176987E+01</totfact>
</mgrwt>
</event>
<event>
 4    1  0.1033139E-008  0.1129439E+04  0.7818608E-02  0.9176965E-01
         -2   -1    0    0    0  501 -0.00000000000E+00  0.00000000000E+00  0.14348482716E+04  0.14348482716E+04  0.25500000000E-02 0.  1.
          2   -1    0    0  501    0  0.00000000000E+00 -0.00000000000E+00 -0.24334885697E+04  0.24334885697E+04  0.25500000000E-02 0. -1.
    8880022    1    1    2    0    0  0.87738962692E+03 -0.69456984405E+03  0.10415532191E+04  0.15363803523E+04  0.15294330000E+03 0.  0.
    8880022    1    1    2    0    0 -0.87738962692E+03  0.69456984405E+03 -0.20401935173E+04  0.23319564890E+04  0.15294330000E+03 0.  0.
<mgrwt>
<rscale>  0 0.11294386E+04</rscale>
<asrwt>0</asrwt>
<pdfrwt beam="1">  1        2 0.37438286E+00 0.11294386E+04</pdfrwt>
<pdfrwt beam="2">  1       -2 0.22074589E+00 0.11294386E+04</pdfrwt>
<totfact> 0.36651608E-01</totfact>
</mgrwt>
</event>
<event>
 4    1  0.1033139E-008  0.1973362E+04  0.7818608E-02  0.8619177E-01
         -2   -1    0    0    0  501 -0.00000000000E+00  0.00000000000E+00  0.16737215451E+04  0.16737215451E+04  0.25500000000E-02 0.  1.
          2   -1    0    0  501    0  0.00000000000E+00 -0.00000000000E+00 -0.33667678724E+04  0.33667678724E+04  0.25500000000E-02 0. -1.
    8880022    1    1    2    0    0  0.41191652309E+03  0.19238224029E+04  0.55428283453E+03  0.20497290000E+04  0.15294330000E+03 0.  0.
    8880022    1    1    2    0    0 -0.41191652309E+03 -0.19238224029E+04 -0.22473291619E+04  0.29907604175E+04  0.15294330000E+03 0.  0.
<mgrwt>
<rscale>  0 0.19733625E+04</rscale>
<asrwt>0</asrwt>
<pdfrwt beam="1">  1        2 0.51796429E+00 0.19733625E+04</pdfrwt>
<pdfrwt beam="2">  1       -2 0.25749562E+00 0.19733625E+04</pdfrwt>
<totfact> 0.51664923E-02</totfact>
</mgrwt>
</event>
<event>
 4    1  0.1033139E-008  0.3170310E+03  0.7818608E-02  0.1077024E+00
          2   -1    0    0  501    0  0.00000000000E+00  0.00000000000E+00  0.20145634721E+04  0.20145634721E+04  0.25500000000E-02 0. -1.
         -2   -1    0    0    0  501 -0.00000000000E+00 -0.00000000000E+00 -0.66312018431E+02  0.66312018480E+02  0.25500000000E-02 0.  1.
    8880022    1    1    2    0    0 -0.49979619790E+02 -0.27316490758E+03  0.45637658197E+03  0.55568720222E+03  0.15294330000E+03 0.  0.
    8880022    1    1    2    0    0  0.49979619790E+02  0.27316490758E+03  0.14918748717E+04  0.15251882884E+04  0.15294330000E+03 0.  0.
<mgrwt>
<rscale>  0 0.31703104E+03</rscale>
<asrwt>0</asrwt>
<pdfrwt beam="1">  1        2 0.30993280E+00 0.31703104E+03</pdfrwt>
<pdfrwt beam="2">  1       -2 0.10201850E-01 0.31703104E+03</pdfrwt>
<totfact> 0.46641636E+02</totfact>
</mgrwt>
</event>
<event>
 4    1  0.1033139E-008  0.6365883E+03  0.7818608E-02  0.9832276E-01
          2   -1    0    0  501    0  0.00000000000E+00  0.00000000000E+00  0.14500662707E+04  0.14500662707E+04  0.25500000000E-02 0. -1.
         -2   -1    0    0    0  501 -0.00000000000E+00 -0.00000000000E+00 -0.83784491530E+03  0.83784491530E+03  0.25500000000E-02 0.  1.
    8880022    1    1    2    0    0 -0.61141693396E+03 -0.89567879833E+02  0.12399920585E+04  0.13938525856E+04  0.15294330000E+03 0.  0.
    8880022    1    1    2    0    0  0.61141693396E+03  0.89567879833E+02 -0.62777070311E+03  0.89405860039E+03  0.15294330000E+03 0.  0.
<mgrwt>
<rscale>  0 0.63658835E+03</rscale>
<asrwt>0</asrwt>
<pdfrwt beam="1">  1        2 0.22308712E+00 0.63658835E+03</pdfrwt>
<pdfrwt beam="2">  1       -2 0.12889922E+00 0.63658835E+03</pdfrwt>
<totfact> 0.62703038E+00</totfact>
</mgrwt>
</event>
<event>
 4    1  0.1033139E-008  0.6588150E+03  0.7818608E-02  0.9790378E-01
         -2   -1    0    0    0  501 -0.00000000000E+00  0.00000000000E+00  0.41878416273E+03  0.41878416274E+03  0.25500000000E-02 0.  1.
          2   -1    0    0  501    0  0.00000000000E+00 -0.00000000000E+00 -0.28761895337E+04  0.28761895337E+04  0.25500000000E-02 0. -1.
    8880022    1    1    2    0    0  0.59359671691E+03  0.24143009560E+03 -0.25463362717E+04  0.26301835706E+04  0.15294330000E+03 0.  0.
    8880022    1    1    2    0    0 -0.59359671691E+03 -0.24143009560E+03  0.88930900680E+02  0.66479012590E+03  0.15294330000E+03 0.  0.
<mgrwt>
<rscale>  0 0.65881500E+03</rscale>
<asrwt>0</asrwt>
<pdfrwt beam="1">  1        2 0.44249068E+00 0.65881500E+03</pdfrwt>
<pdfrwt beam="2">  1       -2 0.64428335E-01 0.65881500E+03</pdfrwt>
<totfact> 0.50018322E+00</totfact>
</mgrwt>
</event>
<event>
 4    1  0.1033139E-008  0.3098377E+03  0.7818608E-02  0.1080424E+00
          2   -1    0    0  501    0  0.00000000000E+00  0.00000000000E+00  0.10527844116E+04  0.10527844116E+04  0.25500000000E-02 0. -1.
         -2   -1    0    0    0  501 -0.00000000000E+00 -0.00000000000E+00 -0.11527935939E+04  0.11527935939E+04  0.25500000000E-02 0.  1.
    8880022    1    1    2    0    0  0.26671340541E+03  0.38362461934E+02  0.10082706215E+04  0.10548028339E+04  0.15294330000E+03 0. -1.
    8880022    1    1    2    0    0 -0.26671340541E+03 -0.38362461934E+02 -0.11082798038E+04  0.11507751716E+04  0.15294330000E+03 0.  0.
<mgrwt>
<rscale>  0 0.30983765E+03</rscale>
<asrwt>0</asrwt>
<pdfrwt beam="1">  1        2 0.16196683E+00 0.30983765E+03</pdfrwt>
<pdfrwt beam="2">  1       -2 0.17735286E+00 0.30983765E+03</pdfrwt>
<totfact> 0.49559486E+00</totfact>
</mgrwt>
</event>
<event>
 4    1  0.1033139E-008  0.5784395E+03  0.7818608E-02  0.9951175E-01
          2   -1    0    0  501    0  0.00000000000E+00  0.00000000000E+00  0.31893044324E+04  0.31893044324E+04  0.25500000000E-02 0. -1.
         -2   -1    0    0    0  501 -0.00000000000E+00 -0.00000000000E+00 -0.35977383574E+03  0.35977383575E+03  0.25500000000E-02 0.  1.
    8880022    1    1    2    0    0  0.55418299583E+03  0.63889175494E+02 -0.78800205114E+02  0.58378227530E+03  0.15294330000E+03 0.  0.
    8880022    1    1    2    0    0 -0.55418299583E+03 -0.63889175494E+02  0.29083308018E+04  0.29652959929E+04  0.15294330000E+03 0.  0.
<mgrwt>
<rscale>  0 0.57843952E+03</rscale>
<asrwt>0</asrwt>
<pdfrwt beam="1">  1        2 0.49066222E+00 0.57843952E+03</pdfrwt>
<pdfrwt beam="2">  1       -2 0.55349821E-01 0.57843952E+03</pdfrwt>
<totfact> 0.45135461E+00</totfact>
</mgrwt>
</event>
<event>
 4    1  0.1033139E-008  0.1217823E+04  0.7818608E-02  0.9097398E-01
          2   -1    0    0  501    0  0.00000000000E+00  0.00000000000E+00  0.24516454788E+04  0.24516454788E+04  0.25500000000E-02 0. -1.
         -2   -1    0    0    0  501 -0.00000000000E+00 -0.00000000000E+00 -0.77274587352E+03  0.77274587353E+03  0.25500000000E-02 0.  1.
    8880022    1    1    2    0    0  0.86046728499E+03 -0.84811380941E+03  0.88162524400E+02  0.12210099369E+04  0.15294330000E+03 0.  0.
    8880022    1    1    2    0    0 -0.86046728499E+03  0.84811380941E+03  0.15907370809E+04  0.20033814154E+04  0.15294330000E+03 0.  0.
<mgrwt>
<rscale>  0 0.12178229E+04</rscale>
<asrwt>0</asrwt>
<pdfrwt beam="1">  1        2 0.37717623E+00 0.12178229E+04</pdfrwt>
<pdfrwt beam="2">  1       -2 0.11888398E+00 0.12178229E+04</pdfrwt>
<totfact> 0.19738829E+00</totfact>
</mgrwt>
</event>
<event>
 4    1  0.1033139E-008  0.3733340E+03  0.7818608E-02  0.1053425E+00
          2   -1    0    0  501    0  0.00000000000E+00  0.00000000000E+00  0.87634870080E+03  0.87634870080E+03  0.25500000000E-02 0. -1.
         -2   -1    0    0    0  501 -0.00000000000E+00 -0.00000000000E+00 -0.10202217201E+04  0.10202217201E+04  0.25500000000E-02 0.  1.
    8880022    1    1    2    0    0  0.15529104004E+03 -0.30310286871E+03  0.79930387738E+03  0.88219328809E+03  0.15294330000E+03 0.  0.
    8880022    1    1    2    0    0 -0.15529104004E+03  0.30310286871E+03 -0.94317689673E+03  0.10143771329E+04  0.15294330000E+03 0.  1.
<mgrwt>
<rscale>  0 0.37333404E+03</rscale>
<asrwt>0</asrwt>
<pdfrwt beam="1">  1        2 0.13482288E+00 0.37333404E+03</pdfrwt>
<pdfrwt beam="2">  1       -2 0.15695719E+00 0.37333404E+03</pdfrwt>
<totfact> 0.87564374E+00</totfact>
</mgrwt>
</event>
<event>
 4    1  0.1033139E-008  0.8017697E+03  0.7818608E-02  0.9557459E-01
         -2   -1    0    0    0  501 -0.00000000000E+00  0.00000000000E+00  0.29875748350E+03  0.29875748351E+03  0.25500000000E-02 0.  1.
          2   -1    0    0  501    0  0.00000000000E+00 -0.00000000000E+00 -0.23577560635E+04  0.23577560635E+04  0.25500000000E-02 0. -1.
    8880022    1    1    2    0    0 -0.66253847410E+03  0.42483614582E+03 -0.63682559682E+03  0.10239050123E+04  0.15294330000E+03 0.  0.
    8880022    1    1    2    0    0  0.66253847410E+03 -0.42483614582E+03 -0.14221729831E+04  0.16326085347E+04  0.15294330000E+03 0.  0.
<mgrwt>
<rscale>  0 0.80176969E+03</rscale>
<asrwt>0</asrwt>
<pdfrwt beam="1">  1        2 0.36273169E+00 0.80176969E+03</pdfrwt>
<pdfrwt beam="2">  1       -2 0.45962691E-01 0.80176969E+03</pdfrwt>
<totfact> 0.19518219E+01</totfact>
</mgrwt>
</event>
<event>
 4    1  0.1033139E-008  0.7698807E+03  0.7818608E-02  0.9604667E-01
         -2   -1    0    0    0  501 -0.00000000000E+00  0.00000000000E+00  0.13840462336E+04  0.13840462336E+04  0.25500000000E-02 0.  1.
          2   -1    0    0  501    0  0.00000000000E+00 -0.00000000000E+00 -0.14896710447E+04  0.14896710447E+04  0.25500000000E-02 0. -1.
    8880022    1    1    2    0    0  0.72041199893E+03 -0.22434613422E+03 -0.12656786958E+04  0.14814381021E+04  0.15294330000E+03 0.  0.
    8880022    1    1    2    0    0 -0.72041199893E+03  0.22434613422E+03  0.11600538847E+04  0.13922791763E+04  0.15294330000E+03 0.  0.
<mgrwt>
<rscale>  0 0.76988070E+03</rscale>
<asrwt>0</asrwt>
<pdfrwt beam="1">  1        2 0.22918016E+00 0.76988070E+03</pdfrwt>
<pdfrwt beam="2">  1       -2 0.21293019E+00 0.76988070E+03</pdfrwt>
<totfact> 0.14539627E+00</totfact>
</mgrwt>
</event>
<event>
 4    1  0.1033139E-008  0.1986545E+03  0.7818608E-02  0.1150879E+00
          2   -1    0    0  501    0  0.00000000000E+00  0.00000000000E+00  0.17353051657E+04  0.17353051657E+04  0.25500000000E-02 0. -1.
         -2   -1    0    0    0  501 -0.00000000000E+00 -0.00000000000E+00 -0.89032233752E+02  0.89032233788E+02  0.25500000000E-02 0.  1.
    8880022    1    1    2    0    0  0.28021235557E+02 -0.12363965717E+03  0.16102323338E+04  0.16224400686E+04  0.15294330000E+03 0.  0.
    8880022    1    1    2    0    0 -0.28021235557E+02  0.12363965717E+03  0.36040598118E+02  0.20189733083E+03  0.15294330000E+03 0.  1.
<mgrwt>
<rscale>  0 0.19865449E+03</rscale>
<asrwt>0</asrwt>
<pdfrwt beam="1">  1        2 0.26697001E+00 0.19865449E+03</pdfrwt>
<pdfrwt beam="2">  1       -2 0.13697267E-01 0.19865449E+03</pdfrwt>
<totfact> 0.41477306E+02</totfact>
</mgrwt>
</event>
<event>
 4    1  0.1033139E-008  0.9639338E+03  0.7818608E-02  0.9349011E-01
         -2   -1    0    0    0  501 -0.00000000000E+00  0.00000000000E+00  0.18269392601E+04  0.18269392601E+04  0.25500000000E-02 0.  1.
          2   -1    0    0  501    0  0.00000000000E+00 -0.00000000000E+00 -0.10705667495E+04  0.10705667495E+04  0.25500000000E-02 0. -1.
    8880022    1    1    2    0    0 -0.91120241208E+03 -0.27474893471E+03 -0.67146613832E+03  0.11747490118E+04  0.15294330000E+03 0.  0.
    8880022    1    1    2    0    0  0.91120241208E+03  0.27474893471E+03  0.14278386489E+04  0.17227569977E+04  0.15294330000E+03 0.  0.
<mgrwt>
<rscale>  0 0.96393385E+03</rscale>
<asrwt>0</asrwt>
<pdfrwt beam="1">  1        2 0.16470258E+00 0.96393385E+03</pdfrwt>
<pdfrwt beam="2">  1       -2 0.28106757E+00 0.96393385E+03</pdfrwt>
<totfact> 0.94851662E-01</totfact>
</mgrwt>
</event>
<event>
 4    1  0.1269557E-008  0.1139523E+04  0.7818608E-02  0.9167504E-01
         -2   -1    0    0    0  501 -0.00000000000E+00  0.00000000000E+00  0.17929001750E+04  0.17929001750E+04  0.25500000000E-02 0.  1.
          2   -1    0    0  501    0  0.00000000000E+00 -0.00000000000E+00 -0.21222620636E+04  0.21222620636E+04  0.25500000000E-02 0. -1.
    8880022    1    1    2    0    0  0.11241939507E+04  0.10634142659E+03  0.14241414570E+04  0.18239218953E+04  0.15294330000E+03 0.  0.
    8880022    1    1    2    0    0 -0.11241939507E+04 -0.10634142659E+03 -0.17535033455E+04  0.20912403433E+04  0.15294330000E+03 0.  0.
<mgrwt>
<rscale>  0 0.11395228E+04</rscale>
<asrwt>0</asrwt>
<pdfrwt beam="1">  1        2 0.32650186E+00 0.11395228E+04</pdfrwt>
<pdfrwt beam="2">  1       -2 0.27583080E+00 0.11395228E+04</pdfrwt>
<totfact> 0.25108752E-01</totfact>
</mgrwt>
</event>
<event>
 4    1  0.1033139E-008  0.2139380E+04  0.7818608E-02  0.8544092E-01
          2   -1    0    0  501    0  0.00000000000E+00  0.00000000000E+00  0.19385975311E+04  0.19385975311E+04  0.25500000000E-02 0. -1.
         -2   -1    0    0    0  501 -0.00000000000E+00 -0.00000000000E+00 -0.28761297188E+04  0.28761297188E+04  0.25500000000E-02 0.  1.
    8880022    1    1    2    0    0  0.12020452646E+02 -0.21338725786E+04  0.55009095360E+03  0.22089699824E+04  0.15294330000E+03 0.  0.
    8880022    1    1    2    0    0 -0.12020452646E+02  0.21338725786E+04 -0.14876231413E+04  0.26057572674E+04  0.15294330000E+03 0.  0.
<mgrwt>
<rscale>  0 0.21393804E+04</rscale>
<asrwt>0</asrwt>
<pdfrwt beam="1">  1        2 0.29824578E+00 0.21393804E+04</pdfrwt>
<pdfrwt beam="2">  1       -2 0.44248149E+00 0.21393804E+04</pdfrwt>
<totfact> 0.24527311E-02</totfact>
</mgrwt>
</event>
<event>
 4    1  0.1033139E-008  0.7253990E+03  0.7818608E-02  0.9674756E-01
         -2   -1    0    0    0  501 -0.00000000000E+00  0.00000000000E+00  0.29860568320E+03  0.29860568321E+03  0.25500000000E-02 0.  1.
          2   -1    0    0  501    0  0.00000000000E+00 -0.00000000000E+00 -0.29123949882E+04  0.29123949882E+04  0.25500000000E-02 0. -1.
    8880022    1    1    2    0    0 -0.59014458156E+03  0.39311759036E+03 -0.23158466449E+04  0.24267981792E+04  0.15294330000E+03 0.  0.
    8880022    1    1    2    0    0  0.59014458156E+03 -0.39311759036E+03 -0.29794266005E+03  0.78420249215E+03  0.15294330000E+03 0.  0.
<mgrwt>
<rscale>  0 0.72539901E+03</rscale>
<asrwt>0</asrwt>
<pdfrwt beam="1">  1        2 0.44806075E+00 0.72539901E+03</pdfrwt>
<pdfrwt beam="2">  1       -2 0.45939338E-01 0.72539901E+03</pdfrwt>
<totfact> 0.94504960E+00</totfact>
</mgrwt>
</event>
<event>
 4    1  0.1033139E-008  0.1246079E+04  0.7818608E-02  0.9073453E-01
         -2   -1    0    0    0  501 -0.00000000000E+00  0.00000000000E+00  0.19638868835E+04  0.19638868835E+04  0.25500000000E-02 0.  1.
          2   -1    0    0  501    0  0.00000000000E+00 -0.00000000000E+00 -0.11362043725E+04  0.11362043725E+04  0.25500000000E-02 0. -1.
    8880022    1    1    2    0    0 -0.29501399077E+03 -0.12009530796E+04 -0.44099969017E+03  0.13218146367E+04  0.15294330000E+03 0.  0.
    8880022    1    1    2    0    0  0.29501399077E+03  0.12009530796E+04  0.12686822012E+04  0.17782766193E+04  0.15294330000E+03 0.  0.
<mgrwt>
<rscale>  0 0.12460791E+04</rscale>
<asrwt>0</asrwt>
<pdfrwt beam="1">  1        2 0.17480067E+00 0.12460791E+04</pdfrwt>
<pdfrwt beam="2">  1       -2 0.30213644E+00 0.12460791E+04</pdfrwt>
<totfact> 0.62032514E-01</totfact>
</mgrwt>
</event>
<event>
 4    1  0.1033139E-008  0.8310981E+03  0.7818608E-02  0.9516064E-01
         -2   -1    0    0    0  501 -0.00000000000E+00  0.00000000000E+00  0.16908934230E+04  0.16908934230E+04  0.25500000000E-02 0.  1.
          2   -1    0    0  501    0  0.00000000000E+00 -0.00000000000E+00 -0.12728521921E+04  0.12728521921E+04  0.25500000000E-02 0. -1.
    8880022    1    1    2    0    0  0.40041472844E+02 -0.81592220463E+03 -0.10121270788E+04  0.13096279014E+04  0.15294330000E+03 0.  0.
    8880022    1    1    2    0    0 -0.40041472844E+02  0.81592220463E+03  0.14301683097E+04  0.16541177137E+04  0.15294330000E+03 0.  0.
<mgrwt>
<rscale>  0 0.83109808E+03</rscale>
<asrwt>0</asrwt>
<pdfrwt beam="1">  1        2 0.19582341E+00 0.83109808E+03</pdfrwt>
<pdfrwt beam="2">  1       -2 0.26013745E+00 0.83109808E+03</pdfrwt>
<totfact> 0.97894303E-01</totfact>
</mgrwt>
</event>
<event>
 4    1  0.1033139E-008  0.4811640E+03  0.7818608E-02  0.1018816E+00
         -2   -1    0    0    0  501 -0.00000000000E+00  0.00000000000E+00  0.31964794076E+03  0.31964794077E+03  0.25500000000E-02 0.  1.
          2   -1    0    0  501    0  0.00000000000E+00 -0.00000000000E+00 -0.23693231707E+04  0.23693231707E+04  0.25500000000E-02 0. -1.
    8880022    1    1    2    0    0 -0.45620211821E+03  0.25989971282E+01 -0.21451287975E+04  0.21984304261E+04  0.15294330000E+03 0.  0.
    8880022    1    1    2    0    0  0.45620211821E+03 -0.25989971282E+01  0.95453567557E+02  0.49054068539E+03  0.15294330000E+03 0.  1.
<mgrwt>
<rscale>  0 0.48116398E+03</rscale>
<asrwt>0</asrwt>
<pdfrwt beam="1">  1        2 0.36451125E+00 0.48116398E+03</pdfrwt>
<pdfrwt beam="2">  1       -2 0.49176608E-01 0.48116398E+03</pdfrwt>
<totfact> 0.17795471E+01</totfact>
</mgrwt>
</event>
<event>
 4    1  0.1033139E-008  0.1440177E+04  0.7818608E-02  0.8925239E-01
          2   -1    0    0  501    0  0.00000000000E+00  0.00000000000E+00  0.24563700473E+04  0.24563700473E+04  0.25500000000E-02 0. -1.
         -2   -1    0    0    0  501 -0.00000000000E+00 -0.00000000000E+00 -0.84607762750E+03  0.84607762750E+03  0.25500000000E-02 0.  1.
    8880022    1    1    2    0    0  0.14204468784E+04 -0.18179414926E+03  0.73118511614E+03  0.16151599840E+04  0.15294330000E+03 0.  0.
    8880022    1    1    2    0    0 -0.14204468784E+04  0.18179414926E+03  0.87910730364E+03  0.16872876907E+04  0.15294330000E+03 0.  0.
<mgrwt>
<rscale>  0 0.14401771E+04</rscale>
<asrwt>0</asrwt>
<pdfrwt beam="1">  1        2 0.37790307E+00 0.14401771E+04</pdfrwt>
<pdfrwt beam="2">  1       -2 0.13016579E+00 0.14401771E+04</pdfrwt>
<totfact> 0.15228197E+00</totfact>
</mgrwt>
</event>
<event>
 4    1  0.1033139E-008  0.9278691E+03  0.7818608E-02  0.9391399E-01
         -2   -1    0    0    0  501 -0.00000000000E+00  0.00000000000E+00  0.65952571567E+03  0.65952571567E+03  0.25500000000E-02 0.  1.
          2   -1    0    0  501    0  0.00000000000E+00 -0.00000000000E+00 -0.17709184160E+04  0.17709184160E+04  0.25500000000E-02 0. -1.
    8880022    1    1    2    0    0  0.73623614524E+03  0.54360448497E+03  0.67360152393E+02  0.93031099143E+03  0.15294330000E+03 0.  0.
    8880022    1    1    2    0    0 -0.73623614524E+03 -0.54360448497E+03 -0.11787528527E+04  0.15001331403E+04  0.15294330000E+03 0.  0.
<mgrwt>
<rscale>  0 0.92786915E+03</rscale>
<asrwt>0</asrwt>
<pdfrwt beam="1">  1        2 0.27244898E+00 0.92786915E+03</pdfrwt>
<pdfrwt beam="2">  1       -2 0.10146550E+00 0.92786915E+03</pdfrwt>
<totfact> 0.71890178E+00</totfact>
</mgrwt>
</event>
<event>
 4    1  0.1033139E-008  0.1148794E+04  0.7818608E-02  0.9158897E-01
          2   -1    0    0  501    0  0.00000000000E+00  0.00000000000E+00  0.12221506128E+04  0.12221506128E+04  0.25500000000E-02 0. -1.
         -2   -1    0    0    0  501 -0.00000000000E+00 -0.00000000000E+00 -0.12274153227E+04  0.12274153227E+04  0.25500000000E-02 0.  1.
    8880022    1    1    2    0    0 -0.42615701996E+03  0.10558061166E+04 -0.42731954262E+03  0.12256957233E+04  0.15294330000E+03 0.  0.
    8880022    1    1    2    0    0  0.42615701996E+03 -0.10558061166E+04  0.42205483266E+03  0.12238702122E+04  0.15294330000E+03 0.  0.
<mgrwt>
<rscale>  0 0.11487942E+04</rscale>
<asrwt>0</asrwt>
<pdfrwt beam="1">  1        2 0.18802317E+00 0.11487942E+04</pdfrwt>
<pdfrwt beam="2">  1       -2 0.18883313E+00 0.11487942E+04</pdfrwt>
<totfact> 0.28300974E+00</totfact>
</mgrwt>
</event>
<event>
 4    1  0.1033139E-008  0.4740157E+03  0.7818608E-02  0.1020793E+00
         -2   -1    0    0    0  501 -0.00000000000E+00  0.00000000000E+00  0.62421173151E+03  0.62421173151E+03  0.25500000000E-02 0.  1.
          2   -1    0    0  501    0  0.00000000000E+00 -0.00000000000E+00 -0.14318904451E+04  0.14318904451E+04  0.25500000000E-02 0. -1.
    8880022    1    1    2    0    0  0.14181457390E+03  0.42566168560E+03 -0.12933337620E+04  0.13774625646E+04  0.15294330000E+03 0.  0.
    8880022    1    1    2    0    0 -0.14181457390E+03 -0.42566168560E+03  0.48565504839E+03  0.67863961202E+03  0.15294330000E+03 0.  0.
<mgrwt>
<rscale>  0 0.47401571E+03</rscale>
<asrwt>0</asrwt>
<pdfrwt beam="1">  1        2 0.22029084E+00 0.47401571E+03</pdfrwt>
<pdfrwt beam="2">  1       -2 0.96032574E-01 0.47401571E+03</pdfrwt>
<totfact> 0.13489581E+01</totfact>
</mgrwt>
</event>
<event>
 4    1  0.1033139E-008  0.8588532E+03  0.7818608E-02  0.9478531E-01
         -2   -1    0    0    0  501 -0.00000000000E+00  0.00000000000E+00  0.93481477450E+03  0.93481477451E+03  0.25500000000E-02 0.  1.
          2   -1    0    0  501    0  0.00000000000E+00 -0.00000000000E+00 -0.12822915910E+04  0.12822915910E+04  0.25500000000E-02 0. -1.
    8880022    1    1    2    0    0 -0.84503279714E+03 -0.12520845118E+02 -0.86126062809E+03  0.12163053573E+04  0.15294330000E+03 0.  0.
    8880022    1    1    2    0    0  0.84503279714E+03  0.12520845118E+02  0.51378381162E+03  0.10008010081E+04  0.15294330000E+03 0.  0.
<mgrwt>
<rscale>  0 0.85885322E+03</rscale>
<asrwt>0</asrwt>
<pdfrwt beam="1">  1        2 0.19727563E+00 0.85885322E+03</pdfrwt>
<pdfrwt beam="2">  1       -2 0.14381766E+00 0.85885322E+03</pdfrwt>
<totfact> 0.57118993E+00</totfact>
</mgrwt>
</event>
<event>
 4    1  0.1033139E-008  0.1155276E+04  0.7818608E-02  0.9152930E-01
          2   -1    0    0  501    0  0.00000000000E+00  0.00000000000E+00  0.26633173347E+04  0.26633173347E+04  0.25500000000E-02 0. -1.
         -2   -1    0    0    0  501 -0.00000000000E+00 -0.00000000000E+00 -0.59467406216E+03  0.59467406216E+03  0.25500000000E-02 0.  1.
    8880022    1    1    2    0    0  0.54399130791E+03 -0.10076425725E+04  0.38822989806E+03  0.12187633912E+04  0.15294330000E+03 0.  0.
    8880022    1    1    2    0    0 -0.54399130791E+03  0.10076425725E+04  0.16804133745E+04  0.20392280057E+04  0.15294330000E+03 0.  0.
<mgrwt>
<rscale>  0 0.11552756E+04</rscale>
<asrwt>0</asrwt>
<pdfrwt beam="1">  1        2 0.40974113E+00 0.11552756E+04</pdfrwt>
<pdfrwt beam="2">  1       -2 0.91488318E-01 0.11552756E+04</pdfrwt>
<totfact> 0.28182502E+00</totfact>
</mgrwt>
</event>
<event>
 4    1  0.1033139E-008  0.9591304E+03  0.7818608E-02  0.9354542E-01
         -2   -1    0    0    0  501 -0.00000000000E+00  0.00000000000E+00  0.50727954688E+03  0.50727954689E+03  0.25500000000E-02 0.  1.
          2   -1    0    0  501    0  0.00000000000E+00 -0.00000000000E+00 -0.31118748954E+04  0.31118748954E+04  0.25500000000E-02 0. -1.
    8880022    1    1    2    0    0  0.63604103287E+03 -0.70142087063E+03 -0.24711854786E+04  0.26507902135E+04  0.15294330000E+03 0.  0.
    8880022    1    1    2    0    0 -0.63604103287E+03  0.70142087063E+03 -0.13340986995E+03  0.96836422882E+03  0.15294330000E+03 0.  0.
<mgrwt>
<rscale>  0 0.95913038E+03</rscale>
<asrwt>0</asrwt>
<pdfrwt beam="1">  1        2 0.47874997E+00 0.95913038E+03</pdfrwt>
<pdfrwt beam="2">  1       -2 0.78043009E-01 0.95913038E+03</pdfrwt>
<totfact> 0.22278140E+00</totfact>
</mgrwt>
</event>
<event>
 4    1  0.1033139E-008  0.2840401E+03  0.7818608E-02  0.1093503E+00
         -2   -1    0    0    0  501 -0.00000000000E+00  0.00000000000E+00  0.29334231038E+03  0.29334231039E+03  0.25500000000E-02 0.  1.
          2   -1    0    0  501    0  0.00000000000E+00 -0.00000000000E+00 -0.70047431596E+03  0.70047431596E+03  0.25500000000E-02 0. -1.
    8880022    1    1    2    0    0  0.18543254307E+03  0.15133368681E+03 -0.59082371278E+03  0.65555428866E+03  0.15294330000E+03 0.  0.
    8880022    1    1    2    0    0 -0.18543254307E+03 -0.15133368681E+03  0.18369170720E+03  0.33826233769E+03  0.15294330000E+03 0.  0.
<mgrwt>
<rscale>  0 0.28404008E+03</rscale>
<asrwt>0</asrwt>
<pdfrwt beam="1">  1        2 0.10776528E+00 0.28404008E+03</pdfrwt>
<pdfrwt beam="2">  1       -2 0.45129586E-01 0.28404008E+03</pdfrwt>
<totfact> 0.19905379E+02</totfact>
</mgrwt>
</event>
<event>
 4    1  0.1033139E-008  0.1797930E+03  0.7818608E-02  0.1168004E+00
          2   -1    0    0  501    0  0.00000000000E+00  0.00000000000E+00  0.58902281474E+03  0.58902281474E+03  0.25500000000E-02 0. -1.
         -2   -1    0    0    0  501 -0.00000000000E+00 -0.00000000000E+00 -0.80785583672E+02  0.80785583713E+02  0.25500000000E-02 0.  1.
    8880022    1    1    2    0    0  0.22672791055E+02  0.91759499623E+02  0.64469346349E+02  0.19100212266E+03  0.15294330000E+03 0.  0.
    8880022    1    1    2    0    0 -0.22672791055E+02 -0.91759499623E+02  0.44376788471E+03  0.47880627580E+03  0.15294330000E+03 0.  0.
<mgrwt>
<rscale>  0 0.17979298E+03</rscale>
<asrwt>0</asrwt>
<pdfrwt beam="1">  1        2 0.90618891E-01 0.17979298E+03</pdfrwt>
<pdfrwt beam="2">  1       -2 0.12428552E-01 0.17979298E+03</pdfrwt>
<totfact> 0.23793607E+03</totfact>
</mgrwt>
</event>
<event>
 4    1  0.1033139E-008  0.5126199E+03  0.7818608E-02  0.1010536E+00
         -2   -1    0    0    0  501 -0.00000000000E+00  0.00000000000E+00  0.17192354162E+04  0.17192354162E+04  0.25500000000E-02 0.  1.
          2   -1    0    0  501    0  0.00000000000E+00 -0.00000000000E+00 -0.19991169745E+04  0.19991169745E+04  0.25500000000E-02 0. -1.
    8880022    1    1    2    0    0 -0.46197024838E+03  0.16115521795E+03 -0.19266303626E+04  0.19936608843E+04  0.15294330000E+03 0.  0.
    8880022    1    1    2    0    0  0.46197024838E+03 -0.16115521795E+03  0.16467488042E+04  0.17246915063E+04  0.15294330000E+03 0.  0.
<mgrwt>
<rscale>  0 0.51261991E+03</rscale>
<asrwt>0</asrwt>
<pdfrwt beam="1">  1        2 0.30755646E+00 0.51261991E+03</pdfrwt>
<pdfrwt beam="2">  1       -2 0.26449776E+00 0.51261991E+03</pdfrwt>
<totfact> 0.39661473E-01</totfact>
</mgrwt>
</event>
<event>
 4    1  0.1033139E-008  0.1220461E+04  0.7818608E-02  0.9095133E-01
         -2   -1    0    0    0  501 -0.00000000000E+00  0.00000000000E+00  0.13096766812E+04  0.13096766812E+04  0.25500000000E-02 0.  1.
          2   -1    0    0  501    0  0.00000000000E+00 -0.00000000000E+00 -0.11620532140E+04  0.11620532140E+04  0.25500000000E-02 0. -1.
    8880022    1    1    2    0    0  0.94126693757E+03  0.76167546304E+03  0.25410408767E+03  0.12466328646E+04  0.15294330000E+03 0.  0.
    8880022    1    1    2    0    0 -0.94126693757E+03 -0.76167546304E+03 -0.10648062041E+03  0.12250970306E+04  0.15294330000E+03 0.  0.
<mgrwt>
<rscale>  0 0.12204608E+04</rscale>
<asrwt>0</asrwt>
<pdfrwt beam="1">  1        2 0.17877742E+00 0.12204608E+04</pdfrwt>
<pdfrwt beam="2">  1       -2 0.20148872E+00 0.12204608E+04</pdfrwt>
<totfact> 0.25166353E+00</totfact>
</mgrwt>
</event>
<event>
 4    1  0.1033139E-008  0.6912864E+03  0.7818608E-02  0.9732251E-01
         -2   -1    0    0    0  501 -0.00000000000E+00  0.00000000000E+00  0.56581382288E+03  0.56581382289E+03  0.25500000000E-02 0.  1.
          2   -1    0    0  501    0  0.00000000000E+00 -0.00000000000E+00 -0.99790672841E+03  0.99790672841E+03  0.25500000000E-02 0. -1.
    8880022    1    1    2    0    0 -0.62946179539E+03  0.24137738582E+03 -0.52251688445E+03  0.86654529125E+03  0.15294330000E+03 0.  0.
    8880022    1    1    2    0    0  0.62946179539E+03 -0.24137738582E+03  0.90423978925E+02  0.69717526005E+03  0.15294330000E+03 0.  1.
<mgrwt>
<rscale>  0 0.69128637E+03</rscale>
<asrwt>0</asrwt>
<pdfrwt beam="1">  1        2 0.15352411E+00 0.69128637E+03</pdfrwt>
<pdfrwt beam="2">  1       -2 0.87048281E-01 0.69128637E+03</pdfrwt>
<totfact> 0.29471204E+01</totfact>
</mgrwt>
</event>
<event>
 4    1  0.1033139E-008  0.6169722E+03  0.7818608E-02  0.9870807E-01
          2   -1    0    0  501    0  0.00000000000E+00  0.00000000000E+00  0.15980800485E+04  0.15980800485E+04  0.25500000000E-02 0. -1.
         -2   -1    0    0    0  501 -0.00000000000E+00 -0.00000000000E+00 -0.37793266909E+03  0.37793266910E+03  0.25500000000E-02 0.  1.
    8880022    1    1    2    0    0 -0.49452530847E+02  0.59566554296E+03  0.93022185813E+01  0.61704228069E+03  0.15294330000E+03 0.  0.
    8880022    1    1    2    0    0  0.49452530847E+02 -0.59566554296E+03  0.12108451608E+04  0.13589704369E+04  0.15294330000E+03 0.  0.
<mgrwt>
<rscale>  0 0.61697216E+03</rscale>
<asrwt>0</asrwt>
<pdfrwt beam="1">  1        2 0.24585847E+00 0.61697216E+03</pdfrwt>
<pdfrwt beam="2">  1       -2 0.58143488E-01 0.61697216E+03</pdfrwt>
<totfact> 0.32255238E+01</totfact>
</mgrwt>
</event>
<event>
 4    1  0.1033139E-008  0.1705467E+04  0.7818608E-02  0.8758253E-01
         -2   -1    0    0    0  501 -0.00000000000E+00  0.00000000000E+00  0.25588241719E+04  0.25588241719E+04  0.25500000000E-02 0.  1.
          2   -1    0    0  501    0  0.00000000000E+00 -0.00000000000E+00 -0.15299239355E+04  0.15299239355E+04  0.25500000000E-02 0. -1.
    8880022    1    1    2    0    0  0.14142798977E+04 -0.94076436782E+03 -0.52199211751E+03  0.17835617871E+04  0.15294330000E+03 0.  0.
    8880022    1    1    2    0    0 -0.14142798977E+04  0.94076436782E+03  0.15508923540E+04  0.23051863203E+04  0.15294330000E+03 0.  0.
<mgrwt>
<rscale>  0 0.17054668E+04</rscale>
<asrwt>0</asrwt>
<pdfrwt beam="1">  1        2 0.23537292E+00 0.17054668E+04</pdfrwt>
<pdfrwt beam="2">  1       -2 0.39366525E+00 0.17054668E+04</pdfrwt>
<totfact> 0.91736152E-02</totfact>
</mgrwt>
</event>
<event>
 4    1  0.1033139E-008  0.1032197E+04  0.7818608E-02  0.9273920E-01
          2   -1    0    0  501    0  0.00000000000E+00  0.00000000000E+00  0.13846609547E+04  0.13846609548E+04  0.25500000000E-02 0. -1.
         -2   -1    0    0    0  501 -0.00000000000E+00 -0.00000000000E+00 -0.96255361706E+03  0.96255361706E+03  0.25500000000E-02 0.  1.
    8880022    1    1    2    0    0 -0.30291089818E+03  0.97482511157E+03 -0.31460382826E+03  0.10790765646E+04  0.15294330000E+03 0.  0.
    8880022    1    1    2    0    0  0.30291089818E+03 -0.97482511157E+03  0.73671116596E+03  0.12681380073E+04  0.15294330000E+03 0.  0.
<mgrwt>
<rscale>  0 0.10321970E+04</rscale>
<asrwt>0</asrwt>
<pdfrwt beam="1">  1        2 0.21302476E+00 0.10321970E+04</pdfrwt>
<pdfrwt beam="2">  1       -2 0.14808517E+00 0.10321970E+04</pdfrwt>
<totfact> 0.45254177E+00</totfact>
</mgrwt>
</event>
<event>
 4    1  0.1033139E-008  0.3405117E+03  0.7818608E-02  0.1066578E+00
          2   -1    0    0  501    0  0.00000000000E+00  0.00000000000E+00  0.19877849055E+04  0.19877849055E+04  0.25500000000E-02 0. -1.
         -2   -1    0    0    0  501 -0.00000000000E+00 -0.00000000000E+00 -0.26610480748E+03  0.26610480750E+03  0.25500000000E-02 0.  1.
    8880022    1    1    2    0    0  0.27858131040E+03 -0.12226616830E+03 -0.13496052014E+03  0.36628207358E+03  0.15294330000E+03 0.  0.
    8880022    1    1    2    0    0 -0.27858131040E+03  0.12226616830E+03  0.18566406181E+04  0.18876076394E+04  0.15294330000E+03 0. -1.
<mgrwt>
<rscale>  0 0.34051170E+03</rscale>
<asrwt>0</asrwt>
<pdfrwt beam="1">  1        2 0.30581306E+00 0.34051170E+03</pdfrwt>
<pdfrwt beam="2">  1       -2 0.40939201E-01 0.34051170E+03</pdfrwt>
<totfact> 0.42595142E+01</totfact>
</mgrwt>
</event>
<event>
 4    1  0.1033139E-008  0.9320761E+03  0.7818608E-02  0.9386350E-01
          2   -1    0    0  501    0  0.00000000000E+00  0.00000000000E+00  0.35539341597E+04  0.35539341597E+04  0.25500000000E-02 0. -1.
         -2   -1    0    0    0  501 -0.00000000000E+00 -0.00000000000E+00 -0.29492879146E+03  0.29492879147E+03  0.25500000000E-02 0.  1.
    8880022    1    1    2    0    0  0.33079225422E+03  0.85787571818E+03  0.24256441005E+04  0.25985602203E+04  0.15294330000E+03 0.  0.
    8880022    1    1    2    0    0 -0.33079225422E+03 -0.85787571818E+03  0.83336126783E+03  0.12503027309E+04  0.15294330000E+03 0.  0.
<mgrwt>
<rscale>  0 0.93207613E+03</rscale>
<asrwt>0</asrwt>
<pdfrwt beam="1">  1        2 0.54675909E+00 0.93207613E+03</pdfrwt>
<pdfrwt beam="2">  1       -2 0.45373661E-01 0.93207613E+03</pdfrwt>
<totfact> 0.36038473E+00</totfact>
</mgrwt>
</event>
<event>
 4    1  0.1033139E-008  0.4734543E+03  0.7818608E-02  0.1020950E+00
          2   -1    0    0  501    0  0.00000000000E+00  0.00000000000E+00  0.19238602465E+04  0.19238602465E+04  0.25500000000E-02 0. -1.
         -2   -1    0    0    0  501 -0.00000000000E+00 -0.00000000000E+00 -0.18733174351E+03  0.18733174352E+03  0.25500000000E-02 0.  1.
    8880022    1    1    2    0    0 -0.15066252260E+03 -0.42198121323E+03  0.15172861620E+04  0.15894389861E+04  0.15294330000E+03 0.  0.
    8880022    1    1    2    0    0  0.15066252260E+03  0.42198121323E+03  0.21924234099E+03  0.52175300395E+03  0.15294330000E+03 0.  0.
<mgrwt>
<rscale>  0 0.47345432E+03</rscale>
<asrwt>0</asrwt>
<pdfrwt beam="1">  1        2 0.29597848E+00 0.47345432E+03</pdfrwt>
<pdfrwt beam="2">  1       -2 0.28820270E-01 0.47345432E+03</pdfrwt>
<totfact> 0.86586133E+01</totfact>
</mgrwt>
</event>
<event>
 4    1  0.1033139E-008  0.8316199E+03  0.7818608E-02  0.9515344E-01
          2   -1    0    0  501    0  0.00000000000E+00  0.00000000000E+00  0.75213108150E+03  0.75213108150E+03  0.25500000000E-02 0. -1.
         -2   -1    0    0    0  501 -0.00000000000E+00 -0.00000000000E+00 -0.19949147035E+04  0.19949147035E+04  0.25500000000E-02 0.  1.
    8880022    1    1    2    0    0 -0.80677899963E+03 -0.13155841702E+03  0.38707083614E+03  0.91728700882E+03  0.15294330000E+03 0.  0.
    8880022    1    1    2    0    0  0.80677899963E+03  0.13155841702E+03 -0.16298544582E+04  0.18297587762E+04  0.15294330000E+03 0.  0.
<mgrwt>
<rscale>  0 0.83161988E+03</rscale>
<asrwt>0</asrwt>
<pdfrwt beam="1">  1        2 0.11571247E+00 0.83161988E+03</pdfrwt>
<pdfrwt beam="2">  1       -2 0.30690995E+00 0.83161988E+03</pdfrwt>
<totfact> 0.11104453E+00</totfact>
</mgrwt>
</event>
<event>
 4    1  0.1033139E-008  0.2795146E+03  0.7818608E-02  0.1095954E+00
         -2   -1    0    0    0  501 -0.00000000000E+00  0.00000000000E+00  0.42623976668E+03  0.42623976669E+03  0.25500000000E-02 0.  1.
          2   -1    0    0  501    0  0.00000000000E+00 -0.00000000000E+00 -0.88663682808E+03  0.88663682808E+03  0.25500000000E-02 0. -1.
    8880022    1    1    2    0    0 -0.23394422759E+03 -0.26142819942E+01  0.35446188568E+03  0.45141069716E+03  0.15294330000E+03 0.  0.
    8880022    1    1    2    0    0  0.23394422759E+03  0.26142819942E+01 -0.81485894708E+03  0.86146589761E+03  0.15294330000E+03 0.  0.
<mgrwt>
<rscale>  0 0.27951456E+03</rscale>
<asrwt>0</asrwt>
<pdfrwt beam="1">  1        2 0.13640567E+00 0.27951456E+03</pdfrwt>
<pdfrwt beam="2">  1       -2 0.65575349E-01 0.27951456E+03</pdfrwt>
<totfact> 0.68826421E+01</totfact>
</mgrwt>
</event>
<event>
 4    1  0.1033139E-008  0.8034978E+03  0.7818608E-02  0.9554968E-01
         -2   -1    0    0    0  501 -0.00000000000E+00  0.00000000000E+00  0.15514295281E+04  0.15514295281E+04  0.25500000000E-02 0.  1.
          2   -1    0    0  501    0  0.00000000000E+00 -0.00000000000E+00 -0.15594729659E+04  0.15594729659E+04  0.25500000000E-02 0. -1.
    8880022    1    1    2    0    0  0.56564029896E+03 -0.54978922500E+03  0.13278249213E+04  0.15520076721E+04  0.15294330000E+03 0.  0.
    8880022    1    1    2    0    0 -0.56564029896E+03  0.54978922500E+03 -0.13358683592E+04  0.15588948219E+04  0.15294330000E+03 0.  0.
<mgrwt>
<rscale>  0 0.80349785E+03</rscale>
<asrwt>0</asrwt>
<pdfrwt beam="1">  1        2 0.23991892E+00 0.80349785E+03</pdfrwt>
<pdfrwt beam="2">  1       -2 0.23868146E+00 0.80349785E+03</pdfrwt>
<totfact> 0.91389851E-01</totfact>
</mgrwt>
</event>
<event>
 4    1  0.1033139E-008  0.9205925E+03  0.7818608E-02  0.9400200E-01
          2   -1    0    0  501    0  0.00000000000E+00  0.00000000000E+00  0.14112884720E+04  0.14112884720E+04  0.25500000000E-02 0. -1.
         -2   -1    0    0    0  501 -0.00000000000E+00 -0.00000000000E+00 -0.70409762301E+03  0.70409762301E+03  0.25500000000E-02 0.  1.
    8880022    1    1    2    0    0 -0.88628823467E+03 -0.19644872041E+03  0.75929120456E+03  0.11933204603E+04  0.15294330000E+03 0.  0.
    8880022    1    1    2    0    0  0.88628823467E+03  0.19644872041E+03 -0.52100355540E+02  0.92206563472E+03  0.15294330000E+03 0.  0.
<mgrwt>
<rscale>  0 0.92059252E+03</rscale>
<asrwt>0</asrwt>
<pdfrwt beam="1">  1        2 0.21712130E+00 0.92059252E+03</pdfrwt>
<pdfrwt beam="2">  1       -2 0.10832271E+00 0.92059252E+03</pdfrwt>
<totfact> 0.97461716E+00</totfact>
</mgrwt>
</event>
<event>
 4    1  0.1033139E-008  0.5950669E+03  0.7818608E-02  0.9915694E-01
          2   -1    0    0  501    0  0.00000000000E+00  0.00000000000E+00  0.13368903834E+04  0.13368903834E+04  0.25500000000E-02 0. -1.
         -2   -1    0    0    0  501 -0.00000000000E+00 -0.00000000000E+00 -0.13231643642E+04  0.13231643642E+04  0.25500000000E-02 0.  1.
    8880022    1    1    2    0    0 -0.45032085368E+03  0.35766476846E+03 -0.11826153532E+04  0.13238896043E+04  0.15294330000E+03 0.  0.
    8880022    1    1    2    0    0  0.45032085368E+03 -0.35766476846E+03  0.11963413724E+04  0.13361651433E+04  0.15294330000E+03 0.  0.
<mgrwt>
<rscale>  0 0.59506690E+03</rscale>
<asrwt>0</asrwt>
<pdfrwt beam="1">  1        2 0.20567544E+00 0.59506690E+03</pdfrwt>
<pdfrwt beam="2">  1       -2 0.20356375E+00 0.59506690E+03</pdfrwt>
<totfact> 0.21042972E+00</totfact>
</mgrwt>
</event>
<event>
 4    1  0.1033139E-008  0.5981578E+03  0.7818608E-02  0.9909235E-01
         -2   -1    0    0    0  501 -0.00000000000E+00  0.00000000000E+00  0.20134241204E+04  0.20134241204E+04  0.25500000000E-02 0.  1.
          2   -1    0    0  501    0  0.00000000000E+00 -0.00000000000E+00 -0.23760593779E+03  0.23760593781E+03  0.25500000000E-02 0. -1.
    8880022    1    1    2    0    0  0.17540009219E+02 -0.57800815189E+03  0.32278409862E+03  0.67969280039E+03  0.15294330000E+03 0.  0.
    8880022    1    1    2    0    0 -0.17540009219E+02  0.57800815189E+03  0.14530340840E+04  0.15713372579E+04  0.15294330000E+03 0.  0.
<mgrwt>
<rscale>  0 0.59815778E+03</rscale>
<asrwt>0</asrwt>
<pdfrwt beam="1">  1        2 0.36554759E-01 0.59815778E+03</pdfrwt>
<pdfrwt beam="2">  1       -2 0.30975756E+00 0.59815778E+03</pdfrwt>
<totfact> 0.42013455E+00</totfact>
</mgrwt>
</event>
<event>
 4    1  0.1033139E-008  0.1776130E+03  0.7818608E-02  0.1170133E+00
          2   -1    0    0  501    0  0.00000000000E+00  0.00000000000E+00  0.73397889050E+03  0.73397889050E+03  0.25500000000E-02 0. -1.
         -2   -1    0    0    0  501 -0.00000000000E+00 -0.00000000000E+00 -0.56727355539E+02  0.56727355596E+02  0.25500000000E-02 0.  1.
    8880022    1    1    2    0    0  0.83265201455E+02 -0.34952076080E+02  0.14400065293E+03  0.22865384855E+03  0.15294330000E+03 0.  0.
    8880022    1    1    2    0    0 -0.83265201455E+02  0.34952076080E+02  0.53325088203E+03  0.56205239755E+03  0.15294330000E+03 0. -1.
<mgrwt>
<rscale>  0 0.17761305E+03</rscale>
<asrwt>0</asrwt>
<pdfrwt beam="1">  1        2 0.11291982E+00 0.17761305E+03</pdfrwt>
<pdfrwt beam="2">  1       -2 0.87272858E-02 0.17761305E+03</pdfrwt>
<totfact> 0.32162228E+03</totfact>
</mgrwt>
</event>
<event>
 4    1  0.1033139E-008  0.6317902E+03  0.7818608E-02  0.9841562E-01
         -2   -1    0    0    0  501 -0.00000000000E+00  0.00000000000E+00  0.77506026965E+03  0.77506026965E+03  0.25500000000E-02 0.  1.
          2   -1    0    0  501    0  0.00000000000E+00 -0.00000000000E+00 -0.14090235942E+04  0.14090235942E+04  0.25500000000E-02 0. -1.
    8880022    1    1    2    0    0 -0.15336163027E+03  0.59350434205E+03  0.55288721404E+03  0.83954935420E+03  0.15294330000E+03 0.  0.
    8880022    1    1    2    0    0  0.15336163027E+03 -0.59350434205E+03 -0.11868505386E+04  0.13445345097E+04  0.15294330000E+03 0.  0.
<mgrwt>
<rscale>  0 0.63179019E+03</rscale>
<asrwt>0</asrwt>
<pdfrwt beam="1">  1        2 0.21677286E+00 0.63179019E+03</pdfrwt>
<pdfrwt beam="2">  1       -2 0.11924004E+00 0.63179019E+03</pdfrwt>
<totfact> 0.80355372E+00</totfact>
</mgrwt>
</event>
<event>
 4    1  0.1033139E-008  0.4356385E+03  0.7818608E-02  0.1032093E+00
          2   -1    0    0  501    0  0.00000000000E+00  0.00000000000E+00  0.21506007233E+04  0.21506007233E+04  0.25500000000E-02 0. -1.
         -2   -1    0    0    0  501 -0.00000000000E+00 -0.00000000000E+00 -0.44577423539E+03  0.44577423540E+03  0.25500000000E-02 0.  1.
    8880022    1    1    2    0    0  0.35561109101E+03  0.19982484047E+03 -0.31020036343E+03  0.53479447772E+03  0.15294330000E+03 0.  0.
    8880022    1    1    2    0    0 -0.35561109101E+03 -0.19982484047E+03  0.20150268514E+04  0.20615804810E+04  0.15294330000E+03 0.  0.
<mgrwt>
<rscale>  0 0.43563846E+03</rscale>
<asrwt>0</asrwt>
<pdfrwt beam="1">  1        2 0.33086165E+00 0.43563846E+03</pdfrwt>
<pdfrwt beam="2">  1       -2 0.68580651E-01 0.43563846E+03</pdfrwt>
<totfact> 0.11848563E+01</totfact>
</mgrwt>
</event>
<event>
 4    1  0.1033139E-008  0.8849594E+03  0.7818608E-02  0.9444581E-01
         -2   -1    0    0    0  501 -0.00000000000E+00  0.00000000000E+00  0.11787049883E+04  0.11787049883E+04  0.25500000000E-02 0.  1.
          2   -1    0    0  501    0  0.00000000000E+00 -0.00000000000E+00 -0.13662470172E+04  0.13662470172E+04  0.25500000000E-02 0. -1.
    8880022    1    1    2    0    0 -0.32838765525E+03 -0.80741747741E+03  0.81824103204E+03  0.12052682168E+04  0.15294330000E+03 0.  0.
    8880022    1    1    2    0    0  0.32838765525E+03  0.80741747741E+03 -0.10057830610E+04  0.13396837887E+04  0.15294330000E+03 0.  0.
<mgrwt>
<rscale>  0 0.88495937E+03</rscale>
<asrwt>0</asrwt>
<pdfrwt beam="1">  1        2 0.21019185E+00 0.88495937E+03</pdfrwt>
<pdfrwt beam="2">  1       -2 0.18133923E+00 0.88495937E+03</pdfrwt>
<totfact> 0.27041378E+00</totfact>
</mgrwt>
</event>
<event>
 4    1  0.1033139E-008  0.8715107E+03  0.7818608E-02  0.9461912E-01
         -2   -1    0    0    0  501 -0.00000000000E+00  0.00000000000E+00  0.10202267248E+04  0.10202267248E+04  0.25500000000E-02 0.  1.
          2   -1    0    0  501    0  0.00000000000E+00 -0.00000000000E+00 -0.19128014231E+04  0.19128014231E+04  0.25500000000E-02 0. -1.
    8880022    1    1    2    0    0 -0.99044695070E+02  0.85224965801E+03 -0.15924171681E+04  0.18153025703E+04  0.15294330000E+03 0.  0.
    8880022    1    1    2    0    0  0.99044695070E+02 -0.85224965801E+03  0.69984246987E+03  0.11177255776E+04  0.15294330000E+03 0.  0.
<mgrwt>
<rscale>  0 0.87151075E+03</rscale>
<asrwt>0</asrwt>
<pdfrwt beam="1">  1        2 0.29427714E+00 0.87151075E+03</pdfrwt>
<pdfrwt beam="2">  1       -2 0.15695796E+00 0.87151075E+03</pdfrwt>
<totfact> 0.20125609E+00</totfact>
</mgrwt>
</event>
<event>
 4    1  0.1033139E-008  0.7487611E+03  0.7818608E-02  0.9637296E-01
          2   -1    0    0  501    0  0.00000000000E+00  0.00000000000E+00  0.15597012224E+04  0.15597012224E+04  0.25500000000E-02 0. -1.
         -2   -1    0    0    0  501 -0.00000000000E+00 -0.00000000000E+00 -0.76565067530E+03  0.76565067531E+03  0.25500000000E-02 0.  1.
    8880022    1    1    2    0    0  0.50070079065E+03  0.53530384065E+03  0.12438835765E+04  0.14518572549E+04  0.15294330000E+03 0.  0.
    8880022    1    1    2    0    0 -0.50070079065E+03 -0.53530384065E+03 -0.44983302947E+03  0.87349464279E+03  0.15294330000E+03 0.  0.
<mgrwt>
<rscale>  0 0.74876107E+03</rscale>
<asrwt>0</asrwt>
<pdfrwt beam="1">  1        2 0.23995403E+00 0.74876107E+03</pdfrwt>
<pdfrwt beam="2">  1       -2 0.11779241E+00 0.74876107E+03</pdfrwt>
<totfact> 0.67039776E+00</totfact>
</mgrwt>
</event>
<event>
 4    1  0.1033139E-008  0.3482749E+03  0.7818608E-02  0.1063325E+00
         -2   -1    0    0    0  501 -0.00000000000E+00  0.00000000000E+00  0.46736037285E+03  0.46736037285E+03  0.25500000000E-02 0.  1.
          2   -1    0    0  501    0  0.00000000000E+00 -0.00000000000E+00 -0.15544443133E+04  0.15544443134E+04  0.25500000000E-02 0. -1.
    8880022    1    1    2    0    0 -0.31029279518E+03 -0.40275595238E+02 -0.14662018733E+04  0.15069981183E+04  0.15294330000E+03 0.  0.
    8880022    1    1    2    0    0  0.31029279518E+03  0.40275595238E+02  0.37911793283E+03  0.51480656786E+03  0.15294330000E+03 0.  0.
<mgrwt>
<rscale>  0 0.34827488E+03</rscale>
<asrwt>0</asrwt>
<pdfrwt beam="1">  1        2 0.23914528E+00 0.34827488E+03</pdfrwt>
<pdfrwt beam="2">  1       -2 0.71901597E-01 0.34827488E+03</pdfrwt>
<totfact> 0.22824071E+01</totfact>
</mgrwt>
</event>
<event>
 4    1  0.1033139E-008  0.4317300E+03  0.7818608E-02  0.1033315E+00
          2   -1    0    0  501    0  0.00000000000E+00  0.00000000000E+00  0.21046126375E+04  0.21046126375E+04  0.25500000000E-02 0. -1.
         -2   -1    0    0    0  501 -0.00000000000E+00 -0.00000000000E+00 -0.21632559306E+03  0.21632559307E+03  0.25500000000E-02 0.  1.
    8880022    1    1    2    0    0  0.11100959696E+02  0.40357886452E+03  0.52314679131E+02  0.43488804291E+03  0.15294330000E+03 0.  0.
    8880022    1    1    2    0    0 -0.11100959696E+02 -0.40357886452E+03  0.18359723653E+04  0.18860501877E+04  0.15294330000E+03 0.  0.
<mgrwt>
<rscale>  0 0.43172999E+03</rscale>
<asrwt>0</asrwt>
<pdfrwt beam="1">  1        2 0.32378656E+00 0.43172999E+03</pdfrwt>
<pdfrwt beam="2">  1       -2 0.33280860E-01 0.43172999E+03</pdfrwt>
<totfact> 0.53486918E+01</totfact>
</mgrwt>
</event>
<event>
 4    1  0.1033139E-008  0.2163843E+03  0.7818608E-02  0.1136608E+00
         -2   -1    0    0    0  501 -0.00000000000E+00  0.00000000000E+00  0.60998755800E+03  0.60998755800E+03  0.25500000000E-02 0.  1.
          2   -1    0    0  501    0  0.00000000000E+00 -0.00000000000E+00 -0.63883384859E+03  0.63883384859E+03  0.25500000000E-02 0. -1.
    8880022    1    1    2    0    0 -0.71415749322E+02 -0.13538940674E+03  0.57127436805E+03  0.61088178669E+03  0.15294330000E+03 0.  0.
    8880022    1    1    2    0    0  0.71415749322E+02  0.13538940674E+03 -0.60012065863E+03  0.63793961990E+03  0.15294330000E+03 0.  0.
<mgrwt>
<rscale>  0 0.21638427E+03</rscale>
<asrwt>0</asrwt>
<pdfrwt beam="1">  1        2 0.98282131E-01 0.21638427E+03</pdfrwt>
<pdfrwt beam="2">  1       -2 0.93844240E-01 0.21638427E+03</pdfrwt>
<totfact> 0.47760407E+01</totfact>
</mgrwt>
</event>
<event>
 4    1  0.1033139E-008  0.8562698E+03  0.7818608E-02  0.9481960E-01
         -2   -1    0    0    0  501 -0.00000000000E+00  0.00000000000E+00  0.11379907143E+04  0.11379907143E+04  0.25500000000E-02 0.  1.
          2   -1    0    0  501    0  0.00000000000E+00 -0.00000000000E+00 -0.14646602412E+04  0.14646602412E+04  0.25500000000E-02 0. -1.
    8880022    1    1    2    0    0  0.67243861506E+03 -0.50757523424E+03 -0.11372518551E+04  0.14235658553E+04  0.15294330000E+03 0.  0.
    8880022    1    1    2    0    0 -0.67243861506E+03  0.50757523424E+03  0.81058232826E+03  0.11790851001E+04  0.15294330000E+03 0.  0.
<mgrwt>
<rscale>  0 0.85626980E+03</rscale>
<asrwt>0</asrwt>
<pdfrwt beam="1">  1        2 0.22533234E+00 0.85626980E+03</pdfrwt>
<pdfrwt beam="2">  1       -2 0.17507549E+00 0.85626980E+03</pdfrwt>
<totfact> 0.26385674E+00</totfact>
</mgrwt>
</event>
<event>
 4    1  0.1033139E-008  0.6301996E+03  0.7818608E-02  0.9844659E-01
          2   -1    0    0  501    0  0.00000000000E+00  0.00000000000E+00  0.78078401040E+03  0.78078401040E+03  0.25500000000E-02 0. -1.
         -2   -1    0    0    0  501 -0.00000000000E+00 -0.00000000000E+00 -0.13741646934E+04  0.13741646934E+04  0.25500000000E-02 0.  1.
    8880022    1    1    2    0    0  0.59713246808E+03  0.13112106900E+03 -0.11518021654E+04  0.13129355660E+04  0.15294330000E+03 0.  0.
    8880022    1    1    2    0    0 -0.59713246808E+03 -0.13112106900E+03  0.55842148243E+03  0.84201313780E+03  0.15294330000E+03 0.  0.
<mgrwt>
<rscale>  0 0.63019963E+03</rscale>
<asrwt>0</asrwt>
<pdfrwt beam="1">  1        2 0.12012062E+00 0.63019963E+03</pdfrwt>
<pdfrwt beam="2">  1       -2 0.21140995E+00 0.63019963E+03</pdfrwt>
<totfact> 0.41582101E+00</totfact>
</mgrwt>
</event>
<event>
 4    1  0.1033139E-008  0.9346781E+03  0.7818608E-02  0.9383241E-01
         -2   -1    0    0    0  501 -0.00000000000E+00  0.00000000000E+00  0.50622021827E+03  0.50622021827E+03  0.25500000000E-02 0.  1.
          2   -1    0    0  501    0  0.00000000000E+00 -0.00000000000E+00 -0.24252854488E+04  0.24252854488E+04  0.25500000000E-02 0. -1.
    8880022    1    1    2    0    0 -0.91913127034E+03 -0.73683209510E+02 -0.17234940197E+03  0.95043541435E+03  0.15294330000E+03 0.  0.
    8880022    1    1    2    0    0  0.91913127034E+03  0.73683209510E+02 -0.17467158286E+04  0.19810702527E+04  0.15294330000E+03 0.  0.
<mgrwt>
<rscale>  0 0.93467811E+03</rscale>
<asrwt>0</asrwt>
<pdfrwt beam="1">  1        2 0.37312083E+00 0.93467811E+03</pdfrwt>
<pdfrwt beam="2">  1       -2 0.77880035E-01 0.93467811E+03</pdfrwt>
<totfact> 0.57458474E+00</totfact>
</mgrwt>
</event>
<event>
 4    1  0.1033139E-008  0.3589610E+03  0.7818608E-02  0.1058996E+00
          2   -1    0    0  501    0  0.00000000000E+00  0.00000000000E+00  0.17267957885E+04  0.17267957885E+04  0.25500000000E-02 0. -1.
         -2   -1    0    0    0  501 -0.00000000000E+00 -0.00000000000E+00 -0.44487097209E+03  0.44487097210E+03  0.25500000000E-02 0.  1.
    8880022    1    1    2    0    0 -0.37359290354E+01  0.32472668955E+03  0.16315534972E+04  0.16705747057E+04  0.15294330000E+03 0.  0.
    8880022    1    1    2    0    0  0.37359290354E+01 -0.32472668955E+03 -0.34962868077E+03  0.50109205492E+03  0.15294330000E+03 0.  0.
<mgrwt>
<rscale>  0 0.35896105E+03</rscale>
<asrwt>0</asrwt>
<pdfrwt beam="1">  1        2 0.26566089E+00 0.35896105E+03</pdfrwt>
<pdfrwt beam="2">  1       -2 0.68441689E-01 0.35896105E+03</pdfrwt>
<totfact> 0.20472311E+01</totfact>
</mgrwt>
</event>
<event>
 4    1  0.1033139E-008  0.8148084E+03  0.7818608E-02  0.9538826E-01
          2   -1    0    0  501    0  0.00000000000E+00  0.00000000000E+00  0.26654630333E+04  0.26654630333E+04  0.25500000000E-02 0. -1.
         -2   -1    0    0    0  501 -0.00000000000E+00 -0.00000000000E+00 -0.35909734838E+03  0.35909734839E+03  0.25500000000E-02 0.  1.
    8880022    1    1    2    0    0  0.63715977172E+03  0.48430209658E+03  0.31612141158E+03  0.87398254864E+03  0.15294330000E+03 0.  0.
    8880022    1    1    2    0    0 -0.63715977172E+03 -0.48430209658E+03  0.19902442733E+04  0.21505778330E+04  0.15294330000E+03 0.  0.
<mgrwt>
<rscale>  0 0.81480841E+03</rscale>
<asrwt>0</asrwt>
<pdfrwt beam="1">  1        2 0.41007124E+00 0.81480841E+03</pdfrwt>
<pdfrwt beam="2">  1       -2 0.55245745E-01 0.81480841E+03</pdfrwt>
<totfact> 0.89392064E+00</totfact>
</mgrwt>
</event>
<event>
 4    1  0.1033139E-008  0.1737206E+04  0.7818608E-02  0.8740425E-01
         -2   -1    0    0    0  501 -0.00000000000E+00  0.00000000000E+00  0.13695976606E+04  0.13695976606E+04  0.25500000000E-02 0.  1.
          2   -1    0    0  501    0  0.00000000000E+00 -0.00000000000E+00 -0.30530982587E+04  0.30530982587E+04  0.25500000000E-02 0. -1.
    8880022    1    1    2    0    0 -0.80720724607E+02 -0.17285762962E+04 -0.20082863265E+04  0.26553902668E+04  0.15294330000E+03 0.  0.
    8880022    1    1    2    0    0  0.80720724607E+02  0.17285762962E+04  0.32478572837E+03  0.17673056525E+04  0.15294330000E+03 0.  0.
<mgrwt>
<rscale>  0 0.17372057E+04</rscale>
<asrwt>0</asrwt>
<pdfrwt beam="1">  1        2 0.46970742E+00 0.17372057E+04</pdfrwt>
<pdfrwt beam="2">  1       -2 0.21070733E+00 0.17372057E+04</pdfrwt>
<totfact> 0.16738799E-01</totfact>
</mgrwt>
</event>
<event>
 4    1  0.1033139E-008  0.1185661E+04  0.7818608E-02  0.9125500E-01
          2   -1    0    0  501    0  0.00000000000E+00  0.00000000000E+00  0.25992706484E+04  0.25992706484E+04  0.25500000000E-02 0. -1.
         -2   -1    0    0    0  501 -0.00000000000E+00 -0.00000000000E+00 -0.75334921628E+03  0.75334921629E+03  0.25500000000E-02 0.  1.
    8880022    1    1    2    0    0  0.98505446051E+03 -0.64192604405E+03  0.32645746139E+02  0.11861107596E+04  0.15294330000E+03 0.  0.
    8880022    1    1    2    0    0 -0.98505446051E+03  0.64192604405E+03  0.18132756860E+04  0.21665091052E+04  0.15294330000E+03 0.  0.
<mgrwt>
<rscale>  0 0.11856614E+04</rscale>
<asrwt>0</asrwt>
<pdfrwt beam="1">  1        2 0.39988779E+00 0.11856614E+04</pdfrwt>
<pdfrwt beam="2">  1       -2 0.11589988E+00 0.11856614E+04</pdfrwt>
<totfact> 0.17344883E+00</totfact>
</mgrwt>
</event>
<event>
 4    1  0.1033139E-008  0.9208682E+03  0.7818608E-02  0.9399865E-01
          2   -1    0    0  501    0  0.00000000000E+00  0.00000000000E+00  0.24559234132E+04  0.24559234132E+04  0.25500000000E-02 0. -1.
         -2   -1    0    0    0  501 -0.00000000000E+00 -0.00000000000E+00 -0.37981231101E+03  0.37981231102E+03  0.25500000000E-02 0.  1.
    8880022    1    1    2    0    0  0.89574406567E+03 -0.14916133141E+03  0.14655403301E+04  0.17308398673E+04  0.15294330000E+03 0.  0.
    8880022    1    1    2    0    0 -0.89574406567E+03  0.14916133141E+03  0.61057077214E+03  0.11048958570E+04  0.15294330000E+03 0.  0.
<mgrwt>
<rscale>  0 0.92086817E+03</rscale>
<asrwt>0</asrwt>
<pdfrwt beam="1">  1        2 0.37783438E+00 0.92086817E+03</pdfrwt>
<pdfrwt beam="2">  1       -2 0.58432662E-01 0.92086817E+03</pdfrwt>
<totfact> 0.10325060E+01</totfact>
</mgrwt>
</event>
<event>
 4    1  0.1033139E-008  0.1690639E+04  0.7818608E-02  0.8766722E-01
          2   -1    0    0  501    0  0.00000000000E+00  0.00000000000E+00  0.23343997644E+04  0.23343997644E+04  0.25500000000E-02 0. -1.
         -2   -1    0    0    0  501 -0.00000000000E+00 -0.00000000000E+00 -0.14705239049E+04  0.14705239049E+04  0.25500000000E-02 0.  1.
    8880022    1    1    2    0    0  0.14998943088E+04  0.76497318183E+03 -0.34636639138E+03  0.17257543964E+04  0.15294330000E+03 0.  0.
    8880022    1    1    2    0    0 -0.14998943088E+04 -0.76497318183E+03  0.12102422508E+04  0.20791692729E+04  0.15294330000E+03 0.  0.
<mgrwt>
<rscale>  0 0.16906385E+04</rscale>
<asrwt>0</asrwt>
<pdfrwt beam="1">  1        2 0.35913843E+00 0.16906385E+04</pdfrwt>
<pdfrwt beam="2">  1       -2 0.22623445E+00 0.16906385E+04</pdfrwt>
<totfact> 0.35964006E-01</totfact>
</mgrwt>
</event>
<event>
 4    1  0.1033139E-008  0.6271943E+03  0.7818608E-02  0.9850539E-01
          2   -1    0    0  501    0  0.00000000000E+00  0.00000000000E+00  0.11849440150E+04  0.11849440150E+04  0.25500000000E-02 0. -1.
         -2   -1    0    0    0  501 -0.00000000000E+00 -0.00000000000E+00 -0.47362075010E+03  0.47362075011E+03  0.25500000000E-02 0.  1.
    8880022    1    1    2    0    0 -0.29778817067E+03  0.53038031810E+03 -0.97849170470E+02  0.63478121396E+03  0.15294330000E+03 0.  0.
    8880022    1    1    2    0    0  0.29778817067E+03 -0.53038031810E+03  0.80917243534E+03  0.10237835511E+04  0.15294330000E+03 0.  0.
<mgrwt>
<rscale>  0 0.62719433E+03</rscale>
<asrwt>0</asrwt>
<pdfrwt beam="1">  1        2 0.18229908E+00 0.62719433E+03</pdfrwt>
<pdfrwt beam="2">  1       -2 0.72864731E-01 0.62719433E+03</pdfrwt>
<totfact> 0.33980613E+01</totfact>
</mgrwt>
</event>
<event>
 4    1  0.1033139E-008  0.8718699E+03  0.7818608E-02  0.9461445E-01
          2   -1    0    0  501    0  0.00000000000E+00  0.00000000000E+00  0.38049603606E+04  0.38049603606E+04  0.25500000000E-02 0. -1.
         -2   -1    0    0    0  501 -0.00000000000E+00 -0.00000000000E+00 -0.71646033801E+03  0.71646033802E+03  0.25500000000E-02 0.  1.
    8880022    1    1    2    0    0  0.37195692872E+03 -0.77357187254E+03 -0.37556588970E+03  0.94931911881E+03  0.15294330000E+03 0.  0.
    8880022    1    1    2    0    0 -0.37195692872E+03  0.77357187254E+03  0.34640659123E+04  0.35721015798E+04  0.15294330000E+03 0.  0.
<mgrwt>
<rscale>  0 0.87186986E+03</rscale>
<asrwt>0</asrwt>
<pdfrwt beam="1">  1        2 0.58537851E+00 0.87186986E+03</pdfrwt>
<pdfrwt beam="2">  1       -2 0.11022467E+00 0.87186986E+03</pdfrwt>
<totfact> 0.34100884E-01</totfact>
</mgrwt>
</event>
<event>
 4    1  0.1033139E-008  0.5463838E+03  0.7818608E-02  0.1002334E+00
          2   -1    0    0  501    0  0.00000000000E+00  0.00000000000E+00  0.13377963741E+04  0.13377963741E+04  0.25500000000E-02 0. -1.
         -2   -1    0    0    0  501 -0.00000000000E+00 -0.00000000000E+00 -0.32871736681E+03  0.32871736682E+03  0.25500000000E-02 0.  1.
    8880022    1    1    2    0    0  0.28650453777E+03  0.43938449241E+03  0.97673651790E+03  0.11191735615E+04  0.15294330000E+03 0.  0.
    8880022    1    1    2    0    0 -0.28650453777E+03 -0.43938449241E+03  0.32342489352E+02  0.54734017938E+03  0.15294330000E+03 0.  1.
<mgrwt>
<rscale>  0 0.54638378E+03</rscale>
<asrwt>0</asrwt>
<pdfrwt beam="1">  1        2 0.20581483E+00 0.54638378E+03</pdfrwt>
<pdfrwt beam="2">  1       -2 0.50571902E-01 0.54638378E+03</pdfrwt>
<totfact> 0.60564169E+01</totfact>
</mgrwt>
</event>
<event>
 4    1  0.1033139E-008  0.1337350E+04  0.7818608E-02  0.9000459E-01
          2   -1    0    0  501    0  0.00000000000E+00  0.00000000000E+00  0.17607656250E+04  0.17607656250E+04  0.25500000000E-02 0. -1.
         -2   -1    0    0    0  501 -0.00000000000E+00 -0.00000000000E+00 -0.12968477265E+04  0.12968477265E+04  0.25500000000E-02 0.  1.
    8880022    1    1    2    0    0 -0.12194634695E+04  0.52727851895E+03  0.94371856020E+03  0.16367987549E+04  0.15294330000E+03 0.  0.
    8880022    1    1    2    0    0  0.12194634695E+04 -0.52727851895E+03 -0.47980066172E+03  0.14208145966E+04  0.15294330000E+03 0.  0.
<mgrwt>
<rscale>  0 0.13373502E+04</rscale>
<asrwt>0</asrwt>
<pdfrwt beam="1">  1        2 0.27088702E+00 0.13373502E+04</pdfrwt>
<pdfrwt beam="2">  1       -2 0.19951504E+00 0.13373502E+04</pdfrwt>
<totfact> 0.11616621E+00</totfact>
</mgrwt>
</event>
<event>
 4    1  0.1033139E-008  0.9062807E+03  0.7818608E-02  0.9417764E-01
         -2   -1    0    0    0  501 -0.00000000000E+00  0.00000000000E+00  0.35287255226E+03  0.35287255227E+03  0.25500000000E-02 0.  1.
          2   -1    0    0  501    0  0.00000000000E+00 -0.00000000000E+00 -0.23522526500E+04  0.23522526500E+04  0.25500000000E-02 0. -1.
    8880022    1    1    2    0    0  0.53761898827E+03  0.71338544537E+03 -0.11381695116E+04  0.14549139013E+04  0.15294330000E+03 0.  0.
    8880022    1    1    2    0    0 -0.53761898827E+03 -0.71338544537E+03 -0.86121058612E+03  0.12502113009E+04  0.15294330000E+03 0.  0.
<mgrwt>
<rscale>  0 0.90628065E+03</rscale>
<asrwt>0</asrwt>
<pdfrwt beam="1">  1        2 0.36188501E+00 0.90628065E+03</pdfrwt>
<pdfrwt beam="2">  1       -2 0.54288086E-01 0.90628065E+03</pdfrwt>
<totfact> 0.13805119E+01</totfact>
</mgrwt>
</event>
<event>
 4    1  0.1033139E-008  0.6202454E+03  0.7818608E-02  0.9864271E-01
          2   -1    0    0  501    0  0.00000000000E+00  0.00000000000E+00  0.74810581508E+03  0.74810581509E+03  0.25500000000E-02 0. -1.
         -2   -1    0    0    0  501 -0.00000000000E+00 -0.00000000000E+00 -0.10626231427E+04  0.10626231427E+04  0.25500000000E-02 0.  1.
    8880022    1    1    2    0    0 -0.36198698849E+03 -0.47987302409E+03  0.49313559933E+03  0.79239325554E+03  0.15294330000E+03 0.  0.
    8880022    1    1    2    0    0  0.36198698849E+03  0.47987302409E+03 -0.80765292698E+03  0.10183357023E+04  0.15294330000E+03 0.  0.
<mgrwt>
<rscale>  0 0.62024540E+03</rscale>
<asrwt>0</asrwt>
<pdfrwt beam="1">  1        2 0.11509320E+00 0.62024540E+03</pdfrwt>
<pdfrwt beam="2">  1       -2 0.16348048E+00 0.62024540E+03</pdfrwt>
<totfact> 0.92345607E+00</totfact>
</mgrwt>
</event>
<event>
 4    1  0.1033139E-008  0.9217392E+03  0.7818608E-02  0.9398807E-01
          2   -1    0    0  501    0  0.00000000000E+00  0.00000000000E+00  0.39252779630E+04  0.39252779630E+04  0.25500000000E-02 0. -1.
         -2   -1    0    0    0  501 -0.00000000000E+00 -0.00000000000E+00 -0.25667325655E+03  0.25667325656E+03  0.25500000000E-02 0.  1.
    8880022    1    1    2    0    0  0.35885125791E+03 -0.83512706158E+03  0.26621098443E+04  0.28171673558E+04  0.15294330000E+03 0.  0.
    8880022    1    1    2    0    0 -0.35885125791E+03  0.83512706158E+03  0.10064948621E+04  0.13647838638E+04  0.15294330000E+03 0.  0.
<mgrwt>
<rscale>  0 0.92173916E+03</rscale>
<asrwt>0</asrwt>
<pdfrwt beam="1">  1        2 0.60388889E+00 0.92173916E+03</pdfrwt>
<pdfrwt beam="2">  1       -2 0.39488195E-01 0.92173916E+03</pdfrwt>
<totfact> 0.25397805E+00</totfact>
</mgrwt>
</event>
<event>
 4    1  0.1033139E-008  0.6142758E+03  0.7818608E-02  0.9876223E-01
         -2   -1    0    0    0  501 -0.00000000000E+00  0.00000000000E+00  0.32139008852E+03  0.32139008853E+03  0.25500000000E-02 0.  1.
          2   -1    0    0  501    0  0.00000000000E+00 -0.00000000000E+00 -0.28139054198E+04  0.28139054198E+04  0.25500000000E-02 0. -1.
    8880022    1    1    2    0    0  0.48245005960E+03 -0.34811650607E+03 -0.24429808983E+04  0.25190257014E+04  0.15294330000E+03 0.  0.
    8880022    1    1    2    0    0 -0.48245005960E+03  0.34811650607E+03 -0.49534432919E+02  0.61626980687E+03  0.15294330000E+03 0.  0.
<mgrwt>
<rscale>  0 0.61427585E+03</rscale>
<asrwt>0</asrwt>
<pdfrwt beam="1">  1        2 0.43290851E+00 0.61427585E+03</pdfrwt>
<pdfrwt beam="2">  1       -2 0.49444631E-01 0.61427585E+03</pdfrwt>
<totfact> 0.95388169E+00</totfact>
</mgrwt>
</event>
<event>
 4    1  0.1033139E-008  0.5278560E+03  0.7818608E-02  0.1006753E+00
          2   -1    0    0  501    0  0.00000000000E+00  0.00000000000E+00  0.11725088289E+04  0.11725088289E+04  0.25500000000E-02 0. -1.
         -2   -1    0    0    0  501 -0.00000000000E+00 -0.00000000000E+00 -0.60924443976E+03  0.60924443977E+03  0.25500000000E-02 0.  1.
    8880022    1    1    2    0    0  0.43051329719E+03  0.26438339133E+03 -0.41413469521E+03  0.67092434406E+03  0.15294330000E+03 0.  0.
    8880022    1    1    2    0    0 -0.43051329719E+03 -0.26438339133E+03  0.97739908437E+03  0.11108289246E+04  0.15294330000E+03 0.  0.
<mgrwt>
<rscale>  0 0.52785597E+03</rscale>
<asrwt>0</asrwt>
<pdfrwt beam="1">  1        2 0.18038597E+00 0.52785597E+03</pdfrwt>
<pdfrwt beam="2">  1       -2 0.93729915E-01 0.52785597E+03</pdfrwt>
<totfact> 0.19855513E+01</totfact>
</mgrwt>
</event>
<event>
 4    1  0.1033139E-008  0.9516292E+03  0.7818608E-02  0.9363248E-01
         -2   -1    0    0    0  501 -0.00000000000E+00  0.00000000000E+00  0.37270964523E+03  0.37270964524E+03  0.25500000000E-02 0.  1.
          2   -1    0    0  501    0  0.00000000000E+00 -0.00000000000E+00 -0.30195254582E+04  0.30195254582E+04  0.25500000000E-02 0. -1.
    8880022    1    1    2    0    0  0.55008911941E+02  0.93764620877E+03 -0.20729969766E+04  0.22809898096E+04  0.15294330000E+03 0.  0.
    8880022    1    1    2    0    0 -0.55008911941E+02 -0.93764620877E+03 -0.57381883632E+03  0.11112452939E+04  0.15294330000E+03 0.  0.
<mgrwt>
<rscale>  0 0.95162915E+03</rscale>
<asrwt>0</asrwt>
<pdfrwt beam="1">  1        2 0.46454236E+00 0.95162915E+03</pdfrwt>
<pdfrwt beam="2">  1       -2 0.57339948E-01 0.95162915E+03</pdfrwt>
<totfact> 0.49713988E+00</totfact>
</mgrwt>
</event>
<event>
 4    1  0.1033139E-008  0.6367027E+03  0.7818608E-02  0.9832055E-01
         -2   -1    0    0    0  501 -0.00000000000E+00  0.00000000000E+00  0.15579163737E+04  0.15579163737E+04  0.25500000000E-02 0.  1.
          2   -1    0    0  501    0  0.00000000000E+00 -0.00000000000E+00 -0.54183411150E+03  0.54183411150E+03  0.25500000000E-02 0. -1.
    8880022    1    1    2    0    0  0.47299337265E+03 -0.39783917118E+03  0.12649384740E+04  0.14161425538E+04  0.15294330000E+03 0.  0.
    8880022    1    1    2    0    0 -0.47299337265E+03  0.39783917118E+03 -0.24885621180E+03  0.68360793139E+03  0.15294330000E+03 0.  0.
<mgrwt>
<rscale>  0 0.63670275E+03</rscale>
<asrwt>0</asrwt>
<pdfrwt beam="1">  1        2 0.83359092E-01 0.63670275E+03</pdfrwt>
<pdfrwt beam="2">  1       -2 0.23967945E+00 0.63670275E+03</pdfrwt>
<totfact> 0.43538956E+00</totfact>
</mgrwt>
</event>
<event>
 4    1  0.1033139E-008  0.7699429E+03  0.7818608E-02  0.9604572E-01
          2   -1    0    0  501    0  0.00000000000E+00  0.00000000000E+00  0.22764604370E+04  0.22764604370E+04  0.25500000000E-02 0. -1.
         -2   -1    0    0    0  501 -0.00000000000E+00 -0.00000000000E+00 -0.56866626673E+03  0.56866626674E+03  0.25500000000E-02 0.  1.
    8880022    1    1    2    0    0 -0.74124410217E+03  0.14134195170E+03 -0.19347058196E+03  0.79387838201E+03  0.15294330000E+03 0.  0.
    8880022    1    1    2    0    0  0.74124410217E+03 -0.14134195170E+03  0.19012647523E+04  0.20512483218E+04  0.15294330000E+03 0.  0.
<mgrwt>
<rscale>  0 0.76994287E+03</rscale>
<asrwt>0</asrwt>
<pdfrwt beam="1">  1        2 0.35022467E+00 0.76994287E+03</pdfrwt>
<pdfrwt beam="2">  1       -2 0.87487121E-01 0.76994287E+03</pdfrwt>
<totfact> 0.54831664E+00</totfact>
</mgrwt>
</event>
<event>
 4    1  0.1033139E-008  0.1020760E+04  0.7818608E-02  0.9286065E-01
          2   -1    0    0  501    0  0.00000000000E+00  0.00000000000E+00  0.32273730185E+04  0.32273730185E+04  0.25500000000E-02 0. -1.
         -2   -1    0    0    0  501 -0.00000000000E+00 -0.00000000000E+00 -0.81523414863E+03  0.81523414863E+03  0.25500000000E-02 0.  1.
    8880022    1    1    2    0    0 -0.88422295710E+03 -0.48652684567E+03 -0.36481186005E+03  0.10839916769E+04  0.15294330000E+03 0.  0.
    8880022    1    1    2    0    0  0.88422295710E+03  0.48652684567E+03  0.27769507299E+04  0.29586154902E+04  0.15294330000E+03 0.  0.
<mgrwt>
<rscale>  0 0.10207596E+04</rscale>
<asrwt>0</asrwt>
<pdfrwt beam="1">  1        2 0.49651893E+00 0.10207596E+04</pdfrwt>
<pdfrwt beam="2">  1       -2 0.12542064E+00 0.10207596E+04</pdfrwt>
<totfact> 0.60339666E-01</totfact>
</mgrwt>
</event>
<event>
 4    1  0.1033139E-008  0.7050542E+03  0.7818608E-02  0.9708628E-01
         -2   -1    0    0    0  501 -0.00000000000E+00  0.00000000000E+00  0.48528457057E+03  0.48528457058E+03  0.25500000000E-02 0.  1.
          2   -1    0    0  501    0  0.00000000000E+00 -0.00000000000E+00 -0.11080701540E+04  0.11080701540E+04  0.25500000000E-02 0. -1.
    8880022    1    1    2    0    0  0.48941055068E+03  0.48392882616E+03 -0.53037699804E+03  0.88227048515E+03  0.15294330000E+03 0.  0.
    8880022    1    1    2    0    0 -0.48941055068E+03 -0.48392882616E+03 -0.92408585391E+02  0.71108423943E+03  0.15294330000E+03 0.  0.
<mgrwt>
<rscale>  0 0.70505422E+03</rscale>
<asrwt>0</asrwt>
<pdfrwt beam="1">  1        2 0.17047233E+00 0.70505422E+03</pdfrwt>
<pdfrwt beam="2">  1       -2 0.74659165E-01 0.70505422E+03</pdfrwt>
<totfact> 0.35500006E+01</totfact>
</mgrwt>
</event>
<event>
 4    1  0.1033139E-008  0.4351715E+03  0.7818608E-02  0.1032239E+00
         -2   -1    0    0    0  501 -0.00000000000E+00  0.00000000000E+00  0.12644114872E+04  0.12644114872E+04  0.25500000000E-02 0.  1.
          2   -1    0    0  501    0  0.00000000000E+00 -0.00000000000E+00 -0.53964200075E+03  0.53964200076E+03  0.25500000000E-02 0. -1.
    8880022    1    1    2    0    0 -0.19001119601E+03  0.36038630745E+03  0.11290858962E+04  0.12100451063E+04  0.15294330000E+03 0.  1.
    8880022    1    1    2    0    0  0.19001119601E+03 -0.36038630745E+03 -0.40431640981E+03  0.59400838164E+03  0.15294330000E+03 0.  0.
<mgrwt>
<rscale>  0 0.43517146E+03</rscale>
<asrwt>0</asrwt>
<pdfrwt beam="1">  1        2 0.83021847E-01 0.43517146E+03</pdfrwt>
<pdfrwt beam="2">  1       -2 0.19452484E+00 0.43517146E+03</pdfrwt>
<totfact> 0.86813336E+00</totfact>
</mgrwt>
</event>
<event>
 4    1  0.1033139E-008  0.1347834E+04  0.7818608E-02  0.8992470E-01
         -2   -1    0    0    0  501 -0.00000000000E+00  0.00000000000E+00  0.22045029845E+04  0.22045029845E+04  0.25500000000E-02 0.  1.
          2   -1    0    0  501    0  0.00000000000E+00 -0.00000000000E+00 -0.14491062297E+04  0.14491062297E+04  0.25500000000E-02 0. -1.
    8880022    1    1    2    0    0  0.11527462502E+04 -0.68149821715E+03 -0.82206627107E+03  0.15787489808E+04  0.15294330000E+03 0.  0.
    8880022    1    1    2    0    0 -0.11527462502E+04  0.68149821715E+03  0.15774630259E+04  0.20748602334E+04  0.15294330000E+03 0.  0.
<mgrwt>
<rscale>  0 0.13478336E+04</rscale>
<asrwt>0</asrwt>
<pdfrwt beam="1">  1        2 0.22293942E+00 0.13478336E+04</pdfrwt>
<pdfrwt beam="2">  1       -2 0.33915431E+00 0.13478336E+04</pdfrwt>
<totfact> 0.23701916E-01</totfact>
</mgrwt>
</event>
<event>
 4    1  0.1033139E-008  0.4044529E+03  0.7818608E-02  0.1042249E+00
          2   -1    0    0  501    0  0.00000000000E+00  0.00000000000E+00  0.59433244673E+03  0.59433244674E+03  0.25500000000E-02 0. -1.
         -2   -1    0    0    0  501 -0.00000000000E+00 -0.00000000000E+00 -0.12296319968E+04  0.12296319968E+04  0.25500000000E-02 0.  1.
    8880022    1    1    2    0    0 -0.27174831793E+03  0.25757209528E+03 -0.11211072720E+04  0.11918320775E+04  0.15294330000E+03 0.  1.
    8880022    1    1    2    0    0  0.27174831793E+03 -0.25757209528E+03  0.48580772191E+03  0.63213236608E+03  0.15294330000E+03 0.  0.
<mgrwt>
<rscale>  0 0.40445295E+03</rscale>
<asrwt>0</asrwt>
<pdfrwt beam="1">  1        2 0.91435761E-01 0.40445295E+03</pdfrwt>
<pdfrwt beam="2">  1       -2 0.18917415E+00 0.40445295E+03</pdfrwt>
<totfact> 0.84580804E+00</totfact>
</mgrwt>
</event>
<event>
 4    1  0.1033139E-008  0.1818620E+04  0.7818608E-02  0.8696460E-01
          2   -1    0    0  501    0  0.00000000000E+00  0.00000000000E+00  0.32630747017E+04  0.32630747017E+04  0.25500000000E-02 0. -1.
         -2   -1    0    0    0  501 -0.00000000000E+00 -0.00000000000E+00 -0.13891961504E+04  0.13891961504E+04  0.25500000000E-02 0.  1.
    8880022    1    1    2    0    0  0.10673036930E+04  0.14645311940E+04 -0.27261829864E+03  0.18389402332E+04  0.15294330000E+03 0.  0.
    8880022    1    1    2    0    0 -0.10673036930E+04 -0.14645311940E+04  0.21464968499E+04  0.28133306189E+04  0.15294330000E+03 0.  0.
<mgrwt>
<rscale>  0 0.18186205E+04</rscale>
<asrwt>0</asrwt>
<pdfrwt beam="1">  1        2 0.50201149E+00 0.18186205E+04</pdfrwt>
<pdfrwt beam="2">  1       -2 0.21372248E+00 0.18186205E+04</pdfrwt>
<totfact> 0.11606481E-01</totfact>
</mgrwt>
</event>
<event>
 4    1  0.1033139E-008  0.1788108E+04  0.7818608E-02  0.8712649E-01
         -2   -1    0    0    0  501 -0.00000000000E+00  0.00000000000E+00  0.25488150532E+04  0.25488150532E+04  0.25500000000E-02 0.  1.
          2   -1    0    0  501    0  0.00000000000E+00 -0.00000000000E+00 -0.17044322201E+04  0.17044322201E+04  0.25500000000E-02 0. -1.
    8880022    1    1    2    0    0  0.16399880029E+04 -0.69597323009E+03  0.15148994261E+04  0.23435552716E+04  0.15294330000E+03 0.  0.
    8880022    1    1    2    0    0 -0.16399880029E+04  0.69597323009E+03 -0.67051659309E+03  0.19096920017E+04  0.15294330000E+03 0.  0.
<mgrwt>
<rscale>  0 0.17881082E+04</rscale>
<asrwt>0</asrwt>
<pdfrwt beam="1">  1        2 0.26222034E+00 0.17881082E+04</pdfrwt>
<pdfrwt beam="2">  1       -2 0.39212539E+00 0.17881082E+04</pdfrwt>
<totfact> 0.74127151E-02</totfact>
</mgrwt>
</event>
<event>
 4    1  0.1033139E-008  0.8786110E+03  0.7818608E-02  0.9452721E-01
          2   -1    0    0  501    0  0.00000000000E+00  0.00000000000E+00  0.26486542149E+04  0.26486542149E+04  0.25500000000E-02 0. -1.
         -2   -1    0    0    0  501 -0.00000000000E+00 -0.00000000000E+00 -0.12658679799E+04  0.12658679799E+04  0.25500000000E-02 0.  1.
    8880022    1    1    2    0    0  0.27768837084E+03 -0.81942346428E+03 -0.10258295402E+04  0.13506604102E+04  0.15294330000E+03 0.  0.
    8880022    1    1    2    0    0 -0.27768837084E+03  0.81942346428E+03  0.24086157752E+04  0.25638617846E+04  0.15294330000E+03 0.  0.
<mgrwt>
<rscale>  0 0.87861101E+03</rscale>
<asrwt>0</asrwt>
<pdfrwt beam="1">  1        2 0.40748526E+00 0.87861101E+03</pdfrwt>
<pdfrwt beam="2">  1       -2 0.19474892E+00 0.87861101E+03</pdfrwt>
<totfact> 0.42383160E-01</totfact>
</mgrwt>
</event>
<event>
 4    1  0.1033139E-008  0.1035535E+04  0.7818608E-02  0.9270407E-01
          2   -1    0    0  501    0  0.00000000000E+00  0.00000000000E+00  0.18448337450E+04  0.18448337450E+04  0.25500000000E-02 0. -1.
         -2   -1    0    0    0  501 -0.00000000000E+00 -0.00000000000E+00 -0.85584094312E+03  0.85584094312E+03  0.25500000000E-02 0.  1.
    8880022    1    1    2    0    0  0.95289832685E+02  0.10197353868E+04  0.12593516114E+04  0.16304289452E+04  0.15294330000E+03 0.  0.
    8880022    1    1    2    0    0 -0.95289832685E+02 -0.10197353868E+04 -0.27035880949E+03  0.10702457429E+04  0.15294330000E+03 0.  0.
<mgrwt>
<rscale>  0 0.10355347E+04</rscale>
<asrwt>0</asrwt>
<pdfrwt beam="1">  1        2 0.28382057E+00 0.10355347E+04</pdfrwt>
<pdfrwt beam="2">  1       -2 0.13166784E+00 0.10355347E+04</pdfrwt>
<totfact> 0.33991663E+00</totfact>
</mgrwt>
</event>
<event>
 4    1  0.1033139E-008  0.8048069E+03  0.7818608E-02  0.9553085E-01
          2   -1    0    0  501    0  0.00000000000E+00  0.00000000000E+00  0.34600261092E+04  0.34600261092E+04  0.25500000000E-02 0. -1.
         -2   -1    0    0    0  501 -0.00000000000E+00 -0.00000000000E+00 -0.67957804637E+03  0.67957804638E+03  0.25500000000E-02 0.  1.
    8880022    1    1    2    0    0 -0.44539460384E+03  0.65264543645E+03 -0.37158506344E+03  0.88644770361E+03  0.15294330000E+03 0.  0.
    8880022    1    1    2    0    0  0.44539460384E+03 -0.65264543645E+03  0.31520331263E+04  0.32531564520E+04  0.15294330000E+03 0.  0.
<mgrwt>
<rscale>  0 0.80480685E+03</rscale>
<asrwt>0</asrwt>
<pdfrwt beam="1">  1        2 0.53231172E+00 0.80480685E+03</pdfrwt>
<pdfrwt beam="2">  1       -2 0.10455047E+00 0.80480685E+03</pdfrwt>
<totfact> 0.69095063E-01</totfact>
</mgrwt>
</event>
<event>
 4    1  0.1033139E-008  0.7309130E+03  0.7818608E-02  0.9665780E-01
         -2   -1    0    0    0  501 -0.00000000000E+00  0.00000000000E+00  0.66993157571E+03  0.66993157571E+03  0.25500000000E-02 0.  1.
          2   -1    0    0  501    0  0.00000000000E+00 -0.00000000000E+00 -0.44118765024E+04  0.44118765024E+04  0.25500000000E-02 0. -1.
    8880022    1    1    2    0    0 -0.43649672631E+03  0.56596178901E+03  0.42886196435E+03  0.84744107535E+03  0.15294330000E+03 0.  0.
    8880022    1    1    2    0    0  0.43649672631E+03 -0.56596178901E+03 -0.41708068910E+04  0.42343670028E+04  0.15294330000E+03 0. -1.
<mgrwt>
<rscale>  0 0.73091299E+03</rscale>
<asrwt>0</asrwt>
<pdfrwt beam="1">  1        2 0.67875021E+00 0.73091299E+03</pdfrwt>
<pdfrwt beam="2">  1       -2 0.10306640E+00 0.73091299E+03</pdfrwt>
<totfact> 0.13173585E-01</totfact>
</mgrwt>
</event>
<event>
 4    1  0.1033139E-008  0.1178096E+04  0.7818608E-02  0.9132248E-01
          2   -1    0    0  501    0  0.00000000000E+00  0.00000000000E+00  0.41389974050E+04  0.41389974050E+04  0.25500000000E-02 0. -1.
         -2   -1    0    0    0  501 -0.00000000000E+00 -0.00000000000E+00 -0.56062126452E+03  0.56062126453E+03  0.25500000000E-02 0.  1.
    8880022    1    1    2    0    0  0.65832802985E+02 -0.11662693265E+04  0.29957068399E+03  0.12155872440E+04  0.15294330000E+03 0.  0.
    8880022    1    1    2    0    0 -0.65832802985E+02  0.11662693265E+04  0.32788054565E+04  0.34840314256E+04  0.15294330000E+03 0.  0.
<mgrwt>
<rscale>  0 0.11780958E+04</rscale>
<asrwt>0</asrwt>
<pdfrwt beam="1">  1        2 0.63676880E+00 0.11780958E+04</pdfrwt>
<pdfrwt beam="2">  1       -2 0.86249429E-01 0.11780958E+04</pdfrwt>
<totfact> 0.31296795E-01</totfact>
</mgrwt>
</event>
<event>
 4    1  0.1033139E-008  0.8167166E+03  0.7818608E-02  0.9536131E-01
          2   -1    0    0  501    0  0.00000000000E+00  0.00000000000E+00  0.15047786349E+04  0.15047786349E+04  0.25500000000E-02 0. -1.
         -2   -1    0    0    0  501 -0.00000000000E+00 -0.00000000000E+00 -0.46948703570E+03  0.46948703571E+03  0.25500000000E-02 0.  1.
    8880022    1    1    2    0    0  0.54348703533E+03 -0.59013229970E+03  0.28438560290E+03  0.86481276174E+03  0.15294330000E+03 0.  0.
    8880022    1    1    2    0    0 -0.54348703533E+03  0.59013229970E+03  0.75090599630E+03  0.11094529089E+04  0.15294330000E+03 0.  0.
<mgrwt>
<rscale>  0 0.81671656E+03</rscale>
<asrwt>0</asrwt>
<pdfrwt beam="1">  1        2 0.23150440E+00 0.81671656E+03</pdfrwt>
<pdfrwt beam="2">  1       -2 0.72228776E-01 0.81671656E+03</pdfrwt>
<totfact> 0.22243896E+01</totfact>
</mgrwt>
</event>
<event>
 4    1  0.1033139E-008  0.7272957E+03  0.7818608E-02  0.9671659E-01
         -2   -1    0    0    0  501 -0.00000000000E+00  0.00000000000E+00  0.48989311184E+03  0.48989311185E+03  0.25500000000E-02 0.  1.
          2   -1    0    0  501    0  0.00000000000E+00 -0.00000000000E+00 -0.31715509278E+04  0.31715509278E+04  0.25500000000E-02 0. -1.
    8880022    1    1    2    0    0 -0.30342048385E+03 -0.64304231020E+03  0.14595337942E+03  0.74179609376E+03  0.15294330000E+03 0.  0.
    8880022    1    1    2    0    0  0.30342048385E+03  0.64304231020E+03 -0.28276111954E+04  0.29196479459E+04  0.15294330000E+03 0.  0.
<mgrwt>
<rscale>  0 0.72729571E+03</rscale>
<asrwt>0</asrwt>
<pdfrwt beam="1">  1        2 0.48793090E+00 0.72729571E+03</pdfrwt>
<pdfrwt beam="2">  1       -2 0.75368173E-01 0.72729571E+03</pdfrwt>
<totfact> 0.23065882E+00</totfact>
</mgrwt>
</event>
<event>
 4    1  0.1033139E-008  0.2295705E+03  0.7818608E-02  0.1126942E+00
         -2   -1    0    0    0  501 -0.00000000000E+00  0.00000000000E+00  0.58579147680E+03  0.58579147681E+03  0.25500000000E-02 0.  1.
          2   -1    0    0  501    0  0.00000000000E+00 -0.00000000000E+00 -0.72158036135E+03  0.72158036136E+03  0.25500000000E-02 0. -1.
    8880022    1    1    2    0    0 -0.13749769994E+03 -0.10200657622E+03 -0.67947266854E+03  0.71720688744E+03  0.15294330000E+03 0.  0.
    8880022    1    1    2    0    0  0.13749769994E+03  0.10200657622E+03  0.54368378399E+03  0.59016495073E+03  0.15294330000E+03 0.  1.
<mgrwt>
<rscale>  0 0.22957049E+03</rscale>
<asrwt>0</asrwt>
<pdfrwt beam="1">  1        2 0.11101236E+00 0.22957049E+03</pdfrwt>
<pdfrwt beam="2">  1       -2 0.90121765E-01 0.22957049E+03</pdfrwt>
<totfact> 0.45099954E+01</totfact>
</mgrwt>
</event>
<event>
 4    1  0.1033139E-008  0.9575541E+03  0.7818608E-02  0.9356364E-01
         -2   -1    0    0    0  501 -0.00000000000E+00  0.00000000000E+00  0.92039444804E+03  0.92039444805E+03  0.25500000000E-02 0.  1.
          2   -1    0    0  501    0  0.00000000000E+00 -0.00000000000E+00 -0.15528315948E+04  0.15528315948E+04  0.25500000000E-02 0. -1.
    8880022    1    1    2    0    0  0.86780427025E+03 -0.37474508496E+03 -0.10565908068E+04  0.14259361543E+04  0.15294330000E+03 0.  0.
    8880022    1    1    2    0    0 -0.86780427025E+03  0.37474508496E+03  0.42415366008E+03  0.10472898885E+04  0.15294330000E+03 0.  0.
<mgrwt>
<rscale>  0 0.95755406E+03</rscale>
<asrwt>0</asrwt>
<pdfrwt beam="1">  1        2 0.23889717E+00 0.95755406E+03</pdfrwt>
<pdfrwt beam="2">  1       -2 0.14159915E+00 0.95755406E+03</pdfrwt>
<totfact> 0.41259432E+00</totfact>
</mgrwt>
</event>
<event>
 4    1  0.1033139E-008  0.7701310E+03  0.7818608E-02  0.9604287E-01
         -2   -1    0    0    0  501 -0.00000000000E+00  0.00000000000E+00  0.32188979289E+03  0.32188979290E+03  0.25500000000E-02 0.  1.
          2   -1    0    0  501    0  0.00000000000E+00 -0.00000000000E+00 -0.34999908246E+04  0.34999908246E+04  0.25500000000E-02 0. -1.
    8880022    1    1    2    0    0  0.48218090731E+03 -0.58069931378E+03 -0.29040669004E+04  0.30044477588E+04  0.15294330000E+03 0.  0.
    8880022    1    1    2    0    0 -0.48218090731E+03  0.58069931378E+03 -0.27403413139E+03  0.81743285876E+03  0.15294330000E+03 0.  0.
<mgrwt>
<rscale>  0 0.77013101E+03</rscale>
<asrwt>0</asrwt>
<pdfrwt beam="1">  1        2 0.53846010E+00 0.77013101E+03</pdfrwt>
<pdfrwt beam="2">  1       -2 0.49521509E-01 0.77013101E+03</pdfrwt>
<totfact> 0.33921071E+00</totfact>
</mgrwt>
</event>
<event>
 4    1  0.1033139E-008  0.2077181E+03  0.7818608E-02  0.1143386E+00
         -2   -1    0    0    0  501 -0.00000000000E+00  0.00000000000E+00  0.13745545622E+03  0.13745545624E+03  0.25500000000E-02 0.  1.
          2   -1    0    0  501    0  0.00000000000E+00 -0.00000000000E+00 -0.16514780888E+04  0.16514780888E+04  0.25500000000E-02 0. -1.
    8880022    1    1    2    0    0  0.52433467542E+02 -0.13040663165E+03 -0.15619965544E+04  0.15757474566E+04  0.15294330000E+03 0.  0.
    8880022    1    1    2    0    0 -0.52433467542E+02  0.13040663165E+03  0.47973921829E+02  0.21318608840E+03  0.15294330000E+03 0.  1.
<mgrwt>
<rscale>  0 0.20771810E+03</rscale>
<asrwt>0</asrwt>
<pdfrwt beam="1">  1        2 0.25407354E+00 0.20771810E+03</pdfrwt>
<pdfrwt beam="2">  1       -2 0.21146994E-01 0.20771810E+03</pdfrwt>
<totfact> 0.22120480E+02</totfact>
</mgrwt>
</event>
<event>
 4    1  0.1033139E-008  0.1028779E+04  0.7818608E-02  0.9277532E-01
         -2   -1    0    0    0  501 -0.00000000000E+00  0.00000000000E+00  0.65328497264E+03  0.65328497264E+03  0.25500000000E-02 0.  1.
          2   -1    0    0  501    0  0.00000000000E+00 -0.00000000000E+00 -0.27671252430E+04  0.27671252430E+04  0.25500000000E-02 0. -1.
    8880022    1    1    2    0    0  0.99091719785E+03  0.23038387231E+03  0.44164682324E+02  0.10297260771E+04  0.15294330000E+03 0.  0.
    8880022    1    1    2    0    0 -0.99091719785E+03 -0.23038387231E+03 -0.21580049527E+04  0.23906841386E+04  0.15294330000E+03 0.  0.
<mgrwt>
<rscale>  0 0.10287785E+04</rscale>
<asrwt>0</asrwt>
<pdfrwt beam="1">  1        2 0.42571157E+00 0.10287785E+04</pdfrwt>
<pdfrwt beam="2">  1       -2 0.10050538E+00 0.10287785E+04</pdfrwt>
<totfact> 0.19948012E+00</totfact>
</mgrwt>
</event>
<event>
 4    1  0.1033139E-008  0.1423425E+04  0.7818608E-02  0.8937035E-01
          2   -1    0    0  501    0  0.00000000000E+00  0.00000000000E+00  0.24578510466E+04  0.24578510466E+04  0.25500000000E-02 0. -1.
         -2   -1    0    0    0  501 -0.00000000000E+00 -0.00000000000E+00 -0.16579002004E+04  0.16579002004E+04  0.25500000000E-02 0.  1.
    8880022    1    1    2    0    0  0.13830911582E+04  0.29967454391E+03  0.18591422559E+04  0.23414840518E+04  0.15294330000E+03 0.  0.
    8880022    1    1    2    0    0 -0.13830911582E+04 -0.29967454391E+03 -0.10591914098E+04  0.17742671951E+04  0.15294330000E+03 0.  0.
<mgrwt>
<rscale>  0 0.14234246E+04</rscale>
<asrwt>0</asrwt>
<pdfrwt beam="1">  1        2 0.37813093E+00 0.14234246E+04</pdfrwt>
<pdfrwt beam="2">  1       -2 0.25506157E+00 0.14234246E+04</pdfrwt>
<totfact> 0.20855223E-01</totfact>
</mgrwt>
</event>
<event>
 4    1  0.1033139E-008  0.1461759E+04  0.7818608E-02  0.8910288E-01
          2   -1    0    0  501    0  0.00000000000E+00  0.00000000000E+00  0.23384789907E+04  0.23384789907E+04  0.25500000000E-02 0. -1.
         -2   -1    0    0    0  501 -0.00000000000E+00 -0.00000000000E+00 -0.10288077494E+04  0.10288077494E+04  0.25500000000E-02 0.  1.
    8880022    1    1    2    0    0  0.14446764155E+04 -0.16204450264E+03  0.91746196115E+02  0.14646355806E+04  0.15294330000E+03 0.  0.
    8880022    1    1    2    0    0 -0.14446764155E+04  0.16204450264E+03  0.12179250451E+04  0.19026511595E+04  0.15294330000E+03 0.  0.
<mgrwt>
<rscale>  0 0.14617592E+04</rscale>
<asrwt>0</asrwt>
<pdfrwt beam="1">  1        2 0.35976600E+00 0.14617592E+04</pdfrwt>
<pdfrwt beam="2">  1       -2 0.15827812E+00 0.14617592E+04</pdfrwt>
<totfact> 0.10590446E+00</totfact>
</mgrwt>
</event>
<event>
 4    1  0.1033139E-008  0.1707568E+04  0.7818608E-02  0.8757060E-01
         -2   -1    0    0    0  501 -0.00000000000E+00  0.00000000000E+00  0.98772814814E+03  0.98772814814E+03  0.25500000000E-02 0.  1.
          2   -1    0    0  501    0  0.00000000000E+00 -0.00000000000E+00 -0.32168089827E+04  0.32168089827E+04  0.25500000000E-02 0. -1.
    8880022    1    1    2    0    0  0.14888511950E+04  0.82202217373E+03 -0.51138640360E+03  0.17824999416E+04  0.15294330000E+03 0.  0.
    8880022    1    1    2    0    0 -0.14888511950E+04 -0.82202217373E+03 -0.17176944310E+04  0.24220371892E+04  0.15294330000E+03 0.  0.
<mgrwt>
<rscale>  0 0.17075684E+04</rscale>
<asrwt>0</asrwt>
<pdfrwt beam="1">  1        2 0.49489369E+00 0.17075684E+04</pdfrwt>
<pdfrwt beam="2">  1       -2 0.15195818E+00 0.17075684E+04</pdfrwt>
<totfact> 0.33956539E-01</totfact>
</mgrwt>
</event>
<event>
 4    1  0.1033139E-008  0.2438938E+03  0.7818608E-02  0.1117226E+00
          2   -1    0    0  501    0  0.00000000000E+00  0.00000000000E+00  0.20630818733E+03  0.20630818735E+03  0.25500000000E-02 0. -1.
         -2   -1    0    0    0  501 -0.00000000000E+00 -0.00000000000E+00 -0.93067121560E+03  0.93067121560E+03  0.25500000000E-02 0.  1.
    8880022    1    1    2    0    0 -0.80582891737E+02  0.17204343161E+03 -0.83447114089E+03  0.86938270215E+03  0.15294330000E+03 0. -1.
    8880022    1    1    2    0    0  0.80582891737E+02 -0.17204343161E+03  0.11010811262E+03  0.26759670080E+03  0.15294330000E+03 0.  0.
<mgrwt>
<rscale>  0 0.24389382E+03</rscale>
<asrwt>0</asrwt>
<pdfrwt beam="1">  1        2 0.31739722E-01 0.24389382E+03</pdfrwt>
<pdfrwt beam="2">  1       -2 0.14318018E+00 0.24389382E+03</pdfrwt>
<totfact> 0.59522883E+01</totfact>
</mgrwt>
</event>
<event>
 4    1  0.1033139E-008  0.2951147E+03  0.7818608E-02  0.1087709E+00
          2   -1    0    0  501    0  0.00000000000E+00  0.00000000000E+00  0.13432538944E+04  0.13432538944E+04  0.25500000000E-02 0. -1.
         -2   -1    0    0    0  501 -0.00000000000E+00 -0.00000000000E+00 -0.21813981051E+03  0.21813981052E+03  0.25500000000E-02 0.  1.
    8880022    1    1    2    0    0 -0.20727059322E+03  0.14401368225E+03  0.12170272376E+04  0.12522970852E+04  0.15294330000E+03 0.  0.
    8880022    1    1    2    0    0  0.20727059322E+03 -0.14401368225E+03 -0.91913153711E+02  0.30909661973E+03  0.15294330000E+03 0.  1.
<mgrwt>
<rscale>  0 0.29511471E+03</rscale>
<asrwt>0</asrwt>
<pdfrwt beam="1">  1        2 0.20665444E+00 0.29511471E+03</pdfrwt>
<pdfrwt beam="2">  1       -2 0.33559971E-01 0.29511471E+03</pdfrwt>
<totfact> 0.13886980E+02</totfact>
</mgrwt>
</event>
<event>
 4    1  0.1033139E-008  0.1519171E+04  0.7818608E-02  0.8871803E-01
         -2   -1    0    0    0  501 -0.00000000000E+00  0.00000000000E+00  0.87253360273E+03  0.87253360273E+03  0.25500000000E-02 0.  1.
          2   -1    0    0  501    0  0.00000000000E+00 -0.00000000000E+00 -0.38877037007E+04  0.38877037007E+04  0.25500000000E-02 0. -1.
    8880022    1    1    2    0    0  0.13513479543E+04 -0.67701455766E+03 -0.28532277520E+04  0.32324588570E+04  0.15294330000E+03 0. -1.
    8880022    1    1    2    0    0 -0.13513479543E+04  0.67701455766E+03 -0.16194234599E+03  0.15277784464E+04  0.15294330000E+03 0.  0.
<mgrwt>
<rscale>  0 0.15191714E+04</rscale>
<asrwt>0</asrwt>
<pdfrwt beam="1">  1        2 0.59810825E+00 0.15191714E+04</pdfrwt>
<pdfrwt beam="2">  1       -2 0.13423594E+00 0.15191714E+04</pdfrwt>
<totfact> 0.16133524E-01</totfact>
</mgrwt>
</event>
<event>
 4    1  0.1033139E-008  0.1596309E+04  0.7818608E-02  0.8822818E-01
         -2   -1    0    0    0  501 -0.00000000000E+00  0.00000000000E+00  0.12147507509E+04  0.12147507509E+04  0.25500000000E-02 0.  1.
          2   -1    0    0  501    0  0.00000000000E+00 -0.00000000000E+00 -0.23409757208E+04  0.23409757208E+04  0.25500000000E-02 0. -1.
    8880022    1    1    2    0    0  0.15883122269E+04 -0.45568810354E+02  0.99918112008E+01  0.15963407330E+04  0.15294330000E+03 0.  0.
    8880022    1    1    2    0    0 -0.15883122269E+04  0.45568810354E+02 -0.11362167811E+04  0.19593857387E+04  0.15294330000E+03 0.  0.
<mgrwt>
<rscale>  0 0.15963095E+04</rscale>
<asrwt>0</asrwt>
<pdfrwt beam="1">  1        2 0.36015011E+00 0.15963095E+04</pdfrwt>
<pdfrwt beam="2">  1       -2 0.18688473E+00 0.15963095E+04</pdfrwt>
<totfact> 0.65089231E-01</totfact>
</mgrwt>
</event>
<event>
 4    1  0.1033139E-008  0.7136390E+03  0.7818608E-02  0.9694188E-01
         -2   -1    0    0    0  501 -0.00000000000E+00  0.00000000000E+00  0.47111056735E+03  0.47111056736E+03  0.25500000000E-02 0.  1.
          2   -1    0    0  501    0  0.00000000000E+00 -0.00000000000E+00 -0.14790148918E+04  0.14790148918E+04  0.25500000000E-02 0. -1.
    8880022    1    1    2    0    0  0.84164669606E+02 -0.69195756917E+03  0.18541541629E+01  0.71364140859E+03  0.15294330000E+03 0.  1.
    8880022    1    1    2    0    0 -0.84164669606E+02  0.69195756917E+03 -0.10097584786E+04  0.12364840505E+04  0.15294330000E+03 0.  0.
<mgrwt>
<rscale>  0 0.71363900E+03</rscale>
<asrwt>0</asrwt>
<pdfrwt beam="1">  1        2 0.22754075E+00 0.71363900E+03</pdfrwt>
<pdfrwt beam="2">  1       -2 0.72478549E-01 0.71363900E+03</pdfrwt>
<totfact> 0.23095562E+01</totfact>
</mgrwt>
</event>
<event>
 4    1  0.1033139E-008  0.7593845E+03  0.7818608E-02  0.9620741E-01
          2   -1    0    0  501    0  0.00000000000E+00  0.00000000000E+00  0.18999656997E+04  0.18999656997E+04  0.25500000000E-02 0. -1.
         -2   -1    0    0    0  501 -0.00000000000E+00 -0.00000000000E+00 -0.53538354115E+03  0.53538354116E+03  0.25500000000E-02 0.  1.
    8880022    1    1    2    0    0 -0.59507541393E+02  0.74143918687E+03 -0.11905708943E+03  0.76866082173E+03  0.15294330000E+03 0.  0.
    8880022    1    1    2    0    0  0.59507541393E+02 -0.74143918687E+03  0.14836392480E+04  0.16666884192E+04  0.15294330000E+03 0.  0.
<mgrwt>
<rscale>  0 0.75938453E+03</rscale>
<asrwt>0</asrwt>
<pdfrwt beam="1">  1        2 0.29230241E+00 0.75938453E+03</pdfrwt>
<pdfrwt beam="2">  1       -2 0.82366700E-01 0.75938453E+03</pdfrwt>
<totfact> 0.10138430E+01</totfact>
</mgrwt>
</event>
<event>
 4    1  0.1033139E-008  0.5347546E+03  0.7818608E-02  0.1005086E+00
          2   -1    0    0  501    0  0.00000000000E+00  0.00000000000E+00  0.35715548948E+03  0.35715548949E+03  0.25500000000E-02 0. -1.
         -2   -1    0    0    0  501 -0.00000000000E+00 -0.00000000000E+00 -0.18628979385E+04  0.18628979385E+04  0.25500000000E-02 0.  1.
    8880022    1    1    2    0    0  0.25037232683E+03 -0.44708452831E+03 -0.15910726997E+04  0.16785335464E+04  0.15294330000E+03 0.  0.
    8880022    1    1    2    0    0 -0.25037232683E+03  0.44708452831E+03  0.85330250699E+02  0.54151988162E+03  0.15294330000E+03 0. -1.
<mgrwt>
<rscale>  0 0.53475465E+03</rscale>
<asrwt>0</asrwt>
<pdfrwt beam="1">  1        2 0.54947000E-01 0.53475465E+03</pdfrwt>
<pdfrwt beam="2">  1       -2 0.28659968E+00 0.53475465E+03</pdfrwt>
<totfact> 0.37228516E+00</totfact>
</mgrwt>
</event>
<event>
 4    1  0.1033139E-008  0.2672871E+03  0.7818608E-02  0.1102842E+00
          2   -1    0    0  501    0  0.00000000000E+00  0.00000000000E+00  0.28217367277E+03  0.28217367278E+03  0.25500000000E-02 0. -1.
         -2   -1    0    0    0  501 -0.00000000000E+00 -0.00000000000E+00 -0.50099416507E+03  0.50099416508E+03  0.25500000000E-02 0.  1.
    8880022    1    1    2    0    0  0.21397315440E+03  0.47604909661E+02  0.16599132955E+03  0.31463552363E+03  0.15294330000E+03 0.  0.
    8880022    1    1    2    0    0 -0.21397315440E+03 -0.47604909661E+02 -0.38481182185E+03  0.46853231423E+03  0.15294330000E+03 0.  0.
<mgrwt>
<rscale>  0 0.26728710E+03</rscale>
<asrwt>0</asrwt>
<pdfrwt beam="1">  1        2 0.43411334E-01 0.26728710E+03</pdfrwt>
<pdfrwt beam="2">  1       -2 0.77076026E-01 0.26728710E+03</pdfrwt>
<totfact> 0.18212933E+02</totfact>
</mgrwt>
</event>
<event>
 4    1  0.1033139E-008  0.1541473E+04  0.7818608E-02  0.8857333E-01
         -2   -1    0    0    0  501 -0.00000000000E+00  0.00000000000E+00  0.69157470427E+03  0.69157470427E+03  0.25500000000E-02 0.  1.
          2   -1    0    0  501    0  0.00000000000E+00 -0.00000000000E+00 -0.37833360199E+04  0.37833360199E+04  0.25500000000E-02 0. -1.
    8880022    1    1    2    0    0  0.12391100315E+04 -0.90407681522E+03 -0.22239774309E+04  0.27059593168E+04  0.15294330000E+03 0.  0.
    8880022    1    1    2    0    0 -0.12391100315E+04  0.90407681522E+03 -0.86778388477E+03  0.17689514074E+04  0.15294330000E+03 0.  0.
<mgrwt>
<rscale>  0 0.15414734E+04</rscale>
<asrwt>0</asrwt>
<pdfrwt beam="1">  1        2 0.58205168E+00 0.15414734E+04</pdfrwt>
<pdfrwt beam="2">  1       -2 0.10639611E+00 0.15414734E+04</pdfrwt>
<totfact> 0.34563106E-01</totfact>
</mgrwt>
</event>
<event>
 4    1  0.1033139E-008  0.8546514E+03  0.7818608E-02  0.9484115E-01
         -2   -1    0    0    0  501 -0.00000000000E+00  0.00000000000E+00  0.67893890928E+03  0.67893890929E+03  0.25500000000E-02 0.  1.
          2   -1    0    0  501    0  0.00000000000E+00 -0.00000000000E+00 -0.17583498653E+04  0.17583498653E+04  0.25500000000E-02 0. -1.
    8880022    1    1    2    0    0  0.23475241681E+03  0.80742104086E+03 -0.12989454599E+04  0.15548917632E+04  0.15294330000E+03 0.  0.
    8880022    1    1    2    0    0 -0.23475241681E+03 -0.80742104086E+03  0.21953450383E+03  0.88239701144E+03  0.15294330000E+03 0.  0.
<mgrwt>
<rscale>  0 0.85465144E+03</rscale>
<asrwt>0</asrwt>
<pdfrwt beam="1">  1        2 0.27051536E+00 0.85465144E+03</pdfrwt>
<pdfrwt beam="2">  1       -2 0.10445214E+00 0.85465144E+03</pdfrwt>
<totfact> 0.68765427E+00</totfact>
</mgrwt>
</event>
<event>
 4    1  0.1033139E-008  0.3917567E+03  0.7818608E-02  0.1046672E+00
          2   -1    0    0  501    0  0.00000000000E+00  0.00000000000E+00  0.11267576066E+04  0.11267576066E+04  0.25500000000E-02 0. -1.
         -2   -1    0    0    0  501 -0.00000000000E+00 -0.00000000000E+00 -0.62321447270E+03  0.62321447270E+03  0.25500000000E-02 0.  1.
    8880022    1    1    2    0    0 -0.36059439258E+03 -0.73012273096E+01  0.10252527881E+04  0.10975502523E+04  0.15294330000E+03 0.  0.
    8880022    1    1    2    0    0  0.36059439258E+03  0.73012273096E+01 -0.52170965425E+03  0.65242182691E+03  0.15294330000E+03 0.  1.
<mgrwt>
<rscale>  0 0.39175666E+03</rscale>
<asrwt>0</asrwt>
<pdfrwt beam="1">  1        2 0.17334732E+00 0.39175666E+03</pdfrwt>
<pdfrwt beam="2">  1       -2 0.95879151E-01 0.39175666E+03</pdfrwt>
<totfact> 0.20555785E+01</totfact>
</mgrwt>
</event>
<event>
 4    1  0.1033139E-008  0.7835517E+03  0.7818608E-02  0.9584135E-01
          2   -1    0    0  501    0  0.00000000000E+00  0.00000000000E+00  0.98842424453E+03  0.98842424453E+03  0.25500000000E-02 0. -1.
         -2   -1    0    0    0  501 -0.00000000000E+00 -0.00000000000E+00 -0.11162337317E+04  0.11162337317E+04  0.25500000000E-02 0.  1.
    8880022    1    1    2    0    0 -0.75851087678E+03 -0.12338122223E+03  0.63693081101E+03  0.10097693733E+04  0.15294330000E+03 0.  0.
    8880022    1    1    2    0    0  0.75851087678E+03  0.12338122223E+03 -0.76474029816E+03  0.10948886029E+04  0.15294330000E+03 0.  0.
<mgrwt>
<rscale>  0 0.78355174E+03</rscale>
<asrwt>0</asrwt>
<pdfrwt beam="1">  1        2 0.15206527E+00 0.78355174E+03</pdfrwt>
<pdfrwt beam="2">  1       -2 0.17172827E+00 0.78355174E+03</pdfrwt>
<totfact> 0.53932869E+00</totfact>
</mgrwt>
</event>
<event>
 4    1  0.1033139E-008  0.6125348E+03  0.7818608E-02  0.9879736E-01
         -2   -1    0    0    0  501 -0.00000000000E+00  0.00000000000E+00  0.79337409547E+03  0.79337409548E+03  0.25500000000E-02 0.  1.
          2   -1    0    0  501    0  0.00000000000E+00 -0.00000000000E+00 -0.20681149704E+04  0.20681149704E+04  0.25500000000E-02 0. -1.
    8880022    1    1    2    0    0  0.25144840855E+03 -0.53719730625E+03 -0.18939276153E+04  0.19905176998E+04  0.15294330000E+03 0.  0.
    8880022    1    1    2    0    0 -0.25144840855E+03  0.53719730625E+03  0.61918674042E+03  0.87097136608E+03  0.15294330000E+03 0.  0.
<mgrwt>
<rscale>  0 0.61253482E+03</rscale>
<asrwt>0</asrwt>
<pdfrwt beam="1">  1        2 0.31817153E+00 0.61253482E+03</pdfrwt>
<pdfrwt beam="2">  1       -2 0.12205755E+00 0.61253482E+03</pdfrwt>
<totfact> 0.33234164E+00</totfact>
</mgrwt>
</event>
<event>
 4    1  0.1033139E-008  0.1796802E+04  0.7818608E-02  0.8708002E-01
         -2   -1    0    0    0  501 -0.00000000000E+00  0.00000000000E+00  0.86540626946E+03  0.86540626946E+03  0.25500000000E-02 0.  1.
          2   -1    0    0  501    0  0.00000000000E+00 -0.00000000000E+00 -0.41390194493E+04  0.41390194493E+04  0.25500000000E-02 0. -1.
    8880022    1    1    2    0    0 -0.65667519810E+03  0.16654977647E+04 -0.85080890900E+03  0.19880574873E+04  0.15294330000E+03 0.  0.
    8880022    1    1    2    0    0  0.65667519810E+03 -0.16654977647E+04 -0.24228042708E+04  0.30163682314E+04  0.15294330000E+03 0.  0.
<mgrwt>
<rscale>  0 0.17968018E+04</rscale>
<asrwt>0</asrwt>
<pdfrwt beam="1">  1        2 0.63677221E+00 0.17968018E+04</pdfrwt>
<pdfrwt beam="2">  1       -2 0.13313943E+00 0.17968018E+04</pdfrwt>
<totfact> 0.99763655E-02</totfact>
</mgrwt>
</event>
<event>
 4    1  0.1033139E-008  0.5966740E+03  0.7818608E-02  0.9912330E-01
         -2   -1    0    0    0  501 -0.00000000000E+00  0.00000000000E+00  0.99173665876E+03  0.99173665876E+03  0.25500000000E-02 0.  1.
          2   -1    0    0  501    0  0.00000000000E+00 -0.00000000000E+00 -0.74300771860E+03  0.74300771860E+03  0.25500000000E-02 0. -1.
    8880022    1    1    2    0    0 -0.50794986150E+03 -0.27315782225E+03 -0.49920742496E+03  0.77796398619E+03  0.15294330000E+03 0.  0.
    8880022    1    1    2    0    0  0.50794986150E+03  0.27315782225E+03  0.74793636512E+03  0.95678039118E+03  0.15294330000E+03 0.  0.
<mgrwt>
<rscale>  0 0.59667404E+03</rscale>
<asrwt>0</asrwt>
<pdfrwt beam="1">  1        2 0.11430888E+00 0.59667404E+03</pdfrwt>
<pdfrwt beam="2">  1       -2 0.15257487E+00 0.59667404E+03</pdfrwt>
<totfact> 0.11250184E+01</totfact>
</mgrwt>
</event>
<event>
 4    1  0.1033139E-008  0.7843919E+03  0.7818608E-02  0.9582888E-01
          2   -1    0    0  501    0  0.00000000000E+00  0.00000000000E+00  0.25741144310E+04  0.25741144310E+04  0.25500000000E-02 0. -1.
         -2   -1    0    0    0  501 -0.00000000000E+00 -0.00000000000E+00 -0.53937243489E+03  0.53937243489E+03  0.25500000000E-02 0.  1.
    8880022    1    1    2    0    0  0.75281836513E+03 -0.15856714914E+03 -0.14430924428E+03  0.79755616897E+03  0.15294330000E+03 0.  0.
    8880022    1    1    2    0    0 -0.75281836513E+03  0.15856714914E+03  0.21790512404E+04  0.23159306969E+04  0.15294330000E+03 0.  0.
<mgrwt>
<rscale>  0 0.78439192E+03</rscale>
<asrwt>0</asrwt>
<pdfrwt beam="1">  1        2 0.39601760E+00 0.78439192E+03</pdfrwt>
<pdfrwt beam="2">  1       -2 0.82980375E-01 0.78439192E+03</pdfrwt>
<totfact> 0.41944459E+00</totfact>
</mgrwt>
</event>
<event>
 4    1  0.1033139E-008  0.4564386E+03  0.7818608E-02  0.1025819E+00
         -2   -1    0    0    0  501 -0.00000000000E+00  0.00000000000E+00  0.19136355185E+04  0.19136355185E+04  0.25500000000E-02 0.  1.
          2   -1    0    0  501    0  0.00000000000E+00 -0.00000000000E+00 -0.61490302433E+03  0.61490302434E+03  0.25500000000E-02 0. -1.
    8880022    1    1    2    0    0  0.64850721494E+02 -0.42513401527E+03 -0.49753490570E+03  0.67518677595E+03  0.15294330000E+03 0.  0.
    8880022    1    1    2    0    0 -0.64850721494E+02  0.42513401527E+03  0.17962673999E+04  0.18533517669E+04  0.15294330000E+03 0.  1.
<mgrwt>
<rscale>  0 0.45643860E+03</rscale>
<asrwt>0</asrwt>
<pdfrwt beam="1">  1        2 0.94600466E-01 0.45643860E+03</pdfrwt>
<pdfrwt beam="2">  1       -2 0.29440546E+00 0.45643860E+03</pdfrwt>
<totfact> 0.18332424E+00</totfact>
</mgrwt>
</event>
<event>
 4    1  0.1033139E-008  0.9153768E+03  0.7818608E-02  0.9406561E-01
         -2   -1    0    0    0  501 -0.00000000000E+00  0.00000000000E+00  0.16648800097E+04  0.16648800097E+04  0.25500000000E-02 0.  1.
          2   -1    0    0  501    0  0.00000000000E+00 -0.00000000000E+00 -0.62990083370E+03  0.62990083370E+03  0.25500000000E-02 0. -1.
    8880022    1    1    2    0    0 -0.88638881379E+03  0.16981729541E+03  0.30748411234E+01  0.91538196984E+03  0.15294330000E+03 0.  0.
    8880022    1    1    2    0    0  0.88638881379E+03 -0.16981729541E+03  0.10319043349E+04  0.13793988736E+04  0.15294330000E+03 0.  0.
<mgrwt>
<rscale>  0 0.91537681E+03</rscale>
<asrwt>0</asrwt>
<pdfrwt beam="1">  1        2 0.96907824E-01 0.91537681E+03</pdfrwt>
<pdfrwt beam="2">  1       -2 0.25613538E+00 0.91537681E+03</pdfrwt>
<totfact> 0.27792362E+00</totfact>
</mgrwt>
</event>
<event>
 4    1  0.1033139E-008  0.4033533E+03  0.7818608E-02  0.1042625E+00
          2   -1    0    0  501    0  0.00000000000E+00  0.00000000000E+00  0.64228964514E+03  0.64228964514E+03  0.25500000000E-02 0. -1.
         -2   -1    0    0    0  501 -0.00000000000E+00 -0.00000000000E+00 -0.32394819446E+03  0.32394819447E+03  0.25500000000E-02 0.  1.
    8880022    1    1    2    0    0  0.12552265199E+03 -0.35149157493E+03  0.38478026990E+03  0.55744934526E+03  0.15294330000E+03 0.  0.
    8880022    1    1    2    0    0 -0.12552265199E+03  0.35149157493E+03 -0.66438819225E+02  0.40878849436E+03  0.15294330000E+03 0.  0.
<mgrwt>
<rscale>  0 0.40335334E+03</rscale>
<asrwt>0</asrwt>
<pdfrwt beam="1">  1        2 0.98813790E-01 0.40335334E+03</pdfrwt>
<pdfrwt beam="2">  1       -2 0.49838185E-01 0.40335334E+03</pdfrwt>
<totfact> 0.17943240E+02</totfact>
</mgrwt>
</event>
<event>
 4    1  0.1033139E-008  0.4860368E+03  0.7818608E-02  0.1017489E+00
          2   -1    0    0  501    0  0.00000000000E+00  0.00000000000E+00  0.29379330531E+03  0.29379330533E+03  0.25500000000E-02 0. -1.
         -2   -1    0    0    0  501 -0.00000000000E+00 -0.00000000000E+00 -0.11255136539E+04  0.11255136539E+04  0.25500000000E-02 0.  1.
    8880022    1    1    2    0    0  0.38742633604E+03  0.25048138778E+03 -0.79510551170E+03  0.93189297628E+03  0.15294330000E+03 0.  0.
    8880022    1    1    2    0    0 -0.38742633604E+03 -0.25048138778E+03 -0.36614836887E+02  0.48741398295E+03  0.15294330000E+03 0.  0.
<mgrwt>
<rscale>  0 0.48603677E+03</rscale>
<asrwt>0</asrwt>
<pdfrwt beam="1">  1        2 0.45198970E-01 0.48603677E+03</pdfrwt>
<pdfrwt beam="2">  1       -2 0.17315595E+00 0.48603677E+03</pdfrwt>
<totfact> 0.23649884E+01</totfact>
</mgrwt>
</event>
<event>
 4    1  0.1033139E-008  0.1128819E+04  0.7818608E-02  0.9177549E-01
         -2   -1    0    0    0  501 -0.00000000000E+00  0.00000000000E+00  0.76215781178E+03  0.76215781179E+03  0.25500000000E-02 0.  1.
          2   -1    0    0  501    0  0.00000000000E+00 -0.00000000000E+00 -0.22420944603E+04  0.22420944603E+04  0.25500000000E-02 0. -1.
    8880022    1    1    2    0    0 -0.44359051123E+02  0.11175302445E+04  0.17562222919E+02  0.11289560033E+04  0.15294330000E+03 0.  0.
    8880022    1    1    2    0    0  0.44359051123E+02 -0.11175302445E+04 -0.14974988714E+04  0.18752962688E+04  0.15294330000E+03 0.  0.
<mgrwt>
<rscale>  0 0.11288194E+04</rscale>
<asrwt>0</asrwt>
<pdfrwt beam="1">  1        2 0.34493761E+00 0.11288194E+04</pdfrwt>
<pdfrwt beam="2">  1       -2 0.11725505E+00 0.11288194E+04</pdfrwt>
<totfact> 0.27119306E+00</totfact>
</mgrwt>
</event>
<event>
 4    1  0.1033139E-008  0.1456189E+04  0.7818608E-02  0.8914121E-01
          2   -1    0    0  501    0  0.00000000000E+00  0.00000000000E+00  0.18502607516E+04  0.18502607516E+04  0.25500000000E-02 0. -1.
         -2   -1    0    0    0  501 -0.00000000000E+00 -0.00000000000E+00 -0.15766778648E+04  0.15766778648E+04  0.25500000000E-02 0.  1.
    8880022    1    1    2    0    0  0.12908586986E+04  0.65633635795E+03  0.10322749011E+04  0.17849584642E+04  0.15294330000E+03 0.  0.
    8880022    1    1    2    0    0 -0.12908586986E+04 -0.65633635795E+03 -0.75869201426E+03  0.16419801522E+04  0.15294330000E+03 0.  0.
<mgrwt>
<rscale>  0 0.14561886E+04</rscale>
<asrwt>0</asrwt>
<pdfrwt beam="1">  1        2 0.28465550E+00 0.14561886E+04</pdfrwt>
<pdfrwt beam="2">  1       -2 0.24256583E+00 0.14561886E+04</pdfrwt>
<totfact> 0.54470269E-01</totfact>
</mgrwt>
</event>
<event>
 4    1  0.1033139E-008  0.6958357E+03  0.7818608E-02  0.9724380E-01
          2   -1    0    0  501    0  0.00000000000E+00  0.00000000000E+00  0.12489959902E+04  0.12489959902E+04  0.25500000000E-02 0. -1.
         -2   -1    0    0    0  501 -0.00000000000E+00 -0.00000000000E+00 -0.78300718826E+03  0.78300718826E+03  0.25500000000E-02 0.  1.
    8880022    1    1    2    0    0 -0.67223443321E+03  0.94321262455E+02  0.95493286278E+03  0.11815600108E+04  0.15294330000E+03 0.  0.
    8880022    1    1    2    0    0  0.67223443321E+03 -0.94321262455E+02 -0.48894406084E+03  0.85044316764E+03  0.15294330000E+03 0.  0.
<mgrwt>
<rscale>  0 0.69583568E+03</rscale>
<asrwt>0</asrwt>
<pdfrwt beam="1">  1        2 0.19215323E+00 0.69583568E+03</pdfrwt>
<pdfrwt beam="2">  1       -2 0.12046264E+00 0.69583568E+03</pdfrwt>
<totfact> 0.95762609E+00</totfact>
</mgrwt>
</event>
<event>
 4    1  0.1033139E-008  0.7339067E+03  0.7818608E-02  0.9660942E-01
         -2   -1    0    0    0  501 -0.00000000000E+00  0.00000000000E+00  0.14205002283E+04  0.14205002283E+04  0.25500000000E-02 0.  1.
          2   -1    0    0  501    0  0.00000000000E+00 -0.00000000000E+00 -0.91917668362E+03  0.91917668363E+03  0.25500000000E-02 0. -1.
    8880022    1    1    2    0    0 -0.12621545510E+03 -0.70660953134E+03 -0.64598979200E+03  0.97771255247E+03  0.15294330000E+03 0.  0.
    8880022    1    1    2    0    0  0.12621545510E+03  0.70660953134E+03  0.11473133366E+04  0.13619643594E+04  0.15294330000E+03 0.  1.
<mgrwt>
<rscale>  0 0.73390669E+03</rscale>
<asrwt>0</asrwt>
<pdfrwt beam="1">  1        2 0.14141180E+00 0.73390669E+03</pdfrwt>
<pdfrwt beam="2">  1       -2 0.21853850E+00 0.73390669E+03</pdfrwt>
<totfact> 0.29568753E+00</totfact>
</mgrwt>
</event>
<event>
 4    1  0.1033139E-008  0.6642559E+03  0.7818608E-02  0.9780391E-01
          2   -1    0    0  501    0  0.00000000000E+00  0.00000000000E+00  0.14597276624E+04  0.14597276624E+04  0.25500000000E-02 0. -1.
         -2   -1    0    0    0  501 -0.00000000000E+00 -0.00000000000E+00 -0.53087338395E+03  0.53087338396E+03  0.25500000000E-02 0.  1.
    8880022    1    1    2    0    0 -0.34435973137E+03 -0.54704718302E+03  0.11175538862E+04  0.13000625318E+04  0.15294330000E+03 0.  0.
    8880022    1    1    2    0    0  0.34435973137E+03  0.54704718302E+03 -0.18869960780E+03  0.69053851452E+03  0.15294330000E+03 0.  1.
<mgrwt>
<rscale>  0 0.66425590E+03</rscale>
<asrwt>0</asrwt>
<pdfrwt beam="1">  1        2 0.22457348E+00 0.66425590E+03</pdfrwt>
<pdfrwt beam="2">  1       -2 0.81672829E-01 0.66425590E+03</pdfrwt>
<totfact> 0.18265921E+01</totfact>
</mgrwt>
</event>
<event>
 4    1  0.1476716E-008  0.1835303E+04  0.7818608E-02  0.8687748E-01
         -2   -1    0    0    0  501 -0.00000000000E+00  0.00000000000E+00  0.28189405127E+04  0.28189405127E+04  0.25500000000E-02 0.  1.
          2   -1    0    0  501    0  0.00000000000E+00 -0.00000000000E+00 -0.21124957210E+04  0.21124957210E+04  0.25500000000E-02 0. -1.
    8880022    1    1    2    0    0  0.31389480246E+03  0.18017810006E+04 -0.12718492408E+04  0.22329211507E+04  0.15294330000E+03 0.  0.
    8880022    1    1    2    0    0 -0.31389480246E+03 -0.18017810006E+04  0.19782940325E+04  0.26985150830E+04  0.15294330000E+03 0.  0.
<mgrwt>
<rscale>  0 0.18353028E+04</rscale>
<asrwt>0</asrwt>
<pdfrwt beam="1">  1        2 0.32499934E+00 0.18353028E+04</pdfrwt>
<pdfrwt beam="2">  1       -2 0.43368315E+00 0.18353028E+04</pdfrwt>
<totfact> 0.23133665E-02</totfact>
</mgrwt>
</event>
<event>
 4    1  0.1033139E-008  0.1121221E+04  0.7818608E-02  0.9184752E-01
          2   -1    0    0  501    0  0.00000000000E+00  0.00000000000E+00  0.17038156116E+04  0.17038156116E+04  0.25500000000E-02 0. -1.
         -2   -1    0    0    0  501 -0.00000000000E+00 -0.00000000000E+00 -0.11398009239E+04  0.11398009239E+04  0.25500000000E-02 0.  1.
    8880022    1    1    2    0    0  0.55726251217E+03  0.96083502247E+03  0.11263532846E+04  0.15892793407E+04  0.15294330000E+03 0.  0.
    8880022    1    1    2    0    0 -0.55726251217E+03 -0.96083502247E+03 -0.56233859685E+03  0.12543371949E+04  0.15294330000E+03 0.  0.
<mgrwt>
<rscale>  0 0.11212213E+04</rscale>
<asrwt>0</asrwt>
<pdfrwt beam="1">  1        2 0.26212548E+00 0.11212213E+04</pdfrwt>
<pdfrwt beam="2">  1       -2 0.17535399E+00 0.11212213E+04</pdfrwt>
<totfact> 0.18672406E+00</totfact>
</mgrwt>
</event>
<event>
 4    1  0.1033139E-008  0.7815116E+03  0.7818608E-02  0.9587171E-01
          2   -1    0    0  501    0  0.00000000000E+00  0.00000000000E+00  0.35667367162E+04  0.35667367162E+04  0.25500000000E-02 0. -1.
         -2   -1    0    0    0  501 -0.00000000000E+00 -0.00000000000E+00 -0.72475045825E+03  0.72475045826E+03  0.25500000000E-02 0.  1.
    8880022    1    1    2    0    0  0.74151883592E+03 -0.19369700558E+03  0.32961919811E+04  0.33875716883E+04  0.15294330000E+03 0.  0.
    8880022    1    1    2    0    0 -0.74151883592E+03  0.19369700558E+03 -0.45420572322E+03  0.90391548610E+03  0.15294330000E+03 0.  0.
<mgrwt>
<rscale>  0 0.78151159E+03</rscale>
<asrwt>0</asrwt>
<pdfrwt beam="1">  1        2 0.54872873E+00 0.78151159E+03</pdfrwt>
<pdfrwt beam="2">  1       -2 0.11150007E+00 0.78151159E+03</pdfrwt>
<totfact> 0.50251516E-01</totfact>
</mgrwt>
</event>
<event>
 4    1  0.1033139E-008  0.4944835E+03  0.7818608E-02  0.1015229E+00
         -2   -1    0    0    0  501 -0.00000000000E+00  0.00000000000E+00  0.48057771467E+03  0.48057771468E+03  0.25500000000E-02 0.  1.
          2   -1    0    0  501    0  0.00000000000E+00 -0.00000000000E+00 -0.14742469716E+04  0.14742469716E+04  0.25500000000E-02 0. -1.
    8880022    1    1    2    0    0 -0.23560677278E+03  0.40695421500E+03 -0.12878023906E+04  0.13794741516E+04  0.15294330000E+03 0.  0.
    8880022    1    1    2    0    0  0.23560677278E+03 -0.40695421500E+03  0.29413313368E+03  0.57535053474E+03  0.15294330000E+03 0.  0.
<mgrwt>
<rscale>  0 0.49448351E+03</rscale>
<asrwt>0</asrwt>
<pdfrwt beam="1">  1        2 0.22680722E+00 0.49448351E+03</pdfrwt>
<pdfrwt beam="2">  1       -2 0.73935034E-01 0.49448351E+03</pdfrwt>
<totfact> 0.22989116E+01</totfact>
</mgrwt>
</event>
<event>
 4    1  0.1033139E-008  0.2114823E+04  0.7818608E-02  0.8554742E-01
         -2   -1    0    0    0  501 -0.00000000000E+00  0.00000000000E+00  0.15425865892E+04  0.15425865892E+04  0.25500000000E-02 0.  1.
          2   -1    0    0  501    0  0.00000000000E+00 -0.00000000000E+00 -0.30567640456E+04  0.30567640457E+04  0.25500000000E-02 0. -1.
    8880022    1    1    2    0    0 -0.89986439299E+03 -0.19077022805E+04 -0.23520020597E+03  0.21278615337E+04  0.15294330000E+03 0.  0.
    8880022    1    1    2    0    0  0.89986439299E+03  0.19077022805E+04 -0.12789772505E+04  0.24714891011E+04  0.15294330000E+03 0.  0.
<mgrwt>
<rscale>  0 0.21148228E+04</rscale>
<asrwt>0</asrwt>
<pdfrwt beam="1">  1        2 0.47027139E+00 0.21148228E+04</pdfrwt>
<pdfrwt beam="2">  1       -2 0.23732102E+00 0.21148228E+04</pdfrwt>
<totfact> 0.10854325E-01</totfact>
</mgrwt>
</event>
<event>
 4    1  0.1033139E-008  0.9724632E+03  0.7818608E-02  0.9339273E-01
          2   -1    0    0  501    0  0.00000000000E+00  0.00000000000E+00  0.43268945832E+04  0.43268945832E+04  0.25500000000E-02 0. -1.
         -2   -1    0    0    0  501 -0.00000000000E+00 -0.00000000000E+00 -0.32311992801E+03  0.32311992802E+03  0.25500000000E-02 0.  1.
    8880022    1    1    2    0    0  0.81412546743E+03  0.50940438219E+03  0.67929586513E+03  0.11862241048E+04  0.15294330000E+03 0.  0.
    8880022    1    1    2    0    0 -0.81412546743E+03 -0.50940438219E+03  0.33244787901E+04  0.34637904065E+04  0.15294330000E+03 0.  0.
<mgrwt>
<rscale>  0 0.97246324E+03</rscale>
<asrwt>0</asrwt>
<pdfrwt beam="1">  1        2 0.66567605E+00 0.97246324E+03</pdfrwt>
<pdfrwt beam="2">  1       -2 0.49710761E-01 0.97246324E+03</pdfrwt>
<totfact> 0.73770497E-01</totfact>
</mgrwt>
</event>
<event>
 4    1  0.1033139E-008  0.8095573E+03  0.7818608E-02  0.9546285E-01
          2   -1    0    0  501    0  0.00000000000E+00  0.00000000000E+00  0.31589454808E+04  0.31589454808E+04  0.25500000000E-02 0. -1.
         -2   -1    0    0    0  501 -0.00000000000E+00 -0.00000000000E+00 -0.27934033467E+03  0.27934033468E+03  0.25500000000E-02 0.  1.
    8880022    1    1    2    0    0 -0.20581335184E+03  0.76787514316E+03  0.56778901837E+03  0.98882121421E+03  0.15294330000E+03 0.  0.
    8880022    1    1    2    0    0  0.20581335184E+03 -0.76787514316E+03  0.23118161277E+04  0.24494646012E+04  0.15294330000E+03 0.  0.
<mgrwt>
<rscale>  0 0.80955730E+03</rscale>
<asrwt>0</asrwt>
<pdfrwt beam="1">  1        2 0.48599161E+00 0.80955730E+03</pdfrwt>
<pdfrwt beam="2">  1       -2 0.42975436E-01 0.80955730E+03</pdfrwt>
<totfact> 0.74910771E+00</totfact>
</mgrwt>
</event>
<event>
 4    1  0.1033139E-008  0.5520400E+03  0.7818608E-02  0.1001023E+00
         -2   -1    0    0    0  501 -0.00000000000E+00  0.00000000000E+00  0.84325399301E+03  0.84325399302E+03  0.25500000000E-02 0.  1.
          2   -1    0    0  501    0  0.00000000000E+00 -0.00000000000E+00 -0.79128241427E+03  0.79128241427E+03  0.25500000000E-02 0. -1.
    8880022    1    1    2    0    0 -0.24545035138E+03 -0.47022406969E+03 -0.57640171614E+03  0.79811474243E+03  0.15294330000E+03 0.  0.
    8880022    1    1    2    0    0  0.24545035138E+03  0.47022406969E+03  0.62837329489E+03  0.83642166486E+03  0.15294330000E+03 0.  0.
<mgrwt>
<rscale>  0 0.55204004E+03</rscale>
<asrwt>0</asrwt>
<pdfrwt beam="1">  1        2 0.12173576E+00 0.55204004E+03</pdfrwt>
<pdfrwt beam="2">  1       -2 0.12973138E+00 0.55204004E+03</pdfrwt>
<totfact> 0.15857921E+01</totfact>
</mgrwt>
</event>
<event>
 4    1  0.1033139E-008  0.5237681E+03  0.7818608E-02  0.1007755E+00
          2   -1    0    0  501    0  0.00000000000E+00  0.00000000000E+00  0.28184511680E+04  0.28184511680E+04  0.25500000000E-02 0. -1.
         -2   -1    0    0    0  501 -0.00000000000E+00 -0.00000000000E+00 -0.21085141787E+03  0.21085141789E+03  0.25500000000E-02 0.  1.
    8880022    1    1    2    0    0  0.27959959788E+03 -0.41565058175E+03  0.19244084921E+03  0.55800221747E+03  0.15294330000E+03 0.  0.
    8880022    1    1    2    0    0 -0.27959959788E+03  0.41565058175E+03  0.24151589010E+04  0.24713003685E+04  0.15294330000E+03 0.  0.
<mgrwt>
<rscale>  0 0.52376807E+03</rscale>
<asrwt>0</asrwt>
<pdfrwt beam="1">  1        2 0.43360784E+00 0.52376807E+03</pdfrwt>
<pdfrwt beam="2">  1       -2 0.32438682E-01 0.52376807E+03</pdfrwt>
<totfact> 0.21953382E+01</totfact>
</mgrwt>
</event>
<event>
 4    1  0.1033139E-008  0.3706886E+03  0.7818608E-02  0.1054430E+00
         -2   -1    0    0    0  501 -0.00000000000E+00  0.00000000000E+00  0.13954182816E+03  0.13954182818E+03  0.25500000000E-02 0.  1.
          2   -1    0    0  501    0  0.00000000000E+00 -0.00000000000E+00 -0.20750537775E+04  0.20750537775E+04  0.25500000000E-02 0. -1.
    8880022    1    1    2    0    0 -0.19432914226E+03  0.27614225211E+03 -0.17704110324E+04  0.18088021549E+04  0.15294330000E+03 0.  0.
    8880022    1    1    2    0    0  0.19432914226E+03 -0.27614225211E+03 -0.16510091698E+03  0.40579345083E+03  0.15294330000E+03 0.  1.
<mgrwt>
<rscale>  0 0.37068856E+03</rscale>
<asrwt>0</asrwt>
<pdfrwt beam="1">  1        2 0.31923902E+00 0.37068856E+03</pdfrwt>
<pdfrwt beam="2">  1       -2 0.21467975E-01 0.37068856E+03</pdfrwt>
<totfact> 0.12398081E+02</totfact>
</mgrwt>
</event>
<event>
 4    1  0.1033139E-008  0.6351289E+03  0.7818608E-02  0.9835091E-01
          2   -1    0    0  501    0  0.00000000000E+00  0.00000000000E+00  0.10752264701E+04  0.10752264701E+04  0.25500000000E-02 0. -1.
         -2   -1    0    0    0  501 -0.00000000000E+00 -0.00000000000E+00 -0.21004051461E+04  0.21004051461E+04  0.25500000000E-02 0.  1.
    8880022    1    1    2    0    0 -0.18840928680E+03  0.58694039452E+03  0.92645176392E+03  0.11232549176E+04  0.15294330000E+03 0.  0.
    8880022    1    1    2    0    0  0.18840928680E+03 -0.58694039452E+03 -0.19516304399E+04  0.20523766986E+04  0.15294330000E+03 0.  0.
<mgrwt>
<rscale>  0 0.63512892E+03</rscale>
<asrwt>0</asrwt>
<pdfrwt beam="1">  1        2 0.16541946E+00 0.63512892E+03</pdfrwt>
<pdfrwt beam="2">  1       -2 0.32313925E+00 0.63512892E+03</pdfrwt>
<totfact> 0.55891415E-01</totfact>
</mgrwt>
</event>
<event>
 4    1  0.1033139E-008  0.5183817E+03  0.7818608E-02  0.1009089E+00
         -2   -1    0    0    0  501 -0.00000000000E+00  0.00000000000E+00  0.17088974789E+04  0.17088974789E+04  0.25500000000E-02 0.  1.
          2   -1    0    0  501    0  0.00000000000E+00 -0.00000000000E+00 -0.59275167673E+03  0.59275167674E+03  0.25500000000E-02 0. -1.
    8880022    1    1    2    0    0  0.30684519689E+03  0.38881093807E+03  0.15445090468E+04  0.16291800911E+04  0.15294330000E+03 0.  0.
    8880022    1    1    2    0    0 -0.30684519689E+03 -0.38881093807E+03 -0.42836324465E+03  0.67246906457E+03  0.15294330000E+03 0.  0.
<mgrwt>
<rscale>  0 0.51838169E+03</rscale>
<asrwt>0</asrwt>
<pdfrwt beam="1">  1        2 0.91192567E-01 0.51838169E+03</pdfrwt>
<pdfrwt beam="2">  1       -2 0.26290730E+00 0.51838169E+03</pdfrwt>
<totfact> 0.29013174E+00</totfact>
</mgrwt>
</event>
<event>
 4    1  0.1033139E-008  0.2472154E+03  0.7818608E-02  0.1115077E+00
          2   -1    0    0  501    0  0.00000000000E+00  0.00000000000E+00  0.66697188271E+03  0.66697188271E+03  0.25500000000E-02 0. -1.
         -2   -1    0    0    0  501 -0.00000000000E+00 -0.00000000000E+00 -0.44085896141E+03  0.44085896141E+03  0.25500000000E-02 0.  1.
    8880022    1    1    2    0    0 -0.11382255161E+03  0.15737923176E+03 -0.37994475081E+03  0.45329180726E+03  0.15294330000E+03 0.  1.
    8880022    1    1    2    0    0  0.11382255161E+03 -0.15737923176E+03  0.60605767211E+03  0.65453903687E+03  0.15294330000E+03 0.  0.
<mgrwt>
<rscale>  0 0.24721539E+03</rscale>
<asrwt>0</asrwt>
<pdfrwt beam="1">  1        2 0.10261106E+00 0.24721539E+03</pdfrwt>
<pdfrwt beam="2">  1       -2 0.67824456E-01 0.24721539E+03</pdfrwt>
<totfact> 0.92306530E+01</totfact>
</mgrwt>
</event>
<event>
 4    1  0.1033139E-008  0.2469600E+03  0.7818608E-02  0.1115241E+00
         -2   -1    0    0    0  501 -0.00000000000E+00  0.00000000000E+00  0.11778469361E+04  0.11778469361E+04  0.25500000000E-02 0.  1.
          2   -1    0    0  501    0  0.00000000000E+00 -0.00000000000E+00 -0.77162654234E+03  0.77162654235E+03  0.25500000000E-02 0. -1.
    8880022    1    1    2    0    0  0.71669769316E+02  0.18016942799E+03 -0.73835362701E+03  0.77855976659E+03  0.15294330000E+03 0.  0.
    8880022    1    1    2    0    0 -0.71669769316E+02 -0.18016942799E+03  0.11445740207E+04  0.11709137118E+04  0.15294330000E+03 0.  0.
<mgrwt>
<rscale>  0 0.24695998E+03</rscale>
<asrwt>0</asrwt>
<pdfrwt beam="1">  1        2 0.11871178E+00 0.24695998E+03</pdfrwt>
<pdfrwt beam="2">  1       -2 0.18120722E+00 0.24695998E+03</pdfrwt>
<totfact> 0.72697517E+00</totfact>
</mgrwt>
</event>
<event>
 4    1  0.1033139E-008  0.9588162E+03  0.7818608E-02  0.9354905E-01
         -2   -1    0    0    0  501 -0.00000000000E+00  0.00000000000E+00  0.58438382987E+03  0.58438382987E+03  0.25500000000E-02 0.  1.
          2   -1    0    0  501    0  0.00000000000E+00 -0.00000000000E+00 -0.24667842287E+04  0.24667842287E+04  0.25500000000E-02 0. -1.
    8880022    1    1    2    0    0 -0.32156078195E+02  0.94599307953E+03 -0.18594234973E+04  0.20920765557E+04  0.15294330000E+03 0.  0.
    8880022    1    1    2    0    0  0.32156078195E+02 -0.94599307953E+03 -0.22976901616E+02  0.95909150288E+03  0.15294330000E+03 0.  0.
<mgrwt>
<rscale>  0 0.95881624E+03</rscale>
<asrwt>0</asrwt>
<pdfrwt beam="1">  1        2 0.37950526E+00 0.95881624E+03</pdfrwt>
<pdfrwt beam="2">  1       -2 0.89905206E-01 0.95881624E+03</pdfrwt>
<totfact> 0.39110149E+00</totfact>
</mgrwt>
</event>
<event>
 4    1  0.1033139E-008  0.7626825E+03  0.7818608E-02  0.9615661E-01
         -2   -1    0    0    0  501 -0.00000000000E+00  0.00000000000E+00  0.19096978795E+04  0.19096978795E+04  0.25500000000E-02 0.  1.
          2   -1    0    0  501    0  0.00000000000E+00 -0.00000000000E+00 -0.20555261749E+04  0.20555261749E+04  0.25500000000E-02 0. -1.
    8880022    1    1    2    0    0  0.66175068347E+03  0.34695666487E+03  0.17569159235E+04  0.19153167126E+04  0.15294330000E+03 0.  0.
    8880022    1    1    2    0    0 -0.66175068347E+03 -0.34695666487E+03 -0.19027442189E+04  0.20499073418E+04  0.15294330000E+03 0.  0.
<mgrwt>
<rscale>  0 0.76268247E+03</rscale>
<asrwt>0</asrwt>
<pdfrwt beam="1">  1        2 0.31623480E+00 0.76268247E+03</pdfrwt>
<pdfrwt beam="2">  1       -2 0.29379967E+00 0.76268247E+03</pdfrwt>
<totfact> 0.22939097E-01</totfact>
</mgrwt>
</event>
<event>
 4    1  0.1033139E-008  0.2054049E+04  0.7818608E-02  0.8581760E-01
          2   -1    0    0  501    0  0.00000000000E+00  0.00000000000E+00  0.40085192941E+04  0.40085192941E+04  0.25500000000E-02 0. -1.
         -2   -1    0    0    0  501 -0.00000000000E+00 -0.00000000000E+00 -0.11565344395E+04  0.11565344395E+04  0.25500000000E-02 0.  1.
    8880022    1    1    2    0    0 -0.18081602146E+04 -0.96243634130E+03  0.65157542482E+03  0.21549174601E+04  0.15294330000E+03 0.  0.
    8880022    1    1    2    0    0  0.18081602146E+04  0.96243634130E+03  0.22004094298E+04  0.30101362734E+04  0.15294330000E+03 0.  0.
<mgrwt>
<rscale>  0 0.20540493E+04</rscale>
<asrwt>0</asrwt>
<pdfrwt beam="1">  1        2 0.61669528E+00 0.20540493E+04</pdfrwt>
<pdfrwt beam="2">  1       -2 0.17792837E+00 0.20540493E+04</pdfrwt>
<totfact> 0.56470145E-02</totfact>
</mgrwt>
</event>
<event>
 4    1  0.1033139E-008  0.7980511E+03  0.7818608E-02  0.9562842E-01
          2   -1    0    0  501    0  0.00000000000E+00  0.00000000000E+00  0.79284329602E+03  0.79284329602E+03  0.25500000000E-02 0. -1.
         -2   -1    0    0    0  501 -0.00000000000E+00 -0.00000000000E+00 -0.19105911556E+04  0.19105911556E+04  0.25500000000E-02 0.  1.
    8880022    1    1    2    0    0 -0.40304243138E+03  0.67160313343E+03 -0.15879185751E+04  0.17771806392E+04  0.15294330000E+03 0.  0.
    8880022    1    1    2    0    0  0.40304243138E+03 -0.67160313343E+03  0.47017071548E+03  0.92625381242E+03  0.15294330000E+03 0.  0.
<mgrwt>
<rscale>  0 0.79805114E+03</rscale>
<asrwt>0</asrwt>
<pdfrwt beam="1">  1        2 0.12197589E+00 0.79805114E+03</pdfrwt>
<pdfrwt beam="2">  1       -2 0.29393710E+00 0.79805114E+03</pdfrwt>
<totfact> 0.12477330E+00</totfact>
</mgrwt>
</event>
<event>
 4    1  0.1033139E-008  0.7628515E+03  0.7818608E-02  0.9615401E-01
          2   -1    0    0  501    0  0.00000000000E+00  0.00000000000E+00  0.12344561436E+04  0.12344561436E+04  0.25500000000E-02 0. -1.
         -2   -1    0    0    0  501 -0.00000000000E+00 -0.00000000000E+00 -0.10258892843E+04  0.10258892843E+04  0.25500000000E-02 0.  1.
    8880022    1    1    2    0    0 -0.59268404962E+03 -0.45527610423E+03 -0.72659003120E+03  0.10535062602E+04  0.15294330000E+03 0.  0.
    8880022    1    1    2    0    0  0.59268404962E+03  0.45527610423E+03  0.93515689051E+03  0.12068391677E+04  0.15294330000E+03 0.  0.
<mgrwt>
<rscale>  0 0.76285147E+03</rscale>
<asrwt>0</asrwt>
<pdfrwt beam="1">  1        2 0.18991633E+00 0.76285147E+03</pdfrwt>
<pdfrwt beam="2">  1       -2 0.15782912E+00 0.76285147E+03</pdfrwt>
<totfact> 0.48202861E+00</totfact>
</mgrwt>
</event>
<event>
 4    1  0.1033139E-008  0.1582290E+04  0.7818608E-02  0.8831503E-01
         -2   -1    0    0    0  501 -0.00000000000E+00  0.00000000000E+00  0.12078118246E+04  0.12078118246E+04  0.25500000000E-02 0.  1.
          2   -1    0    0  501    0  0.00000000000E+00 -0.00000000000E+00 -0.29236976535E+04  0.29236976535E+04  0.25500000000E-02 0. -1.
    8880022    1    1    2    0    0  0.33428792432E+02  0.15745258978E+04  0.25643493804E+03  0.16029347515E+04  0.15294330000E+03 0.  0.
    8880022    1    1    2    0    0 -0.33428792432E+02 -0.15745258978E+04 -0.19723207669E+04  0.25285747265E+04  0.15294330000E+03 0.  0.
<mgrwt>
<rscale>  0 0.15822898E+04</rscale>
<asrwt>0</asrwt>
<pdfrwt beam="1">  1        2 0.44979964E+00 0.15822898E+04</pdfrwt>
<pdfrwt beam="2">  1       -2 0.18581720E+00 0.15822898E+04</pdfrwt>
<totfact> 0.30017051E-01</totfact>
</mgrwt>
</event>
<event>
 4    1  0.1033139E-008  0.9877512E+03  0.7818608E-02  0.9322082E-01
          2   -1    0    0  501    0  0.00000000000E+00  0.00000000000E+00  0.14086959725E+04  0.14086959725E+04  0.25500000000E-02 0. -1.
         -2   -1    0    0    0  501 -0.00000000000E+00 -0.00000000000E+00 -0.81323569779E+03  0.81323569779E+03  0.25500000000E-02 0.  1.
    8880022    1    1    2    0    0  0.19992158959E+03  0.95513984605E+03  0.72563153820E+03  0.12256400572E+04  0.15294330000E+03 0.  0.
    8880022    1    1    2    0    0 -0.19992158959E+03 -0.95513984605E+03 -0.13017126350E+03  0.99629161311E+03  0.15294330000E+03 0.  0.
<mgrwt>
<rscale>  0 0.98775119E+03</rscale>
<asrwt>0</asrwt>
<pdfrwt beam="1">  1        2 0.21672246E+00 0.98775119E+03</pdfrwt>
<pdfrwt beam="2">  1       -2 0.12511318E+00 0.98775119E+03</pdfrwt>
<totfact> 0.68057215E+00</totfact>
</mgrwt>
</event>
<event>
 4    1  0.1033139E-008  0.6291084E+03  0.7818608E-02  0.9846790E-01
         -2   -1    0    0    0  501 -0.00000000000E+00  0.00000000000E+00  0.82399432962E+03  0.82399432962E+03  0.25500000000E-02 0.  1.
          2   -1    0    0  501    0  0.00000000000E+00 -0.00000000000E+00 -0.68610088881E+03  0.68610088882E+03  0.25500000000E-02 0. -1.
    8880022    1    1    2    0    0 -0.60477549724E+03 -0.81439113641E+02  0.48245807529E+03  0.79280715103E+03  0.15294330000E+03 0.  0.
    8880022    1    1    2    0    0  0.60477549724E+03  0.81439113641E+02 -0.34456463449E+03  0.71728806741E+03  0.15294330000E+03 0.  0.
<mgrwt>
<rscale>  0 0.62910840E+03</rscale>
<asrwt>0</asrwt>
<pdfrwt beam="1">  1        2 0.10555398E+00 0.62910840E+03</pdfrwt>
<pdfrwt beam="2">  1       -2 0.12676836E+00 0.62910840E+03</pdfrwt>
<totfact> 0.19965307E+01</totfact>
</mgrwt>
</event>
<event>
 4    1  0.1033139E-008  0.3525783E+03  0.7818608E-02  0.1061562E+00
         -2   -1    0    0    0  501 -0.00000000000E+00  0.00000000000E+00  0.84512119610E+03  0.84512119611E+03  0.25500000000E-02 0.  1.
          2   -1    0    0  501    0  0.00000000000E+00 -0.00000000000E+00 -0.46368589172E+03  0.46368589172E+03  0.25500000000E-02 0. -1.
    8880022    1    1    2    0    0 -0.19300899773E+03  0.25232388316E+03  0.73145234700E+03  0.81199384490E+03  0.15294330000E+03 0.  0.
    8880022    1    1    2    0    0  0.19300899773E+03 -0.25232388316E+03 -0.35001704261E+03  0.49681324293E+03  0.15294330000E+03 0. -1.
<mgrwt>
<rscale>  0 0.35257832E+03</rscale>
<asrwt>0</asrwt>
<pdfrwt beam="1">  1        2 0.71336292E-01 0.35257832E+03</pdfrwt>
<pdfrwt beam="2">  1       -2 0.13001864E+00 0.35257832E+03</pdfrwt>
<totfact> 0.30821315E+01</totfact>
</mgrwt>
</event>
<event>
 4    1  0.1033139E-008  0.8502893E+03  0.7818608E-02  0.9489949E-01
         -2   -1    0    0    0  501 -0.00000000000E+00  0.00000000000E+00  0.23640418404E+03  0.23640418406E+03  0.25500000000E-02 0.  1.
          2   -1    0    0  501    0  0.00000000000E+00 -0.00000000000E+00 -0.37233972191E+04  0.37233972191E+04  0.25500000000E-02 0. -1.
    8880022    1    1    2    0    0  0.16506681301E+03  0.81997146944E+03 -0.90669890368E+03  0.12430184304E+04  0.15294330000E+03 0.  0.
    8880022    1    1    2    0    0 -0.16506681301E+03 -0.81997146944E+03 -0.25802941314E+04  0.27167829727E+04  0.15294330000E+03 0.  0.
<mgrwt>
<rscale>  0 0.85028931E+03</rscale>
<asrwt>0</asrwt>
<pdfrwt beam="1">  1        2 0.57283030E+00 0.85028931E+03</pdfrwt>
<pdfrwt beam="2">  1       -2 0.36369877E-01 0.85028931E+03</pdfrwt>
<totfact> 0.42758052E+00</totfact>
</mgrwt>
</event>
<event>
 4    1  0.1033139E-008  0.7603991E+03  0.7818608E-02  0.9619176E-01
          2   -1    0    0  501    0  0.00000000000E+00  0.00000000000E+00  0.62744433914E+03  0.62744433915E+03  0.25500000000E-02 0. -1.
         -2   -1    0    0    0  501 -0.00000000000E+00 -0.00000000000E+00 -0.16251699711E+04  0.16251699711E+04  0.25500000000E-02 0.  1.
    8880022    1    1    2    0    0 -0.37045734428E+03 -0.64620158956E+03 -0.12399745314E+04  0.14545596000E+04  0.15294330000E+03 0.  0.
    8880022    1    1    2    0    0  0.37045734428E+03  0.64620158956E+03  0.24224889948E+03  0.79805471027E+03  0.15294330000E+03 0.  0.
<mgrwt>
<rscale>  0 0.76039910E+03</rscale>
<asrwt>0</asrwt>
<pdfrwt beam="1">  1        2 0.96529899E-01 0.76039910E+03</pdfrwt>
<pdfrwt beam="2">  1       -2 0.25002615E+00 0.76039910E+03</pdfrwt>
<totfact> 0.31032915E+00</totfact>
</mgrwt>
</event>
<event>
 4    1  0.1033139E-008  0.5633263E+03  0.7818608E-02  0.9984556E-01
          2   -1    0    0  501    0  0.00000000000E+00  0.00000000000E+00  0.29711808307E+04  0.29711808307E+04  0.25500000000E-02 0. -1.
         -2   -1    0    0    0  501 -0.00000000000E+00 -0.00000000000E+00 -0.21619792599E+03  0.21619792600E+03  0.25500000000E-02 0.  1.
    8880022    1    1    2    0    0 -0.50401788455E+03  0.19977711270E+03  0.24385762063E+03  0.61384290732E+03  0.15294330000E+03 0.  1.
    8880022    1    1    2    0    0  0.50401788455E+03 -0.19977711270E+03  0.25111252841E+04  0.25735358494E+04  0.15294330000E+03 0.  0.
<mgrwt>
<rscale>  0 0.56332635E+03</rscale>
<asrwt>0</asrwt>
<pdfrwt beam="1">  1        2 0.45710470E+00 0.56332635E+03</pdfrwt>
<pdfrwt beam="2">  1       -2 0.33261223E-01 0.56332635E+03</pdfrwt>
<totfact> 0.16839263E+01</totfact>
</mgrwt>
</event>
<event>
 4    1  0.1033139E-008  0.1755893E+04  0.7818608E-02  0.8730113E-01
         -2   -1    0    0    0  501 -0.00000000000E+00  0.00000000000E+00  0.10944505990E+04  0.10944505990E+04  0.25500000000E-02 0.  1.
          2   -1    0    0  501    0  0.00000000000E+00 -0.00000000000E+00 -0.29835252923E+04  0.29835252923E+04  0.25500000000E-02 0. -1.
    8880022    1    1    2    0    0 -0.93839432784E+03 -0.14762066747E+04 -0.14261273061E+04  0.22620788685E+04  0.15294330000E+03 0.  0.
    8880022    1    1    2    0    0  0.93839432784E+03  0.14762066747E+04 -0.46294738721E+03  0.18158970228E+04  0.15294330000E+03 0.  0.
<mgrwt>
<rscale>  0 0.17558934E+04</rscale>
<asrwt>0</asrwt>
<pdfrwt beam="1">  1        2 0.45900389E+00 0.17558934E+04</pdfrwt>
<pdfrwt beam="2">  1       -2 0.16837702E+00 0.17558934E+04</pdfrwt>
<totfact> 0.35894322E-01</totfact>
</mgrwt>
</event>
<event>
 4    1  0.1033139E-008  0.7460199E+03  0.7818608E-02  0.9641615E-01
         -2   -1    0    0    0  501 -0.00000000000E+00  0.00000000000E+00  0.59630031309E+03  0.59630031309E+03  0.25500000000E-02 0.  1.
          2   -1    0    0  501    0  0.00000000000E+00 -0.00000000000E+00 -0.18735259430E+04  0.18735259430E+04  0.25500000000E-02 0. -1.
    8880022    1    1    2    0    0  0.61195427995E+03  0.39832908315E+03 -0.15134262333E+04  0.16873069418E+04  0.15294330000E+03 0.  0.
    8880022    1    1    2    0    0 -0.61195427995E+03 -0.39832908315E+03  0.23620060335E+03  0.78251931432E+03  0.15294330000E+03 0.  0.
<mgrwt>
<rscale>  0 0.74601994E+03</rscale>
<asrwt>0</asrwt>
<pdfrwt beam="1">  1        2 0.28823476E+00 0.74601994E+03</pdfrwt>
<pdfrwt beam="2">  1       -2 0.91738511E-01 0.74601994E+03</pdfrwt>
<totfact> 0.82053815E+00</totfact>
</mgrwt>
</event>
<event>
 4    1  0.1033139E-008  0.1256054E+04  0.7818608E-02  0.9065160E-01
          2   -1    0    0  501    0  0.00000000000E+00  0.00000000000E+00  0.14895032356E+04  0.14895032356E+04  0.25500000000E-02 0. -1.
         -2   -1    0    0    0  501 -0.00000000000E+00 -0.00000000000E+00 -0.14935909244E+04  0.14935909244E+04  0.25500000000E-02 0.  1.
    8880022    1    1    2    0    0  0.12421293893E+04 -0.10674307305E+03  0.80234323477E+03  0.14904448406E+04  0.15294330000E+03 0.  0.
    8880022    1    1    2    0    0 -0.12421293893E+04  0.10674307305E+03 -0.80643092354E+03  0.14926493194E+04  0.15294330000E+03 0.  0.
<mgrwt>
<rscale>  0 0.12560538E+04</rscale>
<asrwt>0</asrwt>
<pdfrwt beam="1">  1        2 0.22915434E+00 0.12560538E+04</pdfrwt>
<pdfrwt beam="2">  1       -2 0.22978322E+00 0.12560538E+04</pdfrwt>
<totfact> 0.10644532E+00</totfact>
</mgrwt>
</event>
<event>
 4    1  0.2232817E-008  0.1214151E+04  0.7818608E-02  0.9100560E-01
         -2   -1    0    0    0  501 -0.00000000000E+00  0.00000000000E+00  0.20790314539E+04  0.20790314539E+04  0.25500000000E-02 0.  1.
          2   -1    0    0  501    0  0.00000000000E+00 -0.00000000000E+00 -0.21449736846E+04  0.21449736846E+04  0.25500000000E-02 0. -1.
    8880022    1    1    2    0    0  0.91358625350E+03 -0.78493980967E+03  0.16950432053E+04  0.20850260114E+04  0.15294330000E+03 0.  0.
    8880022    1    1    2    0    0 -0.91358625350E+03  0.78493980967E+03 -0.17609854360E+04  0.21389791271E+04  0.15294330000E+03 0.  0.
<mgrwt>
<rscale>  0 0.12141507E+04</rscale>
<asrwt>0</asrwt>
<pdfrwt beam="1">  1        2 0.32999595E+00 0.12141507E+04</pdfrwt>
<pdfrwt beam="2">  1       -2 0.31985099E+00 0.12141507E+04</pdfrwt>
<totfact> 0.13005562E-01</totfact>
</mgrwt>
</event>
<event>
 4    1  0.1033139E-008  0.7693461E+03  0.7818608E-02  0.9605479E-01
          2   -1    0    0  501    0  0.00000000000E+00  0.00000000000E+00  0.62356164405E+03  0.62356164405E+03  0.25500000000E-02 0. -1.
         -2   -1    0    0    0  501 -0.00000000000E+00 -0.00000000000E+00 -0.17488308875E+04  0.17488308875E+04  0.25500000000E-02 0.  1.
    8880022    1    1    2    0    0  0.51099978355E+03 -0.55441952899E+03 -0.13647255829E+04  0.15666427041E+04  0.15294330000E+03 0.  0.
    8880022    1    1    2    0    0 -0.51099978355E+03  0.55441952899E+03  0.23945633939E+03  0.80574982743E+03  0.15294330000E+03 0.  0.
<mgrwt>
<rscale>  0 0.76934612E+03</rscale>
<asrwt>0</asrwt>
<pdfrwt beam="1">  1        2 0.95932562E-01 0.76934612E+03</pdfrwt>
<pdfrwt beam="2">  1       -2 0.26905090E+00 0.76934612E+03</pdfrwt>
<totfact> 0.23979831E+00</totfact>
</mgrwt>
</event>
<event>
 4    1  0.1033139E-008  0.1007902E+04  0.7818608E-02  0.9299920E-01
         -2   -1    0    0    0  501 -0.00000000000E+00  0.00000000000E+00  0.13605391136E+04  0.13605391136E+04  0.25500000000E-02 0.  1.
          2   -1    0    0  501    0  0.00000000000E+00 -0.00000000000E+00 -0.19193180284E+04  0.19193180284E+04  0.25500000000E-02 0. -1.
    8880022    1    1    2    0    0 -0.10135117350E+03  0.99106127741E+03  0.10024579526E+04  0.14215442714E+04  0.15294330000E+03 0.  0.
    8880022    1    1    2    0    0  0.10135117350E+03 -0.99106127741E+03 -0.15612368674E+04  0.18583128706E+04  0.15294330000E+03 0.  0.
<mgrwt>
<rscale>  0 0.10079019E+04</rscale>
<asrwt>0</asrwt>
<pdfrwt beam="1">  1        2 0.29527970E+00 0.10079019E+04</pdfrwt>
<pdfrwt beam="2">  1       -2 0.20931371E+00 0.10079019E+04</pdfrwt>
<totfact> 0.85441336E-01</totfact>
</mgrwt>
</event>
<event>
 4    1  0.1033139E-008  0.5165531E+03  0.7818608E-02  0.1009546E+00
          2   -1    0    0  501    0  0.00000000000E+00  0.00000000000E+00  0.11357308798E+04  0.11357308798E+04  0.25500000000E-02 0. -1.
         -2   -1    0    0    0  501 -0.00000000000E+00 -0.00000000000E+00 -0.75861535950E+03  0.75861535951E+03  0.25500000000E-02 0.  1.
    8880022    1    1    2    0    0  0.18801132713E+03  0.45616578038E+03 -0.59839771161E+03  0.79051056451E+03  0.15294330000E+03 0.  0.
    8880022    1    1    2    0    0 -0.18801132713E+03 -0.45616578038E+03  0.97551323190E+03  0.11038356748E+04  0.15294330000E+03 0.  0.
<mgrwt>
<rscale>  0 0.51655313E+03</rscale>
<asrwt>0</asrwt>
<pdfrwt beam="1">  1        2 0.17472783E+00 0.51655313E+03</pdfrwt>
<pdfrwt beam="2">  1       -2 0.11671006E+00 0.51655313E+03</pdfrwt>
<totfact> 0.12411936E+01</totfact>
</mgrwt>
</event>
<event>
 4    1  0.1033139E-008  0.4914479E+03  0.7818608E-02  0.1016036E+00
          2   -1    0    0  501    0  0.00000000000E+00  0.00000000000E+00  0.36715217977E+04  0.36715217977E+04  0.25500000000E-02 0. -1.
         -2   -1    0    0    0  501 -0.00000000000E+00 -0.00000000000E+00 -0.31104066314E+03  0.31104066315E+03  0.25500000000E-02 0.  1.
    8880022    1    1    2    0    0  0.43960809697E+03 -0.15771532156E+03  0.34484591521E+04  0.34833018213E+04  0.15294330000E+03 0.  0.
    8880022    1    1    2    0    0 -0.43960809697E+03  0.15771532156E+03 -0.87978017574E+02  0.49926063951E+03  0.15294330000E+03 0.  0.
<mgrwt>
<rscale>  0 0.49144792E+03</rscale>
<asrwt>0</asrwt>
<pdfrwt beam="1">  1        2 0.56484947E+00 0.49144792E+03</pdfrwt>
<pdfrwt beam="2">  1       -2 0.47852413E-01 0.49144792E+03</pdfrwt>
<totfact> 0.29772619E+00</totfact>
</mgrwt>
</event>
<event>
 4    1  0.1033139E-008  0.3955463E+03  0.7818608E-02  0.1045333E+00
          2   -1    0    0  501    0  0.00000000000E+00  0.00000000000E+00  0.12051313545E+04  0.12051313545E+04  0.25500000000E-02 0. -1.
         -2   -1    0    0    0  501 -0.00000000000E+00 -0.00000000000E+00 -0.19560831209E+03  0.19560831211E+03  0.25500000000E-02 0.  1.
    8880022    1    1    2    0    0 -0.34631940894E+03 -0.11457791525E+03  0.98608478241E+02  0.40765244593E+03  0.15294330000E+03 0.  0.
    8880022    1    1    2    0    0  0.34631940894E+03  0.11457791525E+03  0.91091456417E+03  0.99308722070E+03  0.15294330000E+03 0.  0.
<mgrwt>
<rscale>  0 0.39554631E+03</rscale>
<asrwt>0</asrwt>
<pdfrwt beam="1">  1        2 0.18540483E+00 0.39554631E+03</pdfrwt>
<pdfrwt beam="2">  1       -2 0.30093586E-01 0.39554631E+03</pdfrwt>
<totfact> 0.20012166E+02</totfact>
</mgrwt>
</event>
<event>
 4    1  0.1033139E-008  0.1378780E+04  0.7818608E-02  0.8969324E-01
          2   -1    0    0  501    0  0.00000000000E+00  0.00000000000E+00  0.13928066559E+04  0.13928066559E+04  0.25500000000E-02 0. -1.
         -2   -1    0    0    0  501 -0.00000000000E+00 -0.00000000000E+00 -0.25321656797E+04  0.25321656797E+04  0.25500000000E-02 0.  1.
    8880022    1    1    2    0    0  0.13672365190E+04 -0.91140612327E+02  0.76275677305E+03  0.15757004340E+04  0.15294330000E+03 0.  0.
    8880022    1    1    2    0    0 -0.13672365190E+04  0.91140612327E+02 -0.19021157969E+04  0.23492719016E+04  0.15294330000E+03 0.  0.
<mgrwt>
<rscale>  0 0.13787799E+04</rscale>
<asrwt>0</asrwt>
<pdfrwt beam="1">  1        2 0.21427795E+00 0.13787799E+04</pdfrwt>
<pdfrwt beam="2">  1       -2 0.38956395E+00 0.13787799E+04</pdfrwt>
<totfact> 0.12156091E-01</totfact>
</mgrwt>
</event>
<event>
 4    1  0.1033139E-008  0.9316903E+03  0.7818608E-02  0.9386812E-01
          2   -1    0    0  501    0  0.00000000000E+00  0.00000000000E+00  0.21785301866E+04  0.21785301866E+04  0.25500000000E-02 0. -1.
         -2   -1    0    0    0  501 -0.00000000000E+00 -0.00000000000E+00 -0.88577568753E+03  0.88577568753E+03  0.25500000000E-02 0.  1.
    8880022    1    1    2    0    0  0.88814485580E+03 -0.23633414026E+03  0.17828199888E+04  0.20115898877E+04  0.15294330000E+03 0.  0.
    8880022    1    1    2    0    0 -0.88814485580E+03  0.23633414026E+03 -0.49006548978E+03  0.10527159864E+04  0.15294330000E+03 0.  0.
<mgrwt>
<rscale>  0 0.93169027E+03</rscale>
<asrwt>0</asrwt>
<pdfrwt beam="1">  1        2 0.33515849E+00 0.93169027E+03</pdfrwt>
<pdfrwt beam="2">  1       -2 0.13627318E+00 0.93169027E+03</pdfrwt>
<totfact> 0.20666491E+00</totfact>
</mgrwt>
</event>
<event>
 4    1  0.1033139E-008  0.1633079E+03  0.7818608E-02  0.1185012E+00
         -2   -1    0    0    0  501 -0.00000000000E+00  0.00000000000E+00  0.71710877114E+02  0.71710877160E+02  0.25500000000E-02 0.  1.
          2   -1    0    0  501    0  0.00000000000E+00 -0.00000000000E+00 -0.24166077340E+04  0.24166077340E+04  0.25500000000E-02 0. -1.
    8880022    1    1    2    0    0  0.30634147627E+02 -0.48367104822E+02 -0.23168757751E+04  0.23226241276E+04  0.15294330000E+03 0. -1.
    8880022    1    1    2    0    0 -0.30634147627E+02  0.48367104822E+02 -0.28021081732E+02  0.16569448351E+03  0.15294330000E+03 0.  0.
<mgrwt>
<rscale>  0 0.16330793E+03</rscale>
<asrwt>0</asrwt>
<pdfrwt beam="1">  1        2 0.37178574E+00 0.16330793E+03</pdfrwt>
<pdfrwt beam="2">  1       -2 0.11032444E-01 0.16330793E+03</pdfrwt>
<totfact> 0.26210534E+02</totfact>
</mgrwt>
</event>
<event>
 4    1  0.1033139E-008  0.1487423E+04  0.7818608E-02  0.8892860E-01
         -2   -1    0    0    0  501 -0.00000000000E+00  0.00000000000E+00  0.14423512694E+04  0.14423512694E+04  0.25500000000E-02 0.  1.
          2   -1    0    0  501    0  0.00000000000E+00 -0.00000000000E+00 -0.25870332419E+04  0.25870332419E+04  0.25500000000E-02 0. -1.
    8880022    1    1    2    0    0  0.69580817325E+03  0.13057126435E+04 -0.18577722661E+04  0.23798621740E+04  0.15294330000E+03 0.  0.
    8880022    1    1    2    0    0 -0.69580817325E+03 -0.13057126435E+04  0.71309029356E+03  0.16495223373E+04  0.15294330000E+03 0.  0.
<mgrwt>
<rscale>  0 0.14874227E+04</rscale>
<asrwt>0</asrwt>
<pdfrwt beam="1">  1        2 0.39800511E+00 0.14874227E+04</pdfrwt>
<pdfrwt beam="2">  1       -2 0.22190020E+00 0.14874227E+04</pdfrwt>
<totfact> 0.27994320E-01</totfact>
</mgrwt>
</event>
<event>
 4    1  0.1033139E-008  0.1099265E+04  0.7818608E-02  0.9205908E-01
          2   -1    0    0  501    0  0.00000000000E+00  0.00000000000E+00  0.17588474290E+04  0.17588474290E+04  0.25500000000E-02 0. -1.
         -2   -1    0    0    0  501 -0.00000000000E+00 -0.00000000000E+00 -0.12231926012E+04  0.12231926012E+04  0.25500000000E-02 0.  1.
    8880022    1    1    2    0    0 -0.85476353822E+03 -0.67407103514E+03  0.12549783900E+04  0.16683389581E+04  0.15294330000E+03 0.  0.
    8880022    1    1    2    0    0  0.85476353822E+03  0.67407103514E+03 -0.71932356222E+03  0.13137010721E+04  0.15294330000E+03 0.  0.
<mgrwt>
<rscale>  0 0.10992653E+04</rscale>
<asrwt>0</asrwt>
<pdfrwt beam="1">  1        2 0.27059191E+00 0.10992653E+04</pdfrwt>
<pdfrwt beam="2">  1       -2 0.18818348E+00 0.10992653E+04</pdfrwt>
<totfact> 0.14242817E+00</totfact>
</mgrwt>
</event>
<event>
 4    1  0.1033139E-008  0.5198111E+03  0.7818608E-02  0.1008733E+00
         -2   -1    0    0    0  501 -0.00000000000E+00  0.00000000000E+00  0.46029192790E+03  0.46029192790E+03  0.25500000000E-02 0.  1.
          2   -1    0    0  501    0  0.00000000000E+00 -0.00000000000E+00 -0.16665278787E+04  0.16665278787E+04  0.25500000000E-02 0. -1.
    8880022    1    1    2    0    0 -0.30528431997E+03  0.39193545188E+03 -0.14589844326E+04  0.15488186279E+04  0.15294330000E+03 0.  0.
    8880022    1    1    2    0    0  0.30528431997E+03 -0.39193545188E+03  0.25274848185E+03  0.57800117868E+03  0.15294330000E+03 0.  0.
<mgrwt>
<rscale>  0 0.51981109E+03</rscale>
<asrwt>0</asrwt>
<pdfrwt beam="1">  1        2 0.25638890E+00 0.51981109E+03</pdfrwt>
<pdfrwt beam="2">  1       -2 0.70814143E-01 0.51981109E+03</pdfrwt>
<totfact> 0.19749999E+01</totfact>
</mgrwt>
</event>
<event>
 4    1  0.1033139E-008  0.1365141E+04  0.7818608E-02  0.8979445E-01
          2   -1    0    0  501    0  0.00000000000E+00  0.00000000000E+00  0.24315305324E+04  0.24315305324E+04  0.25500000000E-02 0. -1.
         -2   -1    0    0    0  501 -0.00000000000E+00 -0.00000000000E+00 -0.89904103116E+03  0.89904103117E+03  0.25500000000E-02 0.  1.
    8880022    1    1    2    0    0 -0.10895353265E+04 -0.80816484940E+03  0.12668489726E+03  0.13710063340E+04  0.15294330000E+03 0.  0.
    8880022    1    1    2    0    0  0.10895353265E+04  0.80816484940E+03  0.14058046040E+04  0.19595652296E+04  0.15294330000E+03 0.  0.
<mgrwt>
<rscale>  0 0.13651408E+04</rscale>
<asrwt>0</asrwt>
<pdfrwt beam="1">  1        2 0.37408162E+00 0.13651408E+04</pdfrwt>
<pdfrwt beam="2">  1       -2 0.13831401E+00 0.13651408E+04</pdfrwt>
<totfact> 0.13561873E+00</totfact>
</mgrwt>
</event>
<event>
 4    1  0.1033139E-008  0.8764301E+03  0.7818608E-02  0.9455534E-01
         -2   -1    0    0    0  501 -0.00000000000E+00  0.00000000000E+00  0.60929075255E+03  0.60929075255E+03  0.25500000000E-02 0.  1.
          2   -1    0    0  501    0  0.00000000000E+00 -0.00000000000E+00 -0.22960432687E+04  0.22960432687E+04  0.25500000000E-02 0. -1.
    8880022    1    1    2    0    0  0.39661921234E+03  0.76644064417E+03 -0.18188583532E+04  0.20190035717E+04  0.15294330000E+03 0.  0.
    8880022    1    1    2    0    0 -0.39661921234E+03 -0.76644064417E+03  0.13210583701E+03  0.88633044956E+03  0.15294330000E+03 0.  0.
<mgrwt>
<rscale>  0 0.87643010E+03</rscale>
<asrwt>0</asrwt>
<pdfrwt beam="1">  1        2 0.35323742E+00 0.87643010E+03</pdfrwt>
<pdfrwt beam="2">  1       -2 0.93737040E-01 0.87643010E+03</pdfrwt>
<totfact> 0.44820870E+00</totfact>
</mgrwt>
</event>
<event>
 4    1  0.1033139E-008  0.4200712E+03  0.7818608E-02  0.1037043E+00
          2   -1    0    0  501    0  0.00000000000E+00  0.00000000000E+00  0.59610394277E+03  0.59610394278E+03  0.25500000000E-02 0. -1.
         -2   -1    0    0    0  501 -0.00000000000E+00 -0.00000000000E+00 -0.45024723464E+03  0.45024723465E+03  0.25500000000E-02 0.  1.
    8880022    1    1    2    0    0  0.30465957979E+03 -0.24546015377E+03  0.37912459690E+03  0.56585798539E+03  0.15294330000E+03 0.  0.
    8880022    1    1    2    0    0 -0.30465957979E+03  0.24546015377E+03 -0.23326788876E+03  0.48049319203E+03  0.15294330000E+03 0.  0.
<mgrwt>
<rscale>  0 0.42007118E+03</rscale>
<asrwt>0</asrwt>
<pdfrwt beam="1">  1        2 0.91708299E-01 0.42007118E+03</pdfrwt>
<pdfrwt beam="2">  1       -2 0.69268805E-01 0.42007118E+03</pdfrwt>
<totfact> 0.98591263E+01</totfact>
</mgrwt>
</event>
<event>
 4    1  0.1033139E-008  0.1269908E+04  0.7818608E-02  0.9053775E-01
         -2   -1    0    0    0  501 -0.00000000000E+00  0.00000000000E+00  0.12054864592E+04  0.12054864592E+04  0.25500000000E-02 0.  1.
          2   -1    0    0  501    0  0.00000000000E+00 -0.00000000000E+00 -0.26569221278E+04  0.26569221279E+04  0.25500000000E-02 0. -1.
    8880022    1    1    2    0    0 -0.12100538859E+04 -0.35361544215E+03 -0.20864916057E+04  0.24425628265E+04  0.15294330000E+03 0.  0.
    8880022    1    1    2    0    0  0.12100538859E+04  0.35361544215E+03  0.63505593704E+03  0.14198457606E+04  0.15294330000E+03 0.  0.
<mgrwt>
<rscale>  0 0.12699078E+04</rscale>
<asrwt>0</asrwt>
<pdfrwt beam="1">  1        2 0.40875725E+00 0.12699078E+04</pdfrwt>
<pdfrwt beam="2">  1       -2 0.18545946E+00 0.12699078E+04</pdfrwt>
<totfact> 0.45376886E-01</totfact>
</mgrwt>
</event>
<event>
 4    1  0.1033139E-008  0.1279432E+04  0.7818608E-02  0.9046037E-01
          2   -1    0    0  501    0  0.00000000000E+00  0.00000000000E+00  0.21901500356E+04  0.21901500356E+04  0.25500000000E-02 0. -1.
         -2   -1    0    0    0  501 -0.00000000000E+00 -0.00000000000E+00 -0.99044113829E+03  0.99044113829E+03  0.25500000000E-02 0.  1.
    8880022    1    1    2    0    0 -0.37847313464E+03 -0.12125643149E+04  0.13876112015E+04  0.18874349342E+04  0.15294330000E+03 0.  0.
    8880022    1    1    2    0    0  0.37847313464E+03  0.12125643149E+04 -0.18790230415E+03  0.12931562397E+04  0.15294330000E+03 0.  1.
<mgrwt>
<rscale>  0 0.12794318E+04</rscale>
<asrwt>0</asrwt>
<pdfrwt beam="1">  1        2 0.33694616E+00 0.12794318E+04</pdfrwt>
<pdfrwt beam="2">  1       -2 0.15237556E+00 0.12794318E+04</pdfrwt>
<totfact> 0.14511458E+00</totfact>
</mgrwt>
</event>
<event>
 4    1  0.1033139E-008  0.5094868E+03  0.7818608E-02  0.1011332E+00
          2   -1    0    0  501    0  0.00000000000E+00  0.00000000000E+00  0.29922289654E+04  0.29922289654E+04  0.25500000000E-02 0. -1.
         -2   -1    0    0    0  501 -0.00000000000E+00 -0.00000000000E+00 -0.13840028759E+03  0.13840028761E+03  0.25500000000E-02 0.  1.
    8880022    1    1    2    0    0  0.45956082424E+03 -0.15807901455E+03  0.23831572568E+04  0.24370094972E+04  0.15294330000E+03 0.  0.
    8880022    1    1    2    0    0 -0.45956082424E+03  0.15807901455E+03  0.47067142099E+03  0.69361975575E+03  0.15294330000E+03 0.  0.
<mgrwt>
<rscale>  0 0.50948678E+03</rscale>
<asrwt>0</asrwt>
<pdfrwt beam="1">  1        2 0.46034293E+00 0.50948678E+03</pdfrwt>
<pdfrwt beam="2">  1       -2 0.21292351E-01 0.50948678E+03</pdfrwt>
<totfact> 0.37161433E+01</totfact>
</mgrwt>
</event>
<event>
 4    1  0.1033139E-008  0.1428437E+04  0.7818608E-02  0.8933487E-01
          2   -1    0    0  501    0  0.00000000000E+00  0.00000000000E+00  0.36585284004E+04  0.36585284004E+04  0.25500000000E-02 0. -1.
         -2   -1    0    0    0  501 -0.00000000000E+00 -0.00000000000E+00 -0.69225464957E+03  0.69225464957E+03  0.25500000000E-02 0.  1.
    8880022    1    1    2    0    0 -0.13814059207E+04  0.32978727121E+03  0.52412951594E+03  0.15215601745E+04  0.15294330000E+03 0.  0.
    8880022    1    1    2    0    0  0.13814059207E+04 -0.32978727121E+03  0.24421442349E+04  0.28292228755E+04  0.15294330000E+03 0.  0.
<mgrwt>
<rscale>  0 0.14284375E+04</rscale>
<asrwt>0</asrwt>
<pdfrwt beam="1">  1        2 0.56285053E+00 0.14284375E+04</pdfrwt>
<pdfrwt beam="2">  1       -2 0.10650071E+00 0.14284375E+04</pdfrwt>
<totfact> 0.43219526E-01</totfact>
</mgrwt>
</event>
<event>
 4    1  0.1033139E-008  0.1071707E+04  0.7818608E-02  0.9233215E-01
          2   -1    0    0  501    0  0.00000000000E+00  0.00000000000E+00  0.12371113254E+04  0.12371113254E+04  0.25500000000E-02 0. -1.
         -2   -1    0    0    0  501 -0.00000000000E+00 -0.00000000000E+00 -0.14058324613E+04  0.14058324613E+04  0.25500000000E-02 0.  1.
    8880022    1    1    2    0    0  0.85686201708E+03  0.62526186377E+03 -0.85444594822E+03  0.13706328633E+04  0.15294330000E+03 0.  0.
    8880022    1    1    2    0    0 -0.85686201708E+03 -0.62526186377E+03  0.68572481229E+03  0.12723109234E+04  0.15294330000E+03 0.  0.
<mgrwt>
<rscale>  0 0.10717073E+04</rscale>
<asrwt>0</asrwt>
<pdfrwt beam="1">  1        2 0.19032482E+00 0.10717073E+04</pdfrwt>
<pdfrwt beam="2">  1       -2 0.21628192E+00 0.10717073E+04</pdfrwt>
<totfact> 0.18502518E+00</totfact>
</mgrwt>
</event>
<event>
 4    1  0.1033139E-008  0.7992115E+03  0.7818608E-02  0.9561159E-01
          2   -1    0    0  501    0  0.00000000000E+00  0.00000000000E+00  0.34379313720E+04  0.34379313720E+04  0.25500000000E-02 0. -1.
         -2   -1    0    0    0  501 -0.00000000000E+00 -0.00000000000E+00 -0.73707636444E+03  0.73707636444E+03  0.25500000000E-02 0.  1.
    8880022    1    1    2    0    0 -0.70476227530E+03 -0.34446699743E+03 -0.45491252562E+03  0.91961102429E+03  0.15294330000E+03 0.  0.
    8880022    1    1    2    0    0  0.70476227530E+03  0.34446699743E+03  0.31557675332E+04  0.32553967121E+04  0.15294330000E+03 0.  0.
<mgrwt>
<rscale>  0 0.79921151E+03</rscale>
<asrwt>0</asrwt>
<pdfrwt beam="1">  1        2 0.52891251E+00 0.79921151E+03</pdfrwt>
<pdfrwt beam="2">  1       -2 0.11339636E+00 0.79921151E+03</pdfrwt>
<totfact> 0.58827465E-01</totfact>
</mgrwt>
</event>
<event>
 4    1  0.1033139E-008  0.6060232E+03  0.7818608E-02  0.9892988E-01
          2   -1    0    0  501    0  0.00000000000E+00  0.00000000000E+00  0.19028748648E+04  0.19028748648E+04  0.25500000000E-02 0. -1.
         -2   -1    0    0    0  501 -0.00000000000E+00 -0.00000000000E+00 -0.34289889867E+03  0.34289889868E+03  0.25500000000E-02 0.  1.
    8880022    1    1    2    0    0 -0.57794058836E+03  0.99283124063E+02  0.37575732564E+02  0.60718699845E+03  0.15294330000E+03 0.  0.
    8880022    1    1    2    0    0  0.57794058836E+03 -0.99283124063E+02  0.15224002336E+04  0.16385867651E+04  0.15294330000E+03 0.  0.
<mgrwt>
<rscale>  0 0.60602320E+03</rscale>
<asrwt>0</asrwt>
<pdfrwt beam="1">  1        2 0.29274998E+00 0.60602320E+03</pdfrwt>
<pdfrwt beam="2">  1       -2 0.52753677E-01 0.60602320E+03</pdfrwt>
<totfact> 0.26998634E+01</totfact>
</mgrwt>
</event>
<event>
 4    1  0.1033139E-008  0.3521303E+03  0.7818608E-02  0.1061744E+00
         -2   -1    0    0    0  501 -0.00000000000E+00  0.00000000000E+00  0.58801676188E+03  0.58801676189E+03  0.25500000000E-02 0.  1.
          2   -1    0    0  501    0  0.00000000000E+00 -0.00000000000E+00 -0.64588975409E+03  0.64588975410E+03  0.25500000000E-02 0. -1.
    8880022    1    1    2    0    0  0.23977728700E+03 -0.20763173463E+03  0.47738574826E+03  0.59320560537E+03  0.15294330000E+03 0.  0.
    8880022    1    1    2    0    0 -0.23977728700E+03  0.20763173463E+03 -0.53525874048E+03  0.64070091061E+03  0.15294330000E+03 0.  0.
<mgrwt>
<rscale>  0 0.35213028E+03</rscale>
<asrwt>0</asrwt>
<pdfrwt beam="1">  1        2 0.99367655E-01 0.35213028E+03</pdfrwt>
<pdfrwt beam="2">  1       -2 0.90464117E-01 0.35213028E+03</pdfrwt>
<totfact> 0.49943355E+01</totfact>
</mgrwt>
</event>
<event>
 4    1  0.1033139E-008  0.9003902E+03  0.7818608E-02  0.9425094E-01
         -2   -1    0    0    0  501 -0.00000000000E+00  0.00000000000E+00  0.22456721597E+04  0.22456721597E+04  0.25500000000E-02 0.  1.
          2   -1    0    0  501    0  0.00000000000E+00 -0.00000000000E+00 -0.69405199623E+03  0.69405199624E+03  0.25500000000E-02 0. -1.
    8880022    1    1    2    0    0 -0.87125937816E+03 -0.16798186728E+03 -0.24238806143E+03  0.93244540703E+03  0.15294330000E+03 0.  0.
    8880022    1    1    2    0    0  0.87125937816E+03  0.16798186728E+03  0.17940082249E+04  0.20072787489E+04  0.15294330000E+03 0.  0.
<mgrwt>
<rscale>  0 0.90039017E+03</rscale>
<asrwt>0</asrwt>
<pdfrwt beam="1">  1        2 0.10677723E+00 0.90039017E+03</pdfrwt>
<pdfrwt beam="2">  1       -2 0.34548803E+00 0.90039017E+03</pdfrwt>
<totfact> 0.70675301E-01</totfact>
</mgrwt>
</event>
<event>
 4    1  0.1033139E-008  0.1125139E+04  0.7818608E-02  0.9181030E-01
          2   -1    0    0  501    0  0.00000000000E+00  0.00000000000E+00  0.30359633996E+04  0.30359633996E+04  0.25500000000E-02 0. -1.
         -2   -1    0    0    0  501 -0.00000000000E+00 -0.00000000000E+00 -0.67692906421E+03  0.67692906421E+03  0.25500000000E-02 0.  1.
    8880022    1    1    2    0    0  0.77895900697E+03  0.79735185258E+03  0.23299311945E+04  0.25873766899E+04  0.15294330000E+03 0.  0.
    8880022    1    1    2    0    0 -0.77895900697E+03 -0.79735185258E+03  0.29103140828E+02  0.11255157738E+04  0.15294330000E+03 0.  0.
<mgrwt>
<rscale>  0 0.11251394E+04</rscale>
<asrwt>0</asrwt>
<pdfrwt beam="1">  1        2 0.46707128E+00 0.11251394E+04</pdfrwt>
<pdfrwt beam="2">  1       -2 0.10414293E+00 0.11251394E+04</pdfrwt>
<totfact> 0.12401587E+00</totfact>
</mgrwt>
</event>
<event>
 4    1  0.1033139E-008  0.1499236E+04  0.7818608E-02  0.8884961E-01
          2   -1    0    0  501    0  0.00000000000E+00  0.00000000000E+00  0.30656131253E+04  0.30656131253E+04  0.25500000000E-02 0. -1.
         -2   -1    0    0    0  501 -0.00000000000E+00 -0.00000000000E+00 -0.12159617259E+04  0.12159617259E+04  0.25500000000E-02 0.  1.
    8880022    1    1    2    0    0 -0.11004700735E+04  0.10066191084E+04  0.22737262495E+04  0.27235159487E+04  0.15294330000E+03 0.  0.
    8880022    1    1    2    0    0  0.11004700735E+04 -0.10066191084E+04 -0.42407485005E+03  0.15580589025E+04  0.15294330000E+03 0.  0.
<mgrwt>
<rscale>  0 0.14992358E+04</rscale>
<asrwt>0</asrwt>
<pdfrwt beam="1">  1        2 0.47163278E+00 0.14992358E+04</pdfrwt>
<pdfrwt beam="2">  1       -2 0.18707104E+00 0.14992358E+04</pdfrwt>
<totfact> 0.24241676E-01</totfact>
</mgrwt>
</event>
<event>
 4    1  0.1033139E-008  0.2872426E+03  0.7818608E-02  0.1091798E+00
          2   -1    0    0  501    0  0.00000000000E+00  0.00000000000E+00  0.35206634210E+03  0.35206634211E+03  0.25500000000E-02 0. -1.
         -2   -1    0    0    0  501 -0.00000000000E+00 -0.00000000000E+00 -0.27196182798E+03  0.27196182799E+03  0.25500000000E-02 0.  1.
    8880022    1    1    2    0    0 -0.23602615016E+03 -0.58380607539E+02 -0.75974221932E+02  0.29712013447E+03  0.15294330000E+03 0.  0.
    8880022    1    1    2    0    0  0.23602615016E+03  0.58380607539E+02  0.15607873605E+03  0.32690803563E+03  0.15294330000E+03 0.  0.
<mgrwt>
<rscale>  0 0.28724257E+03</rscale>
<asrwt>0</asrwt>
<pdfrwt beam="1">  1        2 0.54164052E-01 0.28724257E+03</pdfrwt>
<pdfrwt beam="2">  1       -2 0.41840282E-01 0.28724257E+03</pdfrwt>
<totfact> 0.50374448E+02</totfact>
</mgrwt>
</event>
<event>
 4    1  0.1033139E-008  0.1196810E+04  0.7818608E-02  0.9115653E-01
         -2   -1    0    0    0  501 -0.00000000000E+00  0.00000000000E+00  0.10844047576E+04  0.10844047576E+04  0.25500000000E-02 0.  1.
          2   -1    0    0  501    0  0.00000000000E+00 -0.00000000000E+00 -0.22189291940E+04  0.22189291940E+04  0.25500000000E-02 0. -1.
    8880022    1    1    2    0    0 -0.50839802184E+03  0.10726110397E+04  0.48349874291E+03  0.12907849079E+04  0.15294330000E+03 0.  0.
    8880022    1    1    2    0    0  0.50839802184E+03 -0.10726110397E+04 -0.16180231793E+04  0.20125490436E+04  0.15294330000E+03 0.  0.
<mgrwt>
<rscale>  0 0.11968102E+04</rscale>
<asrwt>0</asrwt>
<pdfrwt beam="1">  1        2 0.34137372E+00 0.11968102E+04</pdfrwt>
<pdfrwt beam="2">  1       -2 0.16683150E+00 0.11968102E+04</pdfrwt>
<totfact> 0.11023223E+00</totfact>
</mgrwt>
</event>
<event>
 4    1  0.1033139E-008  0.7918118E+03  0.7818608E-02  0.9571945E-01
          2   -1    0    0  501    0  0.00000000000E+00  0.00000000000E+00  0.12795005505E+04  0.12795005505E+04  0.25500000000E-02 0. -1.
         -2   -1    0    0    0  501 -0.00000000000E+00 -0.00000000000E+00 -0.11018111003E+04  0.11018111003E+04  0.25500000000E-02 0.  1.
    8880022    1    1    2    0    0  0.87230779144E+02  0.77198773096E+03 -0.79838971497E+03  0.11244518912E+04  0.15294330000E+03 0.  0.
    8880022    1    1    2    0    0 -0.87230779144E+02 -0.77198773096E+03  0.97607916514E+03  0.12568597596E+04  0.15294330000E+03 0.  0.
<mgrwt>
<rscale>  0 0.79181179E+03</rscale>
<asrwt>0</asrwt>
<pdfrwt beam="1">  1        2 0.19684624E+00 0.79181179E+03</pdfrwt>
<pdfrwt beam="2">  1       -2 0.16950940E+00 0.79181179E+03</pdfrwt>
<totfact> 0.37172072E+00</totfact>
</mgrwt>
</event>
<event>
 4    1  0.1033139E-008  0.8616561E+03  0.7818608E-02  0.9474825E-01
         -2   -1    0    0    0  501 -0.00000000000E+00  0.00000000000E+00  0.70212056854E+03  0.70212056854E+03  0.25500000000E-02 0.  1.
          2   -1    0    0  501    0  0.00000000000E+00 -0.00000000000E+00 -0.12863211733E+04  0.12863211733E+04  0.25500000000E-02 0. -1.
    8880022    1    1    2    0    0 -0.52437028412E+03  0.66640479792E+03  0.12728391478E+03  0.87100654276E+03  0.15294330000E+03 0.  0.
    8880022    1    1    2    0    0  0.52437028412E+03 -0.66640479792E+03 -0.71148451954E+03  0.11174351991E+04  0.15294330000E+03 0.  0.
<mgrwt>
<rscale>  0 0.86165608E+03</rscale>
<asrwt>0</asrwt>
<pdfrwt beam="1">  1        2 0.19789556E+00 0.86165608E+03</pdfrwt>
<pdfrwt beam="2">  1       -2 0.10801855E+00 0.86165608E+03</pdfrwt>
<totfact> 0.11649676E+01</totfact>
</mgrwt>
</event>
<event>
 4    1  0.1033139E-008  0.6592246E+03  0.7818608E-02  0.9789622E-01
          2   -1    0    0  501    0  0.00000000000E+00  0.00000000000E+00  0.47585224418E+03  0.47585224419E+03  0.25500000000E-02 0. -1.
         -2   -1    0    0    0  501 -0.00000000000E+00 -0.00000000000E+00 -0.15995415468E+04  0.15995415468E+04  0.25500000000E-02 0.  1.
    8880022    1    1    2    0    0  0.30532610639E+03  0.56388063241E+03 -0.12415548117E+04  0.14057152636E+04  0.15294330000E+03 0.  0.
    8880022    1    1    2    0    0 -0.30532610639E+03 -0.56388063241E+03  0.11786550905E+03  0.66967852742E+03  0.15294330000E+03 0.  0.
<mgrwt>
<rscale>  0 0.65922458E+03</rscale>
<asrwt>0</asrwt>
<pdfrwt beam="1">  1        2 0.73208039E-01 0.65922458E+03</pdfrwt>
<pdfrwt beam="2">  1       -2 0.24608331E+00 0.65922458E+03</pdfrwt>
<totfact> 0.46128722E+00</totfact>
</mgrwt>
</event>
<event>
 4    1  0.1033139E-008  0.3510035E+03  0.7818608E-02  0.1062204E+00
         -2   -1    0    0    0  501 -0.00000000000E+00  0.00000000000E+00  0.92945922343E+02  0.92945922378E+02  0.25500000000E-02 0.  1.
          2   -1    0    0  501    0  0.00000000000E+00 -0.00000000000E+00 -0.22589746251E+04  0.22589746251E+04  0.25500000000E-02 0. -1.
    8880022    1    1    2    0    0  0.18776907992E+03  0.25407586744E+03 -0.18389402169E+04  0.18721390301E+04  0.15294330000E+03 0.  0.
    8880022    1    1    2    0    0 -0.18776907992E+03 -0.25407586744E+03 -0.32708848584E+03  0.47978151733E+03  0.15294330000E+03 0.  0.
<mgrwt>
<rscale>  0 0.35100346E+03</rscale>
<asrwt>0</asrwt>
<pdfrwt beam="1">  1        2 0.34753452E+00 0.35100346E+03</pdfrwt>
<pdfrwt beam="2">  1       -2 0.14299374E-01 0.35100346E+03</pdfrwt>
<totfact> 0.19786186E+02</totfact>
</mgrwt>
</event>
<event>
 4    1  0.1033139E-008  0.1177350E+04  0.7818608E-02  0.9132917E-01
          2   -1    0    0  501    0  0.00000000000E+00  0.00000000000E+00  0.19030177330E+04  0.19030177330E+04  0.25500000000E-02 0. -1.
         -2   -1    0    0    0  501 -0.00000000000E+00 -0.00000000000E+00 -0.12741451907E+04  0.12741451907E+04  0.25500000000E-02 0.  1.
    8880022    1    1    2    0    0 -0.20328183335E+03 -0.11495378099E+04  0.13541079132E+04  0.17943691298E+04  0.15294330000E+03 0.  0.
    8880022    1    1    2    0    0  0.20328183335E+03  0.11495378099E+04 -0.72523537097E+03  0.13827937939E+04  0.15294330000E+03 0.  0.
<mgrwt>
<rscale>  0 0.11773497E+04</rscale>
<asrwt>0</asrwt>
<pdfrwt beam="1">  1        2 0.29277196E+00 0.11773497E+04</pdfrwt>
<pdfrwt beam="2">  1       -2 0.19602234E+00 0.11773497E+04</pdfrwt>
<totfact> 0.10405503E+00</totfact>
</mgrwt>
</event>
<event>
 4    1  0.1033139E-008  0.9608296E+03  0.7818608E-02  0.9352581E-01
          2   -1    0    0  501    0  0.00000000000E+00  0.00000000000E+00  0.80523017772E+03  0.80523017773E+03  0.25500000000E-02 0. -1.
         -2   -1    0    0    0  501 -0.00000000000E+00 -0.00000000000E+00 -0.21426159359E+04  0.21426159359E+04  0.25500000000E-02 0.  1.
    8880022    1    1    2    0    0  0.94650918873E+03 -0.62628042592E+02  0.33628929236E+03  0.10179803816E+04  0.15294330000E+03 0.  0.
    8880022    1    1    2    0    0 -0.94650918873E+03  0.62628042592E+02 -0.16736750506E+04  0.19298657321E+04  0.15294330000E+03 0.  0.
<mgrwt>
<rscale>  0 0.96082963E+03</rscale>
<asrwt>0</asrwt>
<pdfrwt beam="1">  1        2 0.12388157E+00 0.96082963E+03</pdfrwt>
<pdfrwt beam="2">  1       -2 0.32963322E+00 0.96082963E+03</pdfrwt>
<totfact> 0.72318904E-01</totfact>
</mgrwt>
</event>
<event>
 4    1  0.1033139E-008  0.1529938E+04  0.7818608E-02  0.8864785E-01
          2   -1    0    0  501    0  0.00000000000E+00  0.00000000000E+00  0.17034896997E+04  0.17034896997E+04  0.25500000000E-02 0. -1.
         -2   -1    0    0    0  501 -0.00000000000E+00 -0.00000000000E+00 -0.22395483349E+04  0.22395483349E+04  0.25500000000E-02 0.  1.
    8880022    1    1    2    0    0 -0.14265948621E+04  0.53117256800E+03 -0.14936317748E+04  0.21381404840E+04  0.15294330000E+03 0.  0.
    8880022    1    1    2    0    0  0.14265948621E+04 -0.53117256800E+03  0.95757313950E+03  0.18048975506E+04  0.15294330000E+03 0.  0.
<mgrwt>
<rscale>  0 0.15299375E+04</rscale>
<asrwt>0</asrwt>
<pdfrwt beam="1">  1        2 0.26207534E+00 0.15299375E+04</pdfrwt>
<pdfrwt beam="2">  1       -2 0.34454590E+00 0.15299375E+04</pdfrwt>
<totfact> 0.15404157E-01</totfact>
</mgrwt>
</event>
<event>
 4    1  0.1033139E-008  0.1314727E+04  0.7818608E-02  0.9017968E-01
         -2   -1    0    0    0  501 -0.00000000000E+00  0.00000000000E+00  0.16217573345E+04  0.16217573345E+04  0.25500000000E-02 0.  1.
          2   -1    0    0  501    0  0.00000000000E+00 -0.00000000000E+00 -0.20183505557E+04  0.20183505557E+04  0.25500000000E-02 0. -1.
    8880022    1    1    2    0    0 -0.27215292478E+03 -0.12771246914E+04  0.10520335987E+04  0.16838292781E+04  0.15294330000E+03 0.  0.
    8880022    1    1    2    0    0  0.27215292478E+03  0.12771246914E+04 -0.14486268199E+04  0.19562786121E+04  0.15294330000E+03 0.  0.
<mgrwt>
<rscale>  0 0.13147267E+04</rscale>
<asrwt>0</asrwt>
<pdfrwt beam="1">  1        2 0.31051547E+00 0.13147267E+04</pdfrwt>
<pdfrwt beam="2">  1       -2 0.24950113E+00 0.13147267E+04</pdfrwt>
<totfact> 0.40472879E-01</totfact>
</mgrwt>
</event>
<event>
 4    1  0.1033139E-008  0.4753247E+03  0.7818608E-02  0.1020428E+00
         -2   -1    0    0    0  501 -0.00000000000E+00  0.00000000000E+00  0.71517732897E+03  0.71517732897E+03  0.25500000000E-02 0.  1.
          2   -1    0    0  501    0  0.00000000000E+00 -0.00000000000E+00 -0.12074866061E+04  0.12074866061E+04  0.25500000000E-02 0. -1.
    8880022    1    1    2    0    0  0.44812031654E+03  0.41594108934E+02 -0.10722133554E+04  0.11728491039E+04  0.15294330000E+03 0. -1.
    8880022    1    1    2    0    0 -0.44812031654E+03 -0.41594108934E+02  0.57990407829E+03  0.74981483116E+03  0.15294330000E+03 0.  0.
<mgrwt>
<rscale>  0 0.47532467E+03</rscale>
<asrwt>0</asrwt>
<pdfrwt beam="1">  1        2 0.18576717E+00 0.47532467E+03</pdfrwt>
<pdfrwt beam="2">  1       -2 0.11002728E+00 0.47532467E+03</pdfrwt>
<totfact> 0.13087695E+01</totfact>
</mgrwt>
</event>
<event>
 4    1  0.1033139E-008  0.7545720E+03  0.7818608E-02  0.9628205E-01
         -2   -1    0    0    0  501 -0.00000000000E+00  0.00000000000E+00  0.51180976844E+03  0.51180976845E+03  0.25500000000E-02 0.  1.
          2   -1    0    0  501    0  0.00000000000E+00 -0.00000000000E+00 -0.21483782478E+04  0.21483782478E+04  0.25500000000E-02 0. -1.
    8880022    1    1    2    0    0 -0.64804425404E+03 -0.35500127971E+03 -0.17418869341E+04  0.18983016115E+04  0.15294330000E+03 0.  0.
    8880022    1    1    2    0    0  0.64804425404E+03  0.35500127971E+03  0.10531845482E+03  0.76188640474E+03  0.15294330000E+03 0.  0.
<mgrwt>
<rscale>  0 0.75457201E+03</rscale>
<asrwt>0</asrwt>
<pdfrwt beam="1">  1        2 0.33051973E+00 0.75457201E+03</pdfrwt>
<pdfrwt beam="2">  1       -2 0.78739965E-01 0.75457201E+03</pdfrwt>
<totfact> 0.82134042E+00</totfact>
</mgrwt>
</event>
<event>
 4    1  0.1033139E-008  0.2282281E+03  0.7818608E-02  0.1127893E+00
          2   -1    0    0  501    0  0.00000000000E+00  0.00000000000E+00  0.12493611017E+04  0.12493611017E+04  0.25500000000E-02 0. -1.
         -2   -1    0    0    0  501 -0.00000000000E+00 -0.00000000000E+00 -0.36952422415E+03  0.36952422415E+03  0.25500000000E-02 0.  1.
    8880022    1    1    2    0    0 -0.12774022432E+03  0.11126021363E+03  0.12023320101E+04  0.12238015834E+04  0.15294330000E+03 0. -1.
    8880022    1    1    2    0    0  0.12774022432E+03 -0.11126021363E+03 -0.32249513252E+03  0.39508374247E+03  0.15294330000E+03 0.  0.
<mgrwt>
<rscale>  0 0.22822807E+03</rscale>
<asrwt>0</asrwt>
<pdfrwt beam="1">  1        2 0.19220940E+00 0.22822807E+03</pdfrwt>
<pdfrwt beam="2">  1       -2 0.56849882E-01 0.22822807E+03</pdfrwt>
<totfact> 0.56936367E+01</totfact>
</mgrwt>
</event>
<event>
 4    1  0.1033139E-008  0.9113112E+03  0.7818608E-02  0.9411551E-01
         -2   -1    0    0    0  501 -0.00000000000E+00  0.00000000000E+00  0.75825561420E+03  0.75825561420E+03  0.25500000000E-02 0.  1.
          2   -1    0    0  501    0  0.00000000000E+00 -0.00000000000E+00 -0.20795819655E+04  0.20795819655E+04  0.25500000000E-02 0. -1.
    8880022    1    1    2    0    0 -0.65262239934E+03 -0.61739815678E+03 -0.16368608980E+04  0.18734464851E+04  0.15294330000E+03 0.  0.
    8880022    1    1    2    0    0  0.65262239934E+03  0.61739815678E+03  0.31553454671E+03  0.96439109458E+03  0.15294330000E+03 0.  0.
<mgrwt>
<rscale>  0 0.91131122E+03</rscale>
<asrwt>0</asrwt>
<pdfrwt beam="1">  1        2 0.31993568E+00 0.91131122E+03</pdfrwt>
<pdfrwt beam="2">  1       -2 0.11665471E+00 0.91131122E+03</pdfrwt>
<totfact> 0.34774153E+00</totfact>
</mgrwt>
</event>
<event>
 4    1  0.1033139E-008  0.6703499E+03  0.7818608E-02  0.9769326E-01
         -2   -1    0    0    0  501 -0.00000000000E+00  0.00000000000E+00  0.91672785825E+03  0.91672785825E+03  0.25500000000E-02 0.  1.
          2   -1    0    0  501    0  0.00000000000E+00 -0.00000000000E+00 -0.10163349463E+04  0.10163349463E+04  0.25500000000E-02 0. -1.
    8880022    1    1    2    0    0  0.30220277264E+03  0.57849016173E+03 -0.74522974309E+03  0.10023654054E+04  0.15294330000E+03 0.  0.
    8880022    1    1    2    0    0 -0.30220277264E+03 -0.57849016173E+03  0.64562265504E+03  0.93069739912E+03  0.15294330000E+03 0.  0.
<mgrwt>
<rscale>  0 0.67034994E+03</rscale>
<asrwt>0</asrwt>
<pdfrwt beam="1">  1        2 0.15635922E+00 0.67034994E+03</pdfrwt>
<pdfrwt beam="2">  1       -2 0.14103505E+00 0.67034994E+03</pdfrwt>
<totfact> 0.89119156E+00</totfact>
</mgrwt>
</event>
<event>
 4    1  0.1033139E-008  0.1216586E+04  0.7818608E-02  0.9098462E-01
         -2   -1    0    0    0  501 -0.00000000000E+00  0.00000000000E+00  0.10531795938E+04  0.10531795938E+04  0.25500000000E-02 0.  1.
          2   -1    0    0  501    0  0.00000000000E+00 -0.00000000000E+00 -0.16938690186E+04  0.16938690186E+04  0.25500000000E-02 0. -1.
    8880022    1    1    2    0    0 -0.82925230514E+03 -0.87694344651E+03  0.24653028326E+03  0.12413130256E+04  0.15294330000E+03 0.  0.
    8880022    1    1    2    0    0  0.82925230514E+03  0.87694344651E+03 -0.88721970804E+03  0.15057355868E+04  0.15294330000E+03 0.  0.
<mgrwt>
<rscale>  0 0.12165857E+04</rscale>
<asrwt>0</asrwt>
<pdfrwt beam="1">  1        2 0.26059523E+00 0.12165857E+04</pdfrwt>
<pdfrwt beam="2">  1       -2 0.16202763E+00 0.12165857E+04</pdfrwt>
<totfact> 0.23325149E+00</totfact>
</mgrwt>
</event>
<event>
 4    1  0.1033139E-008  0.8581163E+03  0.7818608E-02  0.9479508E-01
          2   -1    0    0  501    0  0.00000000000E+00  0.00000000000E+00  0.11399633026E+04  0.11399633026E+04  0.25500000000E-02 0. -1.
         -2   -1    0    0    0  501 -0.00000000000E+00 -0.00000000000E+00 -0.87680277338E+03  0.87680277338E+03  0.25500000000E-02 0.  1.
    8880022    1    1    2    0    0  0.84429053266E+03 -0.12058453489E+02 -0.38583424257E+03  0.94086748568E+03  0.15294330000E+03 0.  0.
    8880022    1    1    2    0    0 -0.84429053266E+03  0.12058453489E+02  0.64899477184E+03  0.10758985904E+04  0.15294330000E+03 0.  0.
<mgrwt>
<rscale>  0 0.85811629E+03</rscale>
<asrwt>0</asrwt>
<pdfrwt beam="1">  1        2 0.17537897E+00 0.85811629E+03</pdfrwt>
<pdfrwt beam="2">  1       -2 0.13489274E+00 0.85811629E+03</pdfrwt>
<totfact> 0.81913537E+00</totfact>
</mgrwt>
</event>
<event>
 4    1  0.1033139E-008  0.6928947E+03  0.7818608E-02  0.9729461E-01
          2   -1    0    0  501    0  0.00000000000E+00  0.00000000000E+00  0.96641410933E+03  0.96641410933E+03  0.25500000000E-02 0. -1.
         -2   -1    0    0    0  501 -0.00000000000E+00 -0.00000000000E+00 -0.71696179153E+03  0.71696179153E+03  0.25500000000E-02 0.  1.
    8880022    1    1    2    0    0  0.50324675866E+03 -0.45105886914E+03  0.59115542037E+03  0.91080611965E+03  0.15294330000E+03 0.  0.
    8880022    1    1    2    0    0 -0.50324675866E+03  0.45105886914E+03 -0.34170310257E+03  0.77256978122E+03  0.15294330000E+03 0.  0.
<mgrwt>
<rscale>  0 0.69289469E+03</rscale>
<asrwt>0</asrwt>
<pdfrwt beam="1">  1        2 0.14867909E+00 0.69289469E+03</pdfrwt>
<pdfrwt beam="2">  1       -2 0.11030181E+00 0.69289469E+03</pdfrwt>
<totfact> 0.17678248E+01</totfact>
</mgrwt>
</event>
<event>
 4    1  0.1033139E-008  0.6038888E+03  0.7818608E-02  0.9897371E-01
          2   -1    0    0  501    0  0.00000000000E+00  0.00000000000E+00  0.46761190832E+03  0.46761190833E+03  0.25500000000E-02 0. -1.
         -2   -1    0    0    0  501 -0.00000000000E+00 -0.00000000000E+00 -0.91036767185E+03  0.91036767185E+03  0.25500000000E-02 0.  1.
    8880022    1    1    2    0    0 -0.50233743226E+03 -0.29823996194E+03 -0.48222588539E+03  0.77280232162E+03  0.15294330000E+03 0.  0.
    8880022    1    1    2    0    0  0.50233743226E+03  0.29823996194E+03  0.39470121869E+02  0.60517725856E+03  0.15294330000E+03 0.  0.
<mgrwt>
<rscale>  0 0.60388875E+03</rscale>
<asrwt>0</asrwt>
<pdfrwt beam="1">  1        2 0.71940294E-01 0.60388875E+03</pdfrwt>
<pdfrwt beam="2">  1       -2 0.14005656E+00 0.60388875E+03</pdfrwt>
<totfact> 0.24501771E+01</totfact>
</mgrwt>
</event>
<event>
 4    1  0.1033139E-008  0.5905480E+03  0.7818608E-02  0.9925212E-01
          2   -1    0    0  501    0  0.00000000000E+00  0.00000000000E+00  0.17794172102E+04  0.17794172102E+04  0.25500000000E-02 0. -1.
         -2   -1    0    0    0  501 -0.00000000000E+00 -0.00000000000E+00 -0.30361464879E+03  0.30361464881E+03  0.25500000000E-02 0.  1.
    8880022    1    1    2    0    0  0.56485437289E+03 -0.79339771583E+02  0.13580011447E+04  0.14808490888E+04  0.15294330000E+03 0.  0.
    8880022    1    1    2    0    0 -0.56485437289E+03  0.79339771583E+02  0.11780141676E+03  0.60218277021E+03  0.15294330000E+03 0.  0.
<mgrwt>
<rscale>  0 0.59054798E+03</rscale>
<asrwt>0</asrwt>
<pdfrwt beam="1">  1        2 0.27375650E+00 0.59054798E+03</pdfrwt>
<pdfrwt beam="2">  1       -2 0.46709945E-01 0.59054798E+03</pdfrwt>
<totfact> 0.40385731E+01</totfact>
</mgrwt>
</event>
<event>
 4    1  0.1033139E-008  0.3244671E+03  0.7818608E-02  0.1073612E+00
          2   -1    0    0  501    0  0.00000000000E+00  0.00000000000E+00  0.21060242372E+04  0.21060242372E+04  0.25500000000E-02 0. -1.
         -2   -1    0    0    0  501 -0.00000000000E+00 -0.00000000000E+00 -0.22321760425E+03  0.22321760427E+03  0.25500000000E-02 0.  1.
    8880022    1    1    2    0    0 -0.25601054432E+03 -0.12785095602E+03  0.19673614749E+04  0.19939383370E+04  0.15294330000E+03 0.  0.
    8880022    1    1    2    0    0  0.25601054432E+03  0.12785095602E+03 -0.84554842007E+02  0.33530350443E+03  0.15294330000E+03 0.  1.
<mgrwt>
<rscale>  0 0.32446713E+03</rscale>
<asrwt>0</asrwt>
<pdfrwt beam="1">  1        2 0.32400372E+00 0.32446713E+03</pdfrwt>
<pdfrwt beam="2">  1       -2 0.34341171E-01 0.32446713E+03</pdfrwt>
<totfact> 0.51722840E+01</totfact>
</mgrwt>
</event>
<event>
 4    1  0.1033139E-008  0.3350468E+03  0.7818608E-02  0.1068925E+00
         -2   -1    0    0    0  501 -0.00000000000E+00  0.00000000000E+00  0.80910151486E+03  0.80910151487E+03  0.25500000000E-02 0.  1.
          2   -1    0    0  501    0  0.00000000000E+00 -0.00000000000E+00 -0.19211739031E+04  0.19211739031E+04  0.25500000000E-02 0. -1.
    8880022    1    1    2    0    0 -0.27352261411E+03  0.11853291317E+03  0.75888462927E+03  0.82955542641E+03  0.15294330000E+03 0.  0.
    8880022    1    1    2    0    0  0.27352261411E+03 -0.11853291317E+03 -0.18709570175E+04  0.19007199915E+04  0.15294330000E+03 0.  0.
<mgrwt>
<rscale>  0 0.33504675E+03</rscale>
<asrwt>0</asrwt>
<pdfrwt beam="1">  1        2 0.29556521E+00 0.33504675E+03</pdfrwt>
<pdfrwt beam="2">  1       -2 0.12447716E+00 0.33504675E+03</pdfrwt>
<totfact> 0.41131253E+00</totfact>
</mgrwt>
</event>
<event>
 4    1  0.1033139E-008  0.1438932E+04  0.7818608E-02  0.8926110E-01
          2   -1    0    0  501    0  0.00000000000E+00  0.00000000000E+00  0.32577429778E+04  0.32577429779E+04  0.25500000000E-02 0. -1.
         -2   -1    0    0    0  501 -0.00000000000E+00 -0.00000000000E+00 -0.92823671387E+03  0.92823671387E+03  0.25500000000E-02 0.  1.
    8880022    1    1    2    0    0  0.10313855709E+04  0.99165369625E+03  0.23399865800E+04  0.27470096645E+04  0.15294330000E+03 0.  0.
    8880022    1    1    2    0    0 -0.10313855709E+04 -0.99165369625E+03 -0.10480316050E+02  0.14389700272E+04  0.15294330000E+03 0.  0.
<mgrwt>
<rscale>  0 0.14389319E+04</rscale>
<asrwt>0</asrwt>
<pdfrwt beam="1">  1        2 0.50119123E+00 0.14389319E+04</pdfrwt>
<pdfrwt beam="2">  1       -2 0.14280565E+00 0.14389319E+04</pdfrwt>
<totfact> 0.38839740E-01</totfact>
</mgrwt>
</event>
<event>
 4    1  0.1033139E-008  0.1013332E+04  0.7818608E-02  0.9294042E-01
          2   -1    0    0  501    0  0.00000000000E+00  0.00000000000E+00  0.24060046510E+04  0.24060046510E+04  0.25500000000E-02 0. -1.
         -2   -1    0    0    0  501 -0.00000000000E+00 -0.00000000000E+00 -0.11032792544E+04  0.11032792544E+04  0.25500000000E-02 0.  1.
    8880022    1    1    2    0    0  0.31437519534E+03 -0.95111396151E+03 -0.72261149085E+03  0.12445917206E+04  0.15294330000E+03 0.  0.
    8880022    1    1    2    0    0 -0.31437519534E+03  0.95111396151E+03  0.20253368875E+04  0.22646921848E+04  0.15294330000E+03 0.  0.
<mgrwt>
<rscale>  0 0.10133317E+04</rscale>
<asrwt>0</asrwt>
<pdfrwt beam="1">  1        2 0.37015456E+00 0.10133317E+04</pdfrwt>
<pdfrwt beam="2">  1       -2 0.16973527E+00 0.10133317E+04</pdfrwt>
<totfact> 0.84580878E-01</totfact>
</mgrwt>
</event>
<event>
 4    1  0.1033139E-008  0.5710081E+03  0.7818608E-02  0.9967450E-01
          2   -1    0    0  501    0  0.00000000000E+00  0.00000000000E+00  0.26698865868E+04  0.26698865868E+04  0.25500000000E-02 0. -1.
         -2   -1    0    0    0  501 -0.00000000000E+00 -0.00000000000E+00 -0.23997645993E+03  0.23997645994E+03  0.25500000000E-02 0.  1.
    8880022    1    1    2    0    0 -0.59024695734E+02  0.54696865244E+03  0.19534912048E+03  0.60349942282E+03  0.15294330000E+03 0.  0.
    8880022    1    1    2    0    0  0.59024695734E+02 -0.54696865244E+03  0.22345610063E+04  0.23063636239E+04  0.15294330000E+03 0.  0.
<mgrwt>
<rscale>  0 0.57100812E+03</rscale>
<asrwt>0</asrwt>
<pdfrwt beam="1">  1        2 0.41075181E+00 0.57100812E+03</pdfrwt>
<pdfrwt beam="2">  1       -2 0.36919453E-01 0.57100812E+03</pdfrwt>
<totfact> 0.20746299E+01</totfact>
</mgrwt>
</event>
<event>
 4    1  0.1033139E-008  0.6598090E+03  0.7818608E-02  0.9788545E-01
         -2   -1    0    0    0  501 -0.00000000000E+00  0.00000000000E+00  0.17061640538E+04  0.17061640538E+04  0.25500000000E-02 0.  1.
          2   -1    0    0  501    0  0.00000000000E+00 -0.00000000000E+00 -0.62118858773E+03  0.62118858773E+03  0.25500000000E-02 0. -1.
    8880022    1    1    2    0    0  0.17541861880E+03 -0.61740148521E+03  0.14357456654E+04  0.15800992230E+04  0.15294330000E+03 0.  0.
    8880022    1    1    2    0    0 -0.17541861880E+03  0.61740148521E+03 -0.35077019933E+03  0.74725341854E+03  0.15294330000E+03 0.  0.
<mgrwt>
<rscale>  0 0.65980902E+03</rscale>
<asrwt>0</asrwt>
<pdfrwt beam="1">  1        2 0.95567475E-01 0.65980902E+03</pdfrwt>
<pdfrwt beam="2">  1       -2 0.26248678E+00 0.65980902E+03</pdfrwt>
<totfact> 0.26844372E+00</totfact>
</mgrwt>
</event>
<event>
 4    1  0.1033139E-008  0.8637369E+03  0.7818608E-02  0.9472083E-01
         -2   -1    0    0    0  501 -0.00000000000E+00  0.00000000000E+00  0.11254202496E+04  0.11254202496E+04  0.25500000000E-02 0.  1.
          2   -1    0    0  501    0  0.00000000000E+00 -0.00000000000E+00 -0.75977482805E+03  0.75977482806E+03  0.25500000000E-02 0. -1.
    8880022    1    1    2    0    0 -0.48290920763E+03  0.69960592599E+03 -0.15375757741E+03  0.87731567872E+03  0.15294330000E+03 0.  0.
    8880022    1    1    2    0    0  0.48290920763E+03 -0.69960592599E+03  0.51940299898E+03  0.10078793990E+04  0.15294330000E+03 0.  0.
<mgrwt>
<rscale>  0 0.86373689E+03</rscale>
<asrwt>0</asrwt>
<pdfrwt beam="1">  1        2 0.11688844E+00 0.86373689E+03</pdfrwt>
<pdfrwt beam="2">  1       -2 0.17314158E+00 0.86373689E+03</pdfrwt>
<totfact> 0.75045735E+00</totfact>
</mgrwt>
</event>
<event>
 4    1  0.1033139E-008  0.1231496E+04  0.7818608E-02  0.9085727E-01
         -2   -1    0    0    0  501 -0.00000000000E+00  0.00000000000E+00  0.10821117643E+04  0.10821117643E+04  0.25500000000E-02 0.  1.
          2   -1    0    0  501    0  0.00000000000E+00 -0.00000000000E+00 -0.24135892080E+04  0.24135892080E+04  0.25500000000E-02 0. -1.
    8880022    1    1    2    0    0 -0.84656761388E+03  0.88119986540E+03  0.46609235365E+03  0.13167473800E+04  0.15294330000E+03 0.  0.
    8880022    1    1    2    0    0  0.84656761388E+03 -0.88119986540E+03 -0.17975697974E+04  0.21789535922E+04  0.15294330000E+03 0.  0.
<mgrwt>
<rscale>  0 0.12314957E+04</rscale>
<asrwt>0</asrwt>
<pdfrwt beam="1">  1        2 0.37132142E+00 0.12314957E+04</pdfrwt>
<pdfrwt beam="2">  1       -2 0.16647873E+00 0.12314957E+04</pdfrwt>
<totfact> 0.85711480E-01</totfact>
</mgrwt>
</event>
<event>
 4    1  0.1033139E-008  0.7584115E+03  0.7818608E-02  0.9622246E-01
         -2   -1    0    0    0  501 -0.00000000000E+00  0.00000000000E+00  0.56405984033E+03  0.56405984033E+03  0.25500000000E-02 0.  1.
          2   -1    0    0  501    0  0.00000000000E+00 -0.00000000000E+00 -0.21645770052E+04  0.21645770052E+04  0.25500000000E-02 0. -1.
    8880022    1    1    2    0    0  0.43036253244E+03  0.60546221497E+03  0.19195045812E+03  0.78232540191E+03  0.15294330000E+03 0.  0.
    8880022    1    1    2    0    0 -0.43036253244E+03 -0.60546221497E+03 -0.17924676230E+04  0.19463114436E+04  0.15294330000E+03 0.  0.
<mgrwt>
<rscale>  0 0.75841153E+03</rscale>
<asrwt>0</asrwt>
<pdfrwt beam="1">  1        2 0.33301184E+00 0.75841153E+03</pdfrwt>
<pdfrwt beam="2">  1       -2 0.86778438E-01 0.75841153E+03</pdfrwt>
<totfact> 0.64528241E+00</totfact>
</mgrwt>
</event>
<event>
 4    1  0.1033139E-008  0.1705116E+04  0.7818608E-02  0.8758452E-01
          2   -1    0    0  501    0  0.00000000000E+00  0.00000000000E+00  0.23996714862E+04  0.23996714862E+04  0.25500000000E-02 0. -1.
         -2   -1    0    0    0  501 -0.00000000000E+00 -0.00000000000E+00 -0.18741543884E+04  0.18741543884E+04  0.25500000000E-02 0.  1.
    8880022    1    1    2    0    0  0.64191252186E+03  0.15722517600E+04  0.15333269786E+04  0.22931442517E+04  0.15294330000E+03 0.  0.
    8880022    1    1    2    0    0 -0.64191252186E+03 -0.15722517600E+04 -0.10078098807E+04  0.19806816229E+04  0.15294330000E+03 0.  0.
<mgrwt>
<rscale>  0 0.17051155E+04</rscale>
<asrwt>0</asrwt>
<pdfrwt beam="1">  1        2 0.36918023E+00 0.17051155E+04</pdfrwt>
<pdfrwt beam="2">  1       -2 0.28833145E+00 0.17051155E+04</pdfrwt>
<totfact> 0.13633860E-01</totfact>
</mgrwt>
</event>
<event>
 4    1  0.1033139E-008  0.1993854E+03  0.7818608E-02  0.1150259E+00
          2   -1    0    0  501    0  0.00000000000E+00  0.00000000000E+00  0.35637890952E+04  0.35637890952E+04  0.25500000000E-02 0. -1.
         -2   -1    0    0    0  501 -0.00000000000E+00 -0.00000000000E+00 -0.27755496205E+03  0.27755496206E+03  0.25500000000E-02 0.  1.
    8880022    1    1    2    0    0 -0.18489061395E+02  0.12657431000E+03 -0.23856255522E+03  0.31091260365E+03  0.15294330000E+03 0.  1.
    8880022    1    1    2    0    0  0.18489061395E+02 -0.12657431000E+03  0.35247966884E+04  0.35304314536E+04  0.15294330000E+03 0.  0.
<mgrwt>
<rscale>  0 0.19938544E+03</rscale>
<asrwt>0</asrwt>
<pdfrwt beam="1">  1        2 0.54827526E+00 0.19938544E+03</pdfrwt>
<pdfrwt beam="2">  1       -2 0.42700762E-01 0.19938544E+03</pdfrwt>
<totfact> 0.51620283E+00</totfact>
</mgrwt>
</event>
<event>
 4    1  0.1033139E-008  0.1210873E+04  0.7818608E-02  0.9103392E-01
          2   -1    0    0  501    0  0.00000000000E+00  0.00000000000E+00  0.27518431675E+04  0.27518431675E+04  0.25500000000E-02 0. -1.
         -2   -1    0    0    0  501 -0.00000000000E+00 -0.00000000000E+00 -0.11163299626E+04  0.11163299626E+04  0.25500000000E-02 0.  1.
    8880022    1    1    2    0    0 -0.11988739592E+04  0.74315028354E+02 -0.58056475579E+03  0.13428583627E+04  0.15294330000E+03 0.  0.
    8880022    1    1    2    0    0  0.11988739592E+04 -0.74315028354E+02  0.22160779607E+04  0.25253147674E+04  0.15294330000E+03 0. -1.
<mgrwt>
<rscale>  0 0.12108729E+04</rscale>
<asrwt>0</asrwt>
<pdfrwt beam="1">  1        2 0.42336049E+00 0.12108729E+04</pdfrwt>
<pdfrwt beam="2">  1       -2 0.17174307E+00 0.12108729E+04</pdfrwt>
<totfact> 0.50097450E-01</totfact>
</mgrwt>
</event>
<event>
 4    1  0.1033139E-008  0.9693039E+03  0.7818608E-02  0.9342868E-01
          2   -1    0    0  501    0  0.00000000000E+00  0.00000000000E+00  0.31014643055E+04  0.31014643055E+04  0.25500000000E-02 0. -1.
         -2   -1    0    0    0  501 -0.00000000000E+00 -0.00000000000E+00 -0.59600571260E+03  0.59600571261E+03  0.25500000000E-02 0.  1.
    8880022    1    1    2    0    0  0.49556505745E+03 -0.81888565108E+03 -0.43654975269E+02  0.97028647604E+03  0.15294330000E+03 0.  0.
    8880022    1    1    2    0    0 -0.49556505745E+03  0.81888565108E+03  0.25491135682E+04  0.27271835421E+04  0.15294330000E+03 0.  0.
<mgrwt>
<rscale>  0 0.96930392E+03</rscale>
<asrwt>0</asrwt>
<pdfrwt beam="1">  1        2 0.47714835E+00 0.96930392E+03</pdfrwt>
<pdfrwt beam="2">  1       -2 0.91693188E-01 0.96930392E+03</pdfrwt>
<totfact> 0.15624325E+00</totfact>
</mgrwt>
</event>
<event>
 4    1  0.1033139E-008  0.1529469E+04  0.7818608E-02  0.8865090E-01
         -2   -1    0    0    0  501 -0.00000000000E+00  0.00000000000E+00  0.12937738824E+04  0.12937738824E+04  0.25500000000E-02 0.  1.
          2   -1    0    0  501    0  0.00000000000E+00 -0.00000000000E+00 -0.21349449122E+04  0.21349449122E+04  0.25500000000E-02 0. -1.
    8880022    1    1    2    0    0  0.59042745237E+03  0.14025970566E+04  0.25019167022E+03  0.15497969559E+04  0.15294330000E+03 0.  0.
    8880022    1    1    2    0    0 -0.59042745237E+03 -0.14025970566E+04 -0.10913627000E+04  0.18789218386E+04  0.15294330000E+03 0.  0.
<mgrwt>
<rscale>  0 0.15294688E+04</rscale>
<asrwt>0</asrwt>
<pdfrwt beam="1">  1        2 0.32845306E+00 0.15294688E+04</pdfrwt>
<pdfrwt beam="2">  1       -2 0.19904214E+00 0.15294688E+04</pdfrwt>
<totfact> 0.70979720E-01</totfact>
</mgrwt>
</event>
<event>
 4    1  0.1033139E-008  0.7910705E+03  0.7818608E-02  0.9573033E-01
          2   -1    0    0  501    0  0.00000000000E+00  0.00000000000E+00  0.26604434708E+04  0.26604434708E+04  0.25500000000E-02 0. -1.
         -2   -1    0    0    0  501 -0.00000000000E+00 -0.00000000000E+00 -0.47107556292E+03  0.47107556292E+03  0.25500000000E-02 0.  1.
    8880022    1    1    2    0    0 -0.70630156787E+03  0.32177471122E+03  0.22025870927E+04  0.23403381003E+04  0.15294330000E+03 0.  0.
    8880022    1    1    2    0    0  0.70630156787E+03 -0.32177471122E+03 -0.13219184861E+02  0.79118093343E+03  0.15294330000E+03 0.  0.
<mgrwt>
<rscale>  0 0.79107049E+03</rscale>
<asrwt>0</asrwt>
<pdfrwt beam="1">  1        2 0.40929900E+00 0.79107049E+03</pdfrwt>
<pdfrwt beam="2">  1       -2 0.72473163E-01 0.79107049E+03</pdfrwt>
<totfact> 0.50561181E+00</totfact>
</mgrwt>
</event>
<event>
 4    1  0.1033139E-008  0.4585471E+03  0.7818608E-02  0.1025203E+00
          2   -1    0    0  501    0  0.00000000000E+00  0.00000000000E+00  0.22306166104E+04  0.22306166104E+04  0.25500000000E-02 0. -1.
         -2   -1    0    0    0  501 -0.00000000000E+00 -0.00000000000E+00 -0.14878752531E+03  0.14878752533E+03  0.25500000000E-02 0.  1.
    8880022    1    1    2    0    0 -0.38814024575E+03 -0.19031811018E+03  0.17611082864E+04  0.18198263332E+04  0.15294330000E+03 0.  0.
    8880022    1    1    2    0    0  0.38814024575E+03  0.19031811018E+03  0.32072079875E+03  0.55957780263E+03  0.15294330000E+03 0.  0.
<mgrwt>
<rscale>  0 0.45854715E+03</rscale>
<asrwt>0</asrwt>
<pdfrwt beam="1">  1        2 0.34317177E+00 0.45854715E+03</pdfrwt>
<pdfrwt beam="2">  1       -2 0.22890390E-01 0.45854715E+03</pdfrwt>
<totfact> 0.89751782E+01</totfact>
</mgrwt>
</event>
<event>
 4    1  0.1033139E-008  0.6527083E+03  0.7818608E-02  0.9801711E-01
         -2   -1    0    0    0  501 -0.00000000000E+00  0.00000000000E+00  0.13947631752E+04  0.13947631752E+04  0.25500000000E-02 0.  1.
          2   -1    0    0  501    0  0.00000000000E+00 -0.00000000000E+00 -0.91851715081E+03  0.91851715081E+03  0.25500000000E-02 0. -1.
    8880022    1    1    2    0    0  0.30625867866E+03  0.55573559644E+03  0.11830739229E+04  0.13511817019E+04  0.15294330000E+03 0.  0.
    8880022    1    1    2    0    0 -0.30625867866E+03 -0.55573559644E+03 -0.70682789853E+03  0.96209862413E+03  0.15294330000E+03 0.  0.
<mgrwt>
<rscale>  0 0.65270827E+03</rscale>
<asrwt>0</asrwt>
<pdfrwt beam="1">  1        2 0.14131033E+00 0.65270827E+03</pdfrwt>
<pdfrwt beam="2">  1       -2 0.21457895E+00 0.65270827E+03</pdfrwt>
<totfact> 0.31763050E+00</totfact>
</mgrwt>
</event>
<event>
 4    1  0.1033139E-008  0.2516360E+03  0.7818608E-02  0.1112275E+00
          2   -1    0    0  501    0  0.00000000000E+00  0.00000000000E+00  0.68866621658E+03  0.68866621658E+03  0.25500000000E-02 0. -1.
         -2   -1    0    0    0  501 -0.00000000000E+00 -0.00000000000E+00 -0.11777025591E+04  0.11777025591E+04  0.25500000000E-02 0.  1.
    8880022    1    1    2    0    0  0.15835888090E+03 -0.12186660335E+03  0.65149774696E+03  0.69840530602E+03  0.15294330000E+03 0.  0.
    8880022    1    1    2    0    0 -0.15835888090E+03  0.12186660335E+03 -0.11405340895E+04  0.11679634697E+04  0.15294330000E+03 0.  0.
<mgrwt>
<rscale>  0 0.25163596E+03</rscale>
<asrwt>0</asrwt>
<pdfrwt beam="1">  1        2 0.10594865E+00 0.25163596E+03</pdfrwt>
<pdfrwt beam="2">  1       -2 0.18118501E+00 0.25163596E+03</pdfrwt>
<totfact> 0.83523351E+00</totfact>
</mgrwt>
</event>
<event>
 4    1  0.1033139E-008  0.7297354E+03  0.7818608E-02  0.9667690E-01
         -2   -1    0    0    0  501 -0.00000000000E+00  0.00000000000E+00  0.24250670349E+03  0.24250670351E+03  0.25500000000E-02 0.  1.
          2   -1    0    0  501    0  0.00000000000E+00 -0.00000000000E+00 -0.22853758976E+04  0.22853758976E+04  0.25500000000E-02 0. -1.
    8880022    1    1    2    0    0  0.43708651375E+03  0.56398356912E+03 -0.77130305516E+03  0.10618013668E+04  0.15294330000E+03 0.  0.
    8880022    1    1    2    0    0 -0.43708651375E+03 -0.56398356912E+03 -0.12715661390E+04  0.14660812343E+04  0.15294330000E+03 0.  0.
<mgrwt>
<rscale>  0 0.72973539E+03</rscale>
<asrwt>0</asrwt>
<pdfrwt beam="1">  1        2 0.35159628E+00 0.72973539E+03</pdfrwt>
<pdfrwt beam="2">  1       -2 0.37308725E-01 0.72973539E+03</pdfrwt>
<totfact> 0.32585086E+01</totfact>
</mgrwt>
</event>
<event>
 4    1  0.1033139E-008  0.1374173E+04  0.7818608E-02  0.8972728E-01
          2   -1    0    0  501    0  0.00000000000E+00  0.00000000000E+00  0.20246285785E+04  0.20246285785E+04  0.25500000000E-02 0. -1.
         -2   -1    0    0    0  501 -0.00000000000E+00 -0.00000000000E+00 -0.16899783001E+04  0.16899783001E+04  0.25500000000E-02 0.  1.
    8880022    1    1    2    0    0  0.13377710758E+04  0.27446088053E+03  0.14106160929E+04  0.19693119714E+04  0.15294330000E+03 0.  0.
    8880022    1    1    2    0    0 -0.13377710758E+04 -0.27446088053E+03 -0.10759658145E+04  0.17452949072E+04  0.15294330000E+03 0.  0.
<mgrwt>
<rscale>  0 0.13741732E+04</rscale>
<asrwt>0</asrwt>
<pdfrwt beam="1">  1        2 0.31148132E+00 0.13741732E+04</pdfrwt>
<pdfrwt beam="2">  1       -2 0.25999666E+00 0.13741732E+04</pdfrwt>
<totfact> 0.34368889E-01</totfact>
</mgrwt>
</event>
<event>
 4    1  0.1033139E-008  0.8008576E+03  0.7818608E-02  0.9558777E-01
         -2   -1    0    0    0  501 -0.00000000000E+00  0.00000000000E+00  0.13972179991E+04  0.13972179991E+04  0.25500000000E-02 0.  1.
          2   -1    0    0  501    0  0.00000000000E+00 -0.00000000000E+00 -0.93246328308E+03  0.93246328309E+03  0.25500000000E-02 0. -1.
    8880022    1    1    2    0    0 -0.72827302325E+03 -0.29597231547E+03 -0.59762141459E+03  0.99926183562E+03  0.15294330000E+03 0.  0.
    8880022    1    1    2    0    0  0.72827302325E+03  0.29597231547E+03  0.10623761306E+04  0.13304194466E+04  0.15294330000E+03 0.  0.
<mgrwt>
<rscale>  0 0.80085758E+03</rscale>
<asrwt>0</asrwt>
<pdfrwt beam="1">  1        2 0.14345589E+00 0.80085758E+03</pdfrwt>
<pdfrwt beam="2">  1       -2 0.21495662E+00 0.80085758E+03</pdfrwt>
<totfact> 0.30221061E+00</totfact>
</mgrwt>
</event>
<event>
 4    1  0.1033139E-008  0.8508014E+03  0.7818608E-02  0.9489262E-01
          2   -1    0    0  501    0  0.00000000000E+00  0.00000000000E+00  0.14331369766E+04  0.14331369767E+04  0.25500000000E-02 0. -1.
         -2   -1    0    0    0  501 -0.00000000000E+00 -0.00000000000E+00 -0.66338486486E+03  0.66338486486E+03  0.25500000000E-02 0.  1.
    8880022    1    1    2    0    0 -0.11325609777E+03  0.82924323606E+03 -0.12718321614E+03  0.86025491089E+03  0.15294330000E+03 0.  0.
    8880022    1    1    2    0    0  0.11325609777E+03 -0.82924323606E+03  0.89693532793E+03  0.12362669306E+04  0.15294330000E+03 0.  0.
<mgrwt>
<rscale>  0 0.85080135E+03</rscale>
<asrwt>0</asrwt>
<pdfrwt beam="1">  1        2 0.22048261E+00 0.85080135E+03</pdfrwt>
<pdfrwt beam="2">  1       -2 0.10205921E+00 0.85080135E+03</pdfrwt>
<totfact> 0.11017448E+01</totfact>
</mgrwt>
</event>
<event>
 4    1  0.1033139E-008  0.2999714E+03  0.7818608E-02  0.1085255E+00
          2   -1    0    0  501    0  0.00000000000E+00  0.00000000000E+00  0.77134721637E+03  0.77134721637E+03  0.25500000000E-02 0. -1.
         -2   -1    0    0    0  501 -0.00000000000E+00 -0.00000000000E+00 -0.67102025744E+03  0.67102025744E+03  0.25500000000E-02 0.  1.
    8880022    1    1    2    0    0  0.20767651593E+03  0.15317204369E+03 -0.60534063786E+03  0.67558874406E+03  0.15294330000E+03 0.  1.
    8880022    1    1    2    0    0 -0.20767651593E+03 -0.15317204369E+03  0.70566759679E+03  0.76677872976E+03  0.15294330000E+03 0.  0.
<mgrwt>
<rscale>  0 0.29997144E+03</rscale>
<asrwt>0</asrwt>
<pdfrwt beam="1">  1        2 0.11866880E+00 0.29997144E+03</pdfrwt>
<pdfrwt beam="2">  1       -2 0.10323389E+00 0.29997144E+03</pdfrwt>
<totfact> 0.29834539E+01</totfact>
</mgrwt>
</event>
<event>
 4    1  0.1033139E-008  0.9077041E+03  0.7818608E-02  0.9416002E-01
         -2   -1    0    0    0  501 -0.00000000000E+00  0.00000000000E+00  0.67824949989E+03  0.67824949989E+03  0.25500000000E-02 0.  1.
          2   -1    0    0  501    0  0.00000000000E+00 -0.00000000000E+00 -0.22957691685E+04  0.22957691685E+04  0.25500000000E-02 0. -1.
    8880022    1    1    2    0    0 -0.13266194008E+03 -0.88483669169E+03  0.21161420653E+03  0.93204473430E+03  0.15294330000E+03 0.  0.
    8880022    1    1    2    0    0  0.13266194008E+03  0.88483669169E+03 -0.18291338752E+04  0.20419739341E+04  0.15294330000E+03 0.  0.
<mgrwt>
<rscale>  0 0.90770414E+03</rscale>
<asrwt>0</asrwt>
<pdfrwt beam="1">  1        2 0.35319525E+00 0.90770414E+03</pdfrwt>
<pdfrwt beam="2">  1       -2 0.10434608E+00 0.90770414E+03</pdfrwt>
<totfact> 0.34619024E+00</totfact>
</mgrwt>
</event>
<event>
 4    1  0.1033139E-008  0.1168875E+04  0.7818608E-02  0.9140545E-01
         -2   -1    0    0    0  501 -0.00000000000E+00  0.00000000000E+00  0.13730936156E+04  0.13730936156E+04  0.25500000000E-02 0.  1.
          2   -1    0    0  501    0  0.00000000000E+00 -0.00000000000E+00 -0.18921988639E+04  0.18921988639E+04  0.25500000000E-02 0. -1.
    8880022    1    1    2    0    0  0.10130077976E+04  0.56275328300E+03  0.86465386519E+03  0.14539236621E+04  0.15294330000E+03 0.  0.
    8880022    1    1    2    0    0 -0.10130077976E+04 -0.56275328300E+03 -0.13837591134E+04  0.18113688174E+04  0.15294330000E+03 0.  0.
<mgrwt>
<rscale>  0 0.11688745E+04</rscale>
<asrwt>0</asrwt>
<pdfrwt beam="1">  1        2 0.29110752E+00 0.11688745E+04</pdfrwt>
<pdfrwt beam="2">  1       -2 0.21124517E+00 0.11688745E+04</pdfrwt>
<totfact> 0.84041264E-01</totfact>
</mgrwt>
</event>
<event>
 4    1  0.1033139E-008  0.4169969E+03  0.7818608E-02  0.1038048E+00
          2   -1    0    0  501    0  0.00000000000E+00  0.00000000000E+00  0.15215772417E+04  0.15215772417E+04  0.25500000000E-02 0. -1.
         -2   -1    0    0    0  501 -0.00000000000E+00 -0.00000000000E+00 -0.11536482395E+04  0.11536482395E+04  0.25500000000E-02 0.  1.
    8880022    1    1    2    0    0  0.29775493507E+03 -0.24866994296E+03 -0.10856688982E+04  0.11629975715E+04  0.15294330000E+03 0.  0.
    8880022    1    1    2    0    0 -0.29775493507E+03  0.24866994296E+03  0.14535979004E+04  0.15122279097E+04  0.15294330000E+03 0.  0.
<mgrwt>
<rscale>  0 0.41699688E+03</rscale>
<asrwt>0</asrwt>
<pdfrwt beam="1">  1        2 0.23408881E+00 0.41699688E+03</pdfrwt>
<pdfrwt beam="2">  1       -2 0.17748434E+00 0.41699688E+03</pdfrwt>
<totfact> 0.25882333E+00</totfact>
</mgrwt>
</event>
<event>
 4    1  0.1033139E-008  0.1029585E+04  0.7818608E-02  0.9276679E-01
         -2   -1    0    0    0  501 -0.00000000000E+00  0.00000000000E+00  0.12732962812E+04  0.12732962812E+04  0.25500000000E-02 0.  1.
          2   -1    0    0  501    0  0.00000000000E+00 -0.00000000000E+00 -0.10411671994E+04  0.10411671994E+04  0.25500000000E-02 0. -1.
    8880022    1    1    2    0    0  0.62006296173E+03 -0.80757376650E+03 -0.40197865143E+03  0.11052746057E+04  0.15294330000E+03 0.  0.
    8880022    1    1    2    0    0 -0.62006296173E+03  0.80757376650E+03  0.63410773324E+03  0.12091888749E+04  0.15294330000E+03 0.  0.
<mgrwt>
<rscale>  0 0.10295849E+04</rscale>
<asrwt>0</asrwt>
<pdfrwt beam="1">  1        2 0.16017957E+00 0.10295849E+04</pdfrwt>
<pdfrwt beam="2">  1       -2 0.19589173E+00 0.10295849E+04</pdfrwt>
<totfact> 0.33189650E+00</totfact>
</mgrwt>
</event>
<event>
 4    1  0.1033139E-008  0.6000181E+03  0.7818608E-02  0.9905368E-01
         -2   -1    0    0    0  501 -0.00000000000E+00  0.00000000000E+00  0.29741741221E+03  0.29741741222E+03  0.25500000000E-02 0.  1.
          2   -1    0    0  501    0  0.00000000000E+00 -0.00000000000E+00 -0.28545540445E+04  0.28545540445E+04  0.25500000000E-02 0. -1.
    8880022    1    1    2    0    0 -0.46904655100E+03  0.34150462770E+03 -0.24745983881E+04  0.25463029893E+04  0.15294330000E+03 0.  0.
    8880022    1    1    2    0    0  0.46904655100E+03 -0.34150462770E+03 -0.82538244225E+02  0.60566846750E+03  0.15294330000E+03 0.  0.
<mgrwt>
<rscale>  0 0.60001811E+03</rscale>
<asrwt>0</asrwt>
<pdfrwt beam="1">  1        2 0.43916214E+00 0.60001811E+03</pdfrwt>
<pdfrwt beam="2">  1       -2 0.45756527E-01 0.60001811E+03</pdfrwt>
<totfact> 0.10579585E+01</totfact>
</mgrwt>
</event>
<event>
 4    1  0.1033139E-008  0.3977655E+03  0.7818608E-02  0.1044556E+00
          2   -1    0    0  501    0  0.00000000000E+00  0.00000000000E+00  0.15811661119E+04  0.15811661119E+04  0.25500000000E-02 0. -1.
         -2   -1    0    0    0  501 -0.00000000000E+00 -0.00000000000E+00 -0.45926120459E+03  0.45926120460E+03  0.25500000000E-02 0.  1.
    8880022    1    1    2    0    0  0.62440445975E+02  0.36183831410E+03 -0.34129958434E+03  0.52412101096E+03  0.15294330000E+03 0.  0.
    8880022    1    1    2    0    0 -0.62440445975E+02 -0.36183831410E+03  0.14632044917E+04  0.15163063056E+04  0.15294330000E+03 0.  0.
<mgrwt>
<rscale>  0 0.39776554E+03</rscale>
<asrwt>0</asrwt>
<pdfrwt beam="1">  1        2 0.24325633E+00 0.39776554E+03</pdfrwt>
<pdfrwt beam="2">  1       -2 0.70655569E-01 0.39776554E+03</pdfrwt>
<totfact> 0.22646584E+01</totfact>
</mgrwt>
</event>
<event>
 4    1  0.1033139E-008  0.7658917E+03  0.7818608E-02  0.9610743E-01
          2   -1    0    0  501    0  0.00000000000E+00  0.00000000000E+00  0.24696935909E+04  0.24696935909E+04  0.25500000000E-02 0. -1.
         -2   -1    0    0    0  501 -0.00000000000E+00 -0.00000000000E+00 -0.69686175985E+03  0.69686175986E+03  0.25500000000E-02 0.  1.
    8880022    1    1    2    0    0 -0.70097341081E+03  0.26802008333E+03  0.21718622023E+04  0.23029493191E+04  0.15294330000E+03 0.  0.
    8880022    1    1    2    0    0  0.70097341081E+03 -0.26802008333E+03 -0.39903037122E+03  0.86360603165E+03  0.15294330000E+03 0.  0.
<mgrwt>
<rscale>  0 0.76589173E+03</rscale>
<asrwt>0</asrwt>
<pdfrwt beam="1">  1        2 0.37995286E+00 0.76589173E+03</pdfrwt>
<pdfrwt beam="2">  1       -2 0.10720950E+00 0.76589173E+03</pdfrwt>
<totfact> 0.26518269E+00</totfact>
</mgrwt>
</event>
<event>
 4    1  0.1089142E-008  0.8833412E+03  0.7818608E-02  0.9446649E-01
         -2   -1    0    0    0  501 -0.00000000000E+00  0.00000000000E+00  0.18618621598E+04  0.18618621598E+04  0.25500000000E-02 0.  1.
          2   -1    0    0  501    0  0.00000000000E+00 -0.00000000000E+00 -0.17881302802E+04  0.17881302802E+04  0.25500000000E-02 0. -1.
    8880022    1    1    2    0    0  0.71005589501E+03 -0.50271326047E+03 -0.15600063206E+04  0.17927385112E+04  0.15294330000E+03 0.  0.
    8880022    1    1    2    0    0 -0.71005589501E+03  0.50271326047E+03  0.16337382002E+04  0.18572539288E+04  0.15294330000E+03 0.  0.
<mgrwt>
<rscale>  0 0.88334119E+03</rscale>
<asrwt>0</asrwt>
<pdfrwt beam="1">  1        2 0.27509697E+00 0.88334119E+03</pdfrwt>
<pdfrwt beam="2">  1       -2 0.28644033E+00 0.88334119E+03</pdfrwt>
<totfact> 0.34632714E-01</totfact>
</mgrwt>
</event>
<event>
 4    1  0.1033139E-008  0.8893138E+03  0.7818608E-02  0.9439039E-01
         -2   -1    0    0    0  501 -0.00000000000E+00  0.00000000000E+00  0.17756746905E+04  0.17756746905E+04  0.25500000000E-02 0.  1.
          2   -1    0    0  501    0  0.00000000000E+00 -0.00000000000E+00 -0.14078983709E+04  0.14078983709E+04  0.25500000000E-02 0. -1.
    8880022    1    1    2    0    0 -0.64346015796E+03  0.59451364610E+03 -0.11322454735E+04  0.14397426560E+04  0.15294330000E+03 0.  0.
    8880022    1    1    2    0    0  0.64346015796E+03 -0.59451364610E+03  0.15000217930E+04  0.17438304054E+04  0.15294330000E+03 0.  0.
<mgrwt>
<rscale>  0 0.88931384E+03</rscale>
<asrwt>0</asrwt>
<pdfrwt beam="1">  1        2 0.21659975E+00 0.88931384E+03</pdfrwt>
<pdfrwt beam="2">  1       -2 0.27318072E+00 0.88931384E+03</pdfrwt>
<totfact> 0.67626614E-01</totfact>
</mgrwt>
</event>
<event>
 4    1  0.1033139E-008  0.9059202E+03  0.7818608E-02  0.9418211E-01
         -2   -1    0    0    0  501 -0.00000000000E+00  0.00000000000E+00  0.96079185507E+03  0.96079185507E+03  0.25500000000E-02 0.  1.
          2   -1    0    0  501    0  0.00000000000E+00 -0.00000000000E+00 -0.10398767215E+04  0.10398767215E+04  0.25500000000E-02 0. -1.
    8880022    1    1    2    0    0 -0.24158815131E+03  0.85961322809E+03 -0.46226327815E+03  0.10170441132E+04  0.15294330000E+03 0.  0.
    8880022    1    1    2    0    0  0.24158815131E+03 -0.85961322809E+03  0.38317841173E+03  0.98362446340E+03  0.15294330000E+03 0.  0.
<mgrwt>
<rscale>  0 0.90592019E+03</rscale>
<asrwt>0</asrwt>
<pdfrwt beam="1">  1        2 0.15998103E+00 0.90592019E+03</pdfrwt>
<pdfrwt beam="2">  1       -2 0.14781413E+00 0.90592019E+03</pdfrwt>
<totfact> 0.74044307E+00</totfact>
</mgrwt>
</event>
<event>
 4    1  0.1033139E-008  0.1322827E+04  0.7818608E-02  0.9011656E-01
          2   -1    0    0  501    0  0.00000000000E+00  0.00000000000E+00  0.14527081436E+04  0.14527081436E+04  0.25500000000E-02 0. -1.
         -2   -1    0    0    0  501 -0.00000000000E+00 -0.00000000000E+00 -0.14391404833E+04  0.14391404833E+04  0.25500000000E-02 0.  1.
    8880022    1    1    2    0    0 -0.13089463121E+04  0.11462920304E+03  0.59055317335E+03  0.14486631788E+04  0.15294330000E+03 0.  0.
    8880022    1    1    2    0    0  0.13089463121E+04 -0.11462920304E+03 -0.57698551305E+03  0.14431854480E+04  0.15294330000E+03 0.  0.
<mgrwt>
<rscale>  0 0.13228273E+04</rscale>
<asrwt>0</asrwt>
<pdfrwt beam="1">  1        2 0.22349356E+00 0.13228273E+04</pdfrwt>
<pdfrwt beam="2">  1       -2 0.22140623E+00 0.13228273E+04</pdfrwt>
<totfact> 0.12521212E+00</totfact>
</mgrwt>
</event>
<event>
 4    1  0.1033139E-008  0.7256202E+03  0.7818608E-02  0.9674394E-01
          2   -1    0    0  501    0  0.00000000000E+00  0.00000000000E+00  0.24552363349E+04  0.24552363349E+04  0.25500000000E-02 0. -1.
         -2   -1    0    0    0  501 -0.00000000000E+00 -0.00000000000E+00 -0.23228025981E+03  0.23228025982E+03  0.25500000000E-02 0.  1.
    8880022    1    1    2    0    0  0.22116982772E+03  0.67395615499E+03  0.14837820777E+04  0.16517063597E+04  0.15294330000E+03 0.  0.
    8880022    1    1    2    0    0 -0.22116982772E+03 -0.67395615499E+03  0.73917399742E+03  0.10358102350E+04  0.15294330000E+03 0.  0.
<mgrwt>
<rscale>  0 0.72562018E+03</rscale>
<asrwt>0</asrwt>
<pdfrwt beam="1">  1        2 0.37772867E+00 0.72562018E+03</pdfrwt>
<pdfrwt beam="2">  1       -2 0.35735424E-01 0.72562018E+03</pdfrwt>
<totfact> 0.28461151E+01</totfact>
</mgrwt>
</event>
<event>
 4    1  0.1033139E-008  0.7802478E+03  0.7818608E-02  0.9589056E-01
          2   -1    0    0  501    0  0.00000000000E+00  0.00000000000E+00  0.12299286941E+04  0.12299286941E+04  0.25500000000E-02 0. -1.
         -2   -1    0    0    0  501 -0.00000000000E+00 -0.00000000000E+00 -0.82488018836E+03  0.82488018836E+03  0.25500000000E-02 0.  1.
    8880022    1    1    2    0    0  0.59863112172E+03  0.47648271097E+03 -0.44721504493E+03  0.89932638300E+03  0.15294330000E+03 0.  0.
    8880022    1    1    2    0    0 -0.59863112172E+03 -0.47648271097E+03  0.85226355068E+03  0.11554824995E+04  0.15294330000E+03 0.  0.
<mgrwt>
<rscale>  0 0.78024781E+03</rscale>
<asrwt>0</asrwt>
<pdfrwt beam="1">  1        2 0.18921980E+00 0.78024781E+03</pdfrwt>
<pdfrwt beam="2">  1       -2 0.12690464E+00 0.78024781E+03</pdfrwt>
<totfact> 0.85300699E+00</totfact>
</mgrwt>
</event>
<event>
 4    1  0.1033139E-008  0.4674004E+03  0.7818608E-02  0.1022656E+00
         -2   -1    0    0    0  501 -0.00000000000E+00  0.00000000000E+00  0.58182345359E+03  0.58182345359E+03  0.25500000000E-02 0.  1.
          2   -1    0    0  501    0  0.00000000000E+00 -0.00000000000E+00 -0.15202025352E+04  0.15202025352E+04  0.25500000000E-02 0. -1.
    8880022    1    1    2    0    0 -0.41118254113E+03 -0.16124643459E+03  0.44283694421E+03  0.64386932445E+03  0.15294330000E+03 0.  1.
    8880022    1    1    2    0    0  0.41118254113E+03  0.16124643459E+03 -0.13812160258E+04  0.14581566643E+04  0.15294330000E+03 0.  0.
<mgrwt>
<rscale>  0 0.46740041E+03</rscale>
<asrwt>0</asrwt>
<pdfrwt beam="1">  1        2 0.23387731E+00 0.46740041E+03</pdfrwt>
<pdfrwt beam="2">  1       -2 0.89511301E-01 0.46740041E+03</pdfrwt>
<totfact> 0.14207950E+01</totfact>
</mgrwt>
</event>
<event>
 4    1  0.1033139E-008  0.1385153E+04  0.7818608E-02  0.8964636E-01
          2   -1    0    0  501    0  0.00000000000E+00  0.00000000000E+00  0.12845760675E+04  0.12845760675E+04  0.25500000000E-02 0. -1.
         -2   -1    0    0    0  501 -0.00000000000E+00 -0.00000000000E+00 -0.20271809575E+04  0.20271809575E+04  0.25500000000E-02 0.  1.
    8880022    1    1    2    0    0  0.12819363499E+04  0.50189333334E+03  0.47823063346E+03  0.14653852446E+04  0.15294330000E+03 0.  0.
    8880022    1    1    2    0    0 -0.12819363499E+04 -0.50189333334E+03 -0.12208355235E+04  0.18463717805E+04  0.15294330000E+03 0.  0.
<mgrwt>
<rscale>  0 0.13851532E+04</rscale>
<asrwt>0</asrwt>
<pdfrwt beam="1">  1        2 0.19762709E+00 0.13851532E+04</pdfrwt>
<pdfrwt beam="2">  1       -2 0.31187399E+00 0.13851532E+04</pdfrwt>
<totfact> 0.43338342E-01</totfact>
</mgrwt>
</event>
<event>
 4    1  0.1033139E-008  0.1020491E+04  0.7818608E-02  0.9286352E-01
          2   -1    0    0  501    0  0.00000000000E+00  0.00000000000E+00  0.19888913910E+04  0.19888913910E+04  0.25500000000E-02 0. -1.
         -2   -1    0    0    0  501 -0.00000000000E+00 -0.00000000000E+00 -0.68451981171E+03  0.68451981172E+03  0.25500000000E-02 0.  1.
    8880022    1    1    2    0    0 -0.14882212384E+03 -0.99792912634E+03  0.13002750669E+04  0.16529118150E+04  0.15294330000E+03 0.  0.
    8880022    1    1    2    0    0  0.14882212384E+03  0.99792912634E+03  0.40965123696E+01  0.10204993876E+04  0.15294330000E+03 0.  0.
<mgrwt>
<rscale>  0 0.10204912E+04</rscale>
<asrwt>0</asrwt>
<pdfrwt beam="1">  1        2 0.30598328E+00 0.10204912E+04</pdfrwt>
<pdfrwt beam="2">  1       -2 0.10531074E+00 0.10204912E+04</pdfrwt>
<totfact> 0.49339333E+00</totfact>
</mgrwt>
</event>
<event>
 4    1  0.1033139E-008  0.8712687E+03  0.7818608E-02  0.9462227E-01
         -2   -1    0    0    0  501 -0.00000000000E+00  0.00000000000E+00  0.41542324700E+04  0.41542324700E+04  0.25500000000E-02 0.  1.
          2   -1    0    0  501    0  0.00000000000E+00 -0.00000000000E+00 -0.63865958156E+03  0.63865958157E+03  0.25500000000E-02 0. -1.
    8880022    1    1    2    0    0 -0.83166055248E+03  0.20990059978E+03 -0.26700874485E+03  0.91126442880E+03  0.15294330000E+03 0.  0.
    8880022    1    1    2    0    0  0.83166055248E+03 -0.20990059978E+03  0.37825816333E+04  0.38816276228E+04  0.15294330000E+03 0.  0.
<mgrwt>
<rscale>  0 0.87126872E+03</rscale>
<asrwt>0</asrwt>
<pdfrwt beam="1">  1        2 0.98255322E-01 0.87126872E+03</pdfrwt>
<pdfrwt beam="2">  1       -2 0.63911267E+00 0.87126872E+03</pdfrwt>
<totfact> 0.16898090E-02</totfact>
</mgrwt>
</event>
<event>
 4    1  0.1033139E-008  0.9360249E+03  0.7818608E-02  0.9381636E-01
         -2   -1    0    0    0  501 -0.00000000000E+00  0.00000000000E+00  0.65632349991E+03  0.65632349992E+03  0.25500000000E-02 0.  1.
          2   -1    0    0  501    0  0.00000000000E+00 -0.00000000000E+00 -0.32932299505E+04  0.32932299505E+04  0.25500000000E-02 0. -1.
    8880022    1    1    2    0    0  0.51146316022E+03 -0.76886698453E+03 -0.28412681729E+04  0.29914791471E+04  0.15294330000E+03 0.  0.
    8880022    1    1    2    0    0 -0.51146316022E+03  0.76886698453E+03  0.20436172230E+03  0.95807430334E+03  0.15294330000E+03 0.  0.
<mgrwt>
<rscale>  0 0.93602492E+03</rscale>
<asrwt>0</asrwt>
<pdfrwt beam="1">  1        2 0.50665075E+00 0.93602492E+03</pdfrwt>
<pdfrwt beam="2">  1       -2 0.10097285E+00 0.93602492E+03</pdfrwt>
<totfact> 0.94394809E-01</totfact>
</mgrwt>
</event>
<event>
 4    1  0.1033139E-008  0.3554114E+03  0.7818608E-02  0.1060416E+00
          2   -1    0    0  501    0  0.00000000000E+00  0.00000000000E+00  0.19603942191E+04  0.19603942191E+04  0.25500000000E-02 0. -1.
         -2   -1    0    0    0  501 -0.00000000000E+00 -0.00000000000E+00 -0.47360170683E+03  0.47360170684E+03  0.25500000000E-02 0.  1.
    8880022    1    1    2    0    0  0.29672675779E+02  0.31944501255E+03  0.18745810886E+04  0.19079757584E+04  0.15294330000E+03 0.  0.
    8880022    1    1    2    0    0 -0.29672675779E+02 -0.31944501255E+03 -0.38778857635E+03  0.52602016757E+03  0.15294330000E+03 0.  0.
<mgrwt>
<rscale>  0 0.35541136E+03</rscale>
<asrwt>0</asrwt>
<pdfrwt beam="1">  1        2 0.30159910E+00 0.35541136E+03</pdfrwt>
<pdfrwt beam="2">  1       -2 0.72861803E-01 0.35541136E+03</pdfrwt>
<totfact> 0.13450300E+01</totfact>
</mgrwt>
</event>
<event>
 4    1  0.1033139E-008  0.1026621E+04  0.7818608E-02  0.9279819E-01
         -2   -1    0    0    0  501 -0.00000000000E+00  0.00000000000E+00  0.30721536035E+04  0.30721536035E+04  0.25500000000E-02 0.  1.
          2   -1    0    0  501    0  0.00000000000E+00 -0.00000000000E+00 -0.10083221764E+04  0.10083221764E+04  0.25500000000E-02 0. -1.
    8880022    1    1    2    0    0 -0.98948201466E+03 -0.22690295443E+03  0.26891183931E+04  0.28784212675E+04  0.15294330000E+03 0.  0.
    8880022    1    1    2    0    0  0.98948201466E+03  0.22690295443E+03 -0.62528696592E+03  0.12020545124E+04  0.15294330000E+03 0.  0.
<mgrwt>
<rscale>  0 0.10266213E+04</rscale>
<asrwt>0</asrwt>
<pdfrwt beam="1">  1        2 0.15512649E+00 0.10266213E+04</pdfrwt>
<pdfrwt beam="2">  1       -2 0.47263902E+00 0.10266213E+04</pdfrwt>
<totfact> 0.61949679E-02</totfact>
</mgrwt>
</event>
<event>
 4    1  0.1033139E-008  0.1043383E+04  0.7818608E-02  0.9262203E-01
          2   -1    0    0  501    0  0.00000000000E+00  0.00000000000E+00  0.13065821151E+04  0.13065821151E+04  0.25500000000E-02 0. -1.
         -2   -1    0    0    0  501 -0.00000000000E+00 -0.00000000000E+00 -0.11603360617E+04  0.11603360617E+04  0.25500000000E-02 0.  1.
    8880022    1    1    2    0    0  0.42029941216E+03  0.94265817397E+03 -0.58180760813E+03  0.11946329037E+04  0.15294330000E+03 0.  0.
    8880022    1    1    2    0    0 -0.42029941216E+03 -0.94265817397E+03  0.72805366161E+03  0.12722852730E+04  0.15294330000E+03 0.  0.
<mgrwt>
<rscale>  0 0.10433828E+04</rscale>
<asrwt>0</asrwt>
<pdfrwt beam="1">  1        2 0.20101263E+00 0.10433828E+04</pdfrwt>
<pdfrwt beam="2">  1       -2 0.17851324E+00 0.10433828E+04</pdfrwt>
<totfact> 0.30023517E+00</totfact>
</mgrwt>
</event>
<event>
 4    1  0.1033139E-008  0.1277965E+04  0.7818608E-02  0.9047224E-01
          2   -1    0    0  501    0  0.00000000000E+00  0.00000000000E+00  0.12021078683E+04  0.12021078683E+04  0.25500000000E-02 0. -1.
         -2   -1    0    0    0  501 -0.00000000000E+00 -0.00000000000E+00 -0.17604215621E+04  0.17604215621E+04  0.25500000000E-02 0.  1.
    8880022    1    1    2    0    0  0.54831458510E+03  0.11441823102E+04  0.42852244179E+03  0.13478965759E+04  0.15294330000E+03 0.  0.
    8880022    1    1    2    0    0 -0.54831458510E+03 -0.11441823102E+04 -0.98683613552E+03  0.16146328544E+04  0.15294330000E+03 0.  0.
<mgrwt>
<rscale>  0 0.12779647E+04</rscale>
<asrwt>0</asrwt>
<pdfrwt beam="1">  1        2 0.18493967E+00 0.12779647E+04</pdfrwt>
<pdfrwt beam="2">  1       -2 0.27083409E+00 0.12779647E+04</pdfrwt>
<totfact> 0.87342513E-01</totfact>
</mgrwt>
</event>
<event>
 4    1  0.1033139E-008  0.1222425E+04  0.7818608E-02  0.9093451E-01
         -2   -1    0    0    0  501 -0.00000000000E+00  0.00000000000E+00  0.81817344644E+03  0.81817344645E+03  0.25500000000E-02 0.  1.
          2   -1    0    0  501    0  0.00000000000E+00 -0.00000000000E+00 -0.23837590550E+04  0.23837590550E+04  0.25500000000E-02 0. -1.
    8880022    1    1    2    0    0 -0.10667958247E+04  0.57695538184E+03 -0.15569221350E+04  0.19794769591E+04  0.15294330000E+03 0.  0.
    8880022    1    1    2    0    0  0.10667958247E+04 -0.57695538184E+03 -0.86634735642E+01  0.12224555423E+04  0.15294330000E+03 0.  0.
<mgrwt>
<rscale>  0 0.12224248E+04</rscale>
<asrwt>0</asrwt>
<pdfrwt beam="1">  1        2 0.36673216E+00 0.12224248E+04</pdfrwt>
<pdfrwt beam="2">  1       -2 0.12587284E+00 0.12224248E+04</pdfrwt>
<totfact> 0.18681338E+00</totfact>
</mgrwt>
</event>
<event>
 4    1  0.1033139E-008  0.1136440E+04  0.7818608E-02  0.9170386E-01
          2   -1    0    0  501    0  0.00000000000E+00  0.00000000000E+00  0.45922746109E+04  0.45922746109E+04  0.25500000000E-02 0. -1.
         -2   -1    0    0    0  501 -0.00000000000E+00 -0.00000000000E+00 -0.48708581512E+03  0.48708581513E+03  0.25500000000E-02 0.  1.
    8880022    1    1    2    0    0  0.10385927701E+04  0.43523344582E+03  0.40156154787E+03  0.12052993090E+04  0.15294330000E+03 0.  0.
    8880022    1    1    2    0    0 -0.10385927701E+04 -0.43523344582E+03  0.37036272479E+04  0.38740611171E+04  0.15294330000E+03 0.  0.
<mgrwt>
<rscale>  0 0.11364395E+04</rscale>
<asrwt>0</asrwt>
<pdfrwt beam="1">  1        2 0.70650382E+00 0.11364395E+04</pdfrwt>
<pdfrwt beam="2">  1       -2 0.74936276E-01 0.11364395E+04</pdfrwt>
<totfact> 0.16712864E-01</totfact>
</mgrwt>
</event>
<event>
 4    1  0.1033139E-008  0.1201339E+04  0.7818608E-02  0.9111685E-01
         -2   -1    0    0    0  501 -0.00000000000E+00  0.00000000000E+00  0.22717985647E+04  0.22717985647E+04  0.25500000000E-02 0.  1.
          2   -1    0    0  501    0  0.00000000000E+00 -0.00000000000E+00 -0.87582228762E+03  0.87582228763E+03  0.25500000000E-02 0. -1.
    8880022    1    1    2    0    0 -0.56127314711E+03 -0.10510927544E+04 -0.12680551759E+03  0.12080127550E+04  0.15294330000E+03 0.  0.
    8880022    1    1    2    0    0  0.56127314711E+03  0.10510927544E+04  0.15227817947E+04  0.19396080973E+04  0.15294330000E+03 0.  0.
<mgrwt>
<rscale>  0 0.12013389E+04</rscale>
<asrwt>0</asrwt>
<pdfrwt beam="1">  1        2 0.13474189E+00 0.12013389E+04</pdfrwt>
<pdfrwt beam="2">  1       -2 0.34950748E+00 0.12013389E+04</pdfrwt>
<totfact> 0.46960751E-01</totfact>
</mgrwt>
</event>
<event>
 4    1  0.1033139E-008  0.6611840E+03  0.7818608E-02  0.9786017E-01
         -2   -1    0    0    0  501 -0.00000000000E+00  0.00000000000E+00  0.11767480484E+04  0.11767480484E+04  0.25500000000E-02 0.  1.
          2   -1    0    0  501    0  0.00000000000E+00 -0.00000000000E+00 -0.14683118025E+04  0.14683118025E+04  0.25500000000E-02 0. -1.
    8880022    1    1    2    0    0 -0.50828829307E+03 -0.39422792467E+03  0.99725967167E+03  0.11965329712E+04  0.15294330000E+03 0.  0.
    8880022    1    1    2    0    0  0.50828829307E+03  0.39422792467E+03 -0.12888234258E+04  0.14485268797E+04  0.15294330000E+03 0.  0.
<mgrwt>
<rscale>  0 0.66118401E+03</rscale>
<asrwt>0</asrwt>
<pdfrwt beam="1">  1        2 0.22589412E+00 0.66118401E+03</pdfrwt>
<pdfrwt beam="2">  1       -2 0.18103816E+00 0.66118401E+03</pdfrwt>
<totfact> 0.24673036E+00</totfact>
</mgrwt>
</event>
<event>
 4    1  0.1033139E-008  0.2991733E+04  0.7818608E-02  0.8246096E-01
          2   -1    0    0  501    0  0.00000000000E+00  0.00000000000E+00  0.27265192095E+04  0.27265192095E+04  0.25500000000E-02 0. -1.
         -2   -1    0    0    0  501 -0.00000000000E+00 -0.00000000000E+00 -0.35625982518E+04  0.35625982518E+04  0.25500000000E-02 0.  1.
    8880022    1    1    2    0    0 -0.29318587189E+04 -0.57556785409E+03  0.46329739418E+03  0.30273932732E+04  0.15294330000E+03 0.  0.
    8880022    1    1    2    0    0  0.29318587189E+04  0.57556785409E+03 -0.12993764365E+04  0.32617241881E+04  0.15294330000E+03 0.  0.
<mgrwt>
<rscale>  0 0.29917329E+04</rscale>
<asrwt>0</asrwt>
<pdfrwt beam="1">  1        2 0.41946450E+00 0.29917329E+04</pdfrwt>
<pdfrwt beam="2">  1       -2 0.54809204E+00 0.29917329E+04</pdfrwt>
<totfact> 0.17607507E-03</totfact>
</mgrwt>
</event>
<event>
 4    1  0.1033139E-008  0.8161043E+03  0.7818608E-02  0.9536995E-01
         -2   -1    0    0    0  501 -0.00000000000E+00  0.00000000000E+00  0.22786234902E+03  0.22786234904E+03  0.25500000000E-02 0.  1.
          2   -1    0    0  501    0  0.00000000000E+00 -0.00000000000E+00 -0.33167064726E+04  0.33167064726E+04  0.25500000000E-02 0. -1.
    8880022    1    1    2    0    0 -0.18289588765E+03 -0.78050215362E+03 -0.93375621489E+03  0.12401317831E+04  0.15294330000E+03 0.  0.
    8880022    1    1    2    0    0  0.18289588765E+03  0.78050215362E+03 -0.21550879087E+04  0.23044370386E+04  0.15294330000E+03 0.  0.
<mgrwt>
<rscale>  0 0.81610426E+03</rscale>
<asrwt>0</asrwt>
<pdfrwt beam="1">  1        2 0.51026250E+00 0.81610426E+03</pdfrwt>
<pdfrwt beam="2">  1       -2 0.35055748E-01 0.81610426E+03</pdfrwt>
<totfact> 0.87981379E+00</totfact>
</mgrwt>
</event>
<event>
 4    1  0.1033139E-008  0.1318754E+04  0.7818608E-02  0.9014824E-01
          2   -1    0    0  501    0  0.00000000000E+00  0.00000000000E+00  0.21765875884E+04  0.21765875884E+04  0.25500000000E-02 0. -1.
         -2   -1    0    0    0  501 -0.00000000000E+00 -0.00000000000E+00 -0.10146338938E+04  0.10146338938E+04  0.25500000000E-02 0.  1.
    8880022    1    1    2    0    0 -0.32936476917E+03 -0.12677692383E+04  0.13165440853E+04  0.18634376765E+04  0.15294330000E+03 0.  0.
    8880022    1    1    2    0    0  0.32936476917E+03  0.12677692383E+04 -0.15459039082E+03  0.13277838057E+04  0.15294330000E+03 0. -1.
<mgrwt>
<rscale>  0 0.13187538E+04</rscale>
<asrwt>0</asrwt>
<pdfrwt beam="1">  1        2 0.33485963E+00 0.13187538E+04</pdfrwt>
<pdfrwt beam="2">  1       -2 0.15609752E+00 0.13187538E+04</pdfrwt>
<totfact> 0.13778107E+00</totfact>
</mgrwt>
</event>
<event>
 4    1  0.1033139E-008  0.1124623E+04  0.7818608E-02  0.9181520E-01
          2   -1    0    0  501    0  0.00000000000E+00  0.00000000000E+00  0.38869830099E+04  0.38869830099E+04  0.25500000000E-02 0. -1.
         -2   -1    0    0    0  501 -0.00000000000E+00 -0.00000000000E+00 -0.42562527953E+03  0.42562527953E+03  0.25500000000E-02 0.  1.
    8880022    1    1    2    0    0 -0.11116793964E+04  0.74522097856E+02  0.68424520939E+03  0.13164223422E+04  0.15294330000E+03 0.  0.
    8880022    1    1    2    0    0  0.11116793964E+04 -0.74522097856E+02  0.27771125210E+04  0.29961859473E+04  0.15294330000E+03 0.  0.
<mgrwt>
<rscale>  0 0.11246227E+04</rscale>
<asrwt>0</asrwt>
<pdfrwt beam="1">  1        2 0.59799738E+00 0.11246227E+04</pdfrwt>
<pdfrwt beam="2">  1       -2 0.65480813E-01 0.11246227E+04</pdfrwt>
<totfact> 0.92922026E-01</totfact>
</mgrwt>
</event>
<event>
 4    1  0.1033139E-008  0.1553530E+04  0.7818608E-02  0.8849616E-01
         -2   -1    0    0    0  501 -0.00000000000E+00  0.00000000000E+00  0.30360672625E+04  0.30360672625E+04  0.25500000000E-02 0.  1.
          2   -1    0    0  501    0  0.00000000000E+00 -0.00000000000E+00 -0.13243586300E+04  0.13243586300E+04  0.25500000000E-02 0. -1.
    8880022    1    1    2    0    0  0.13849068177E+04  0.68709225054E+03 -0.52262647895E+03  0.16390828972E+04  0.15294330000E+03 0.  0.
    8880022    1    1    2    0    0 -0.13849068177E+04 -0.68709225054E+03  0.22343351115E+04  0.27213429953E+04  0.15294330000E+03 0.  0.
<mgrwt>
<rscale>  0 0.15535296E+04</rscale>
<asrwt>0</asrwt>
<pdfrwt beam="1">  1        2 0.20374748E+00 0.15535296E+04</pdfrwt>
<pdfrwt beam="2">  1       -2 0.46708726E+00 0.15535296E+04</pdfrwt>
<totfact> 0.40062595E-02</totfact>
</mgrwt>
</event>
<event>
 4    1  0.1033139E-008  0.8673674E+03  0.7818608E-02  0.9467319E-01
          2   -1    0    0  501    0  0.00000000000E+00  0.00000000000E+00  0.16556083184E+04  0.16556083184E+04  0.25500000000E-02 0. -1.
         -2   -1    0    0    0  501 -0.00000000000E+00 -0.00000000000E+00 -0.49831895202E+03  0.49831895202E+03  0.25500000000E-02 0.  1.
    8880022    1    1    2    0    0 -0.38446309928E+03  0.76231403418E+03  0.25896121850E+03  0.90520004813E+03  0.15294330000E+03 0.  0.
    8880022    1    1    2    0    0  0.38446309928E+03 -0.76231403418E+03  0.89832814789E+03  0.12487272223E+04  0.15294330000E+03 0.  0.
<mgrwt>
<rscale>  0 0.86736740E+03</rscale>
<asrwt>0</asrwt>
<pdfrwt beam="1">  1        2 0.25470897E+00 0.86736740E+03</pdfrwt>
<pdfrwt beam="2">  1       -2 0.76664454E-01 0.86736740E+03</pdfrwt>
<totfact> 0.15986061E+01</totfact>
</mgrwt>
</event>
<event>
 4    1  0.1033139E-008  0.1468473E+04  0.7818608E-02  0.8905693E-01
         -2   -1    0    0    0  501 -0.00000000000E+00  0.00000000000E+00  0.12953505362E+04  0.12953505362E+04  0.25500000000E-02 0.  1.
          2   -1    0    0  501    0  0.00000000000E+00 -0.00000000000E+00 -0.25736602302E+04  0.25736602302E+04  0.25500000000E-02 0. -1.
    8880022    1    1    2    0    0 -0.13703911266E+04 -0.50502470824E+03  0.51047696123E+03  0.15546704399E+04  0.15294330000E+03 0.  0.
    8880022    1    1    2    0    0  0.13703911266E+04  0.50502470824E+03 -0.17887866552E+04  0.23143403264E+04  0.15294330000E+03 0.  0.
<mgrwt>
<rscale>  0 0.14684732E+04</rscale>
<asrwt>0</asrwt>
<pdfrwt beam="1">  1        2 0.39594773E+00 0.14684732E+04</pdfrwt>
<pdfrwt beam="2">  1       -2 0.19928470E+00 0.14684732E+04</pdfrwt>
<totfact> 0.39999187E-01</totfact>
</mgrwt>
</event>
<event>
 4    1  0.1033139E-008  0.3094792E+03  0.7818608E-02  0.1080596E+00
          2   -1    0    0  501    0  0.00000000000E+00  0.00000000000E+00  0.17338353165E+04  0.17338353165E+04  0.25500000000E-02 0. -1.
         -2   -1    0    0    0  501 -0.00000000000E+00 -0.00000000000E+00 -0.29866594874E+03  0.29866594875E+03  0.25500000000E-02 0.  1.
    8880022    1    1    2    0    0  0.26893895329E+03  0.75886313113E+01 -0.19988397014E+03  0.36841688677E+03  0.15294330000E+03 0.  0.
    8880022    1    1    2    0    0 -0.26893895329E+03 -0.75886313113E+01  0.16350533379E+04  0.16640843784E+04  0.15294330000E+03 0. -1.
<mgrwt>
<rscale>  0 0.30947924E+03</rscale>
<asrwt>0</asrwt>
<pdfrwt beam="1">  1        2 0.26674390E+00 0.30947924E+03</pdfrwt>
<pdfrwt beam="2">  1       -2 0.45948607E-01 0.30947924E+03</pdfrwt>
<totfact> 0.46740272E+01</totfact>
</mgrwt>
</event>
<event>
 4    1  0.1033139E-008  0.4741605E+03  0.7818608E-02  0.1020752E+00
          2   -1    0    0  501    0  0.00000000000E+00  0.00000000000E+00  0.49261892603E+03  0.49261892604E+03  0.25500000000E-02 0. -1.
         -2   -1    0    0    0  501 -0.00000000000E+00 -0.00000000000E+00 -0.96661753943E+03  0.96661753943E+03  0.25500000000E-02 0.  1.
    8880022    1    1    2    0    0  0.36648385834E+03 -0.25908701601E+03  0.29308962234E+03  0.55743132315E+03  0.15294330000E+03 0.  0.
    8880022    1    1    2    0    0 -0.36648385834E+03  0.25908701601E+03 -0.76708823574E+03  0.90180514232E+03  0.15294330000E+03 0.  0.
<mgrwt>
<rscale>  0 0.47416047E+03</rscale>
<asrwt>0</asrwt>
<pdfrwt beam="1">  1        2 0.75787527E-01 0.47416047E+03</pdfrwt>
<pdfrwt beam="2">  1       -2 0.14871039E+00 0.47416047E+03</pdfrwt>
<totfact> 0.20058023E+01</totfact>
</mgrwt>
</event>
<event>
 4    1  0.1033139E-008  0.5865114E+03  0.7818608E-02  0.9933793E-01
          2   -1    0    0  501    0  0.00000000000E+00  0.00000000000E+00  0.15199874892E+04  0.15199874892E+04  0.25500000000E-02 0. -1.
         -2   -1    0    0    0  501 -0.00000000000E+00 -0.00000000000E+00 -0.40117287770E+03  0.40117287771E+03  0.25500000000E-02 0.  1.
    8880022    1    1    2    0    0 -0.53140997303E+03 -0.19546710213E+03  0.11935846798E+04  0.13299022477E+04  0.15294330000E+03 0.  0.
    8880022    1    1    2    0    0  0.53140997303E+03  0.19546710213E+03 -0.74770068308E+02  0.59125811926E+03  0.15294330000E+03 0.  0.
<mgrwt>
<rscale>  0 0.58651138E+03</rscale>
<asrwt>0</asrwt>
<pdfrwt beam="1">  1        2 0.23384423E+00 0.58651138E+03</pdfrwt>
<pdfrwt beam="2">  1       -2 0.61718905E-01 0.58651138E+03</pdfrwt>
<totfact> 0.31539793E+01</totfact>
</mgrwt>
</event>
<event>
 4    1  0.1033139E-008  0.3641627E+03  0.7818608E-02  0.1056948E+00
          2   -1    0    0  501    0  0.00000000000E+00  0.00000000000E+00  0.43549552594E+03  0.43549552595E+03  0.25500000000E-02 0. -1.
         -2   -1    0    0    0  501 -0.00000000000E+00 -0.00000000000E+00 -0.54964160228E+03  0.54964160229E+03  0.25500000000E-02 0.  1.
    8880022    1    1    2    0    0  0.32449272435E+03  0.62668048477E+02 -0.38601784966E+03  0.53068281084E+03  0.15294330000E+03 0.  0.
    8880022    1    1    2    0    0 -0.32449272435E+03 -0.62668048477E+02  0.27187177331E+03  0.45445431739E+03  0.15294330000E+03 0.  0.
<mgrwt>
<rscale>  0 0.36416269E+03</rscale>
<asrwt>0</asrwt>
<pdfrwt beam="1">  1        2 0.66999312E-01 0.36416269E+03</pdfrwt>
<pdfrwt beam="2">  1       -2 0.84560246E-01 0.36416269E+03</pdfrwt>
<totfact> 0.91474764E+01</totfact>
</mgrwt>
</event>
<event>
 4    1  0.1033139E-008  0.6361868E+03  0.7818608E-02  0.9833050E-01
          2   -1    0    0  501    0  0.00000000000E+00  0.00000000000E+00  0.14449561507E+04  0.14449561508E+04  0.25500000000E-02 0. -1.
         -2   -1    0    0    0  501 -0.00000000000E+00 -0.00000000000E+00 -0.69517018709E+03  0.69517018710E+03  0.25500000000E-02 0.  1.
    8880022    1    1    2    0    0  0.34065036475E+03 -0.51507214348E+03 -0.45195201578E+03  0.78038084393E+03  0.15294330000E+03 0.  0.
    8880022    1    1    2    0    0 -0.34065036475E+03  0.51507214348E+03  0.12017379794E+04  0.13597454939E+04  0.15294330000E+03 0.  0.
<mgrwt>
<rscale>  0 0.63618679E+03</rscale>
<asrwt>0</asrwt>
<pdfrwt beam="1">  1        2 0.22230094E+00 0.63618679E+03</pdfrwt>
<pdfrwt beam="2">  1       -2 0.10694926E+00 0.63618679E+03</pdfrwt>
<totfact> 0.99846717E+00</totfact>
</mgrwt>
</event>
<event>
 4    1  0.1033139E-008  0.9874362E+03  0.7818608E-02  0.9322433E-01
         -2   -1    0    0    0  501 -0.00000000000E+00  0.00000000000E+00  0.88758512183E+03  0.88758512183E+03  0.25500000000E-02 0.  1.
          2   -1    0    0  501    0  0.00000000000E+00 -0.00000000000E+00 -0.15042380565E+04  0.15042380565E+04  0.25500000000E-02 0. -1.
    8880022    1    1    2    0    0 -0.21272681407E+03  0.95204300764E+03  0.31276107392E+03  0.10357845955E+04  0.15294330000E+03 0.  0.
    8880022    1    1    2    0    0  0.21272681407E+03 -0.95204300764E+03 -0.92941400855E+03  0.13560385828E+04  0.15294330000E+03 0.  0.
<mgrwt>
<rscale>  0 0.98743619E+03</rscale>
<asrwt>0</asrwt>
<pdfrwt beam="1">  1        2 0.23142124E+00 0.98743619E+03</pdfrwt>
<pdfrwt beam="2">  1       -2 0.13655156E+00 0.98743619E+03</pdfrwt>
<totfact> 0.48104259E+00</totfact>
</mgrwt>
</event>
<event>
 4    1  0.1033139E-008  0.4017971E+03  0.7818608E-02  0.1043159E+00
         -2   -1    0    0    0  501 -0.00000000000E+00  0.00000000000E+00  0.16333447224E+03  0.16333447226E+03  0.25500000000E-02 0.  1.
          2   -1    0    0  501    0  0.00000000000E+00 -0.00000000000E+00 -0.15628877605E+04  0.15628877605E+04  0.25500000000E-02 0. -1.
    8880022    1    1    2    0    0 -0.28850327064E+02 -0.37042798975E+03 -0.12230645111E+04  0.12873723969E+04  0.15294330000E+03 0.  0.
    8880022    1    1    2    0    0  0.28850327064E+02  0.37042798975E+03 -0.17648877717E+03  0.43884983587E+03  0.15294330000E+03 0.  0.
<mgrwt>
<rscale>  0 0.40179708E+03</rscale>
<asrwt>0</asrwt>
<pdfrwt beam="1">  1        2 0.24044426E+00 0.40179708E+03</pdfrwt>
<pdfrwt beam="2">  1       -2 0.25128381E-01 0.40179708E+03</pdfrwt>
<totfact> 0.17534492E+02</totfact>
</mgrwt>
</event>
<event>
 4    1  0.1450017E-008  0.1292762E+04  0.7818608E-02  0.9035325E-01
         -2   -1    0    0    0  501 -0.00000000000E+00  0.00000000000E+00  0.26233585714E+04  0.26233585714E+04  0.25500000000E-02 0.  1.
          2   -1    0    0  501    0  0.00000000000E+00 -0.00000000000E+00 -0.16274417721E+04  0.16274417721E+04  0.25500000000E-02 0. -1.
    8880022    1    1    2    0    0 -0.42285823264E+03 -0.12120367389E+04 -0.11600607924E+04  0.17369441086E+04  0.15294330000E+03 0.  0.
    8880022    1    1    2    0    0  0.42285823264E+03  0.12120367389E+04  0.21559775916E+04  0.25138562350E+04  0.15294330000E+03 0.  0.
<mgrwt>
<rscale>  0 0.12927621E+04</rscale>
<asrwt>0</asrwt>
<pdfrwt beam="1">  1        2 0.25037566E+00 0.12927621E+04</pdfrwt>
<pdfrwt beam="2">  1       -2 0.40359363E+00 0.12927621E+04</pdfrwt>
<totfact> 0.73351854E-02</totfact>
</mgrwt>
</event>
<event>
 4    1  0.1033139E-008  0.1178526E+04  0.7818608E-02  0.9131863E-01
          2   -1    0    0  501    0  0.00000000000E+00  0.00000000000E+00  0.29665840541E+04  0.29665840541E+04  0.25500000000E-02 0. -1.
         -2   -1    0    0    0  501 -0.00000000000E+00 -0.00000000000E+00 -0.13286372370E+04  0.13286372370E+04  0.25500000000E-02 0.  1.
    8880022    1    1    2    0    0  0.95000519439E+03  0.68045720943E+03  0.25472553168E+04  0.28066765374E+04  0.15294330000E+03 0.  0.
    8880022    1    1    2    0    0 -0.95000519439E+03 -0.68045720943E+03 -0.90930849969E+03  0.14885447537E+04  0.15294330000E+03 0.  0.
<mgrwt>
<rscale>  0 0.11785260E+04</rscale>
<asrwt>0</asrwt>
<pdfrwt beam="1">  1        2 0.45639754E+00 0.11785260E+04</pdfrwt>
<pdfrwt beam="2">  1       -2 0.20440573E+00 0.11785260E+04</pdfrwt>
<totfact> 0.22415342E-01</totfact>
</mgrwt>
</event>
<event>
 4    1  0.1033139E-008  0.6168566E+03  0.7818608E-02  0.9871038E-01
         -2   -1    0    0    0  501 -0.00000000000E+00  0.00000000000E+00  0.45674083236E+03  0.45674083237E+03  0.25500000000E-02 0.  1.
          2   -1    0    0  501    0  0.00000000000E+00 -0.00000000000E+00 -0.11589030744E+04  0.11589030744E+04  0.25500000000E-02 0. -1.
    8880022    1    1    2    0    0  0.35005053659E+03  0.48433985097E+03 -0.77940051063E+03  0.99397046153E+03  0.15294330000E+03 0.  0.
    8880022    1    1    2    0    0 -0.35005053659E+03 -0.48433985097E+03  0.77238268565E+02  0.62167344527E+03  0.15294330000E+03 0.  0.
<mgrwt>
<rscale>  0 0.61685665E+03</rscale>
<asrwt>0</asrwt>
<pdfrwt beam="1">  1        2 0.17829278E+00 0.61685665E+03</pdfrwt>
<pdfrwt beam="2">  1       -2 0.70267821E-01 0.61685665E+03</pdfrwt>
<totfact> 0.38167708E+01</totfact>
</mgrwt>
</event>
<event>
 4    1  0.1033139E-008  0.4142959E+03  0.7818608E-02  0.1038939E+00
         -2   -1    0    0    0  501 -0.00000000000E+00  0.00000000000E+00  0.35215776735E+04  0.35215776735E+04  0.25500000000E-02 0.  1.
          2   -1    0    0  501    0  0.00000000000E+00 -0.00000000000E+00 -0.62802970098E+02  0.62802970150E+02  0.25500000000E-02 0. -1.
    8880022    1    1    2    0    0  0.33680187821E+03 -0.18658489327E+03  0.25774643039E+04  0.26105484708E+04  0.15294330000E+03 0.  0.
    8880022    1    1    2    0    0 -0.33680187821E+03  0.18658489327E+03  0.88131039948E+03  0.97383217281E+03  0.15294330000E+03 0.  0.
<mgrwt>
<rscale>  0 0.41429589E+03</rscale>
<asrwt>0</asrwt>
<pdfrwt beam="1">  1        2 0.96619963E-02 0.41429589E+03</pdfrwt>
<pdfrwt beam="2">  1       -2 0.54178113E+00 0.41429589E+03</pdfrwt>
<totfact> 0.72105272E-01</totfact>
</mgrwt>
</event>
<event>
 4    1  0.1033139E-008  0.3419480E+03  0.7818608E-02  0.1065969E+00
          2   -1    0    0  501    0  0.00000000000E+00  0.00000000000E+00  0.45779347094E+03  0.45779347095E+03  0.25500000000E-02 0. -1.
         -2   -1    0    0    0  501 -0.00000000000E+00 -0.00000000000E+00 -0.31171538995E+03  0.31171538996E+03  0.25500000000E-02 0.  1.
    8880022    1    1    2    0    0 -0.91335195192E+02  0.29188124682E+03  0.23655149013E+03  0.41579446920E+03  0.15294330000E+03 0.  0.
    8880022    1    1    2    0    0  0.91335195192E+02 -0.29188124682E+03 -0.90473409136E+02  0.35371439171E+03  0.15294330000E+03 0.  0.
<mgrwt>
<rscale>  0 0.34194800E+03</rscale>
<asrwt>0</asrwt>
<pdfrwt beam="1">  1        2 0.70429764E-01 0.34194800E+03</pdfrwt>
<pdfrwt beam="2">  1       -2 0.47956214E-01 0.34194800E+03</pdfrwt>
<totfact> 0.28801931E+02</totfact>
</mgrwt>
</event>
<event>
 4    1  0.1033139E-008  0.4546267E+03  0.7818608E-02  0.1026351E+00
          2   -1    0    0  501    0  0.00000000000E+00  0.00000000000E+00  0.26684856319E+04  0.26684856319E+04  0.25500000000E-02 0. -1.
         -2   -1    0    0    0  501 -0.00000000000E+00 -0.00000000000E+00 -0.80670305497E+02  0.80670305537E+02  0.25500000000E-02 0.  1.
    8880022    1    1    2    0    0  0.50853261642E+02  0.42509727576E+03  0.15683670867E+04  0.16329301025E+04  0.15294330000E+03 0.  0.
    8880022    1    1    2    0    0 -0.50853261642E+02 -0.42509727576E+03  0.10194482397E+04  0.11162258349E+04  0.15294330000E+03 0.  0.
<mgrwt>
<rscale>  0 0.45462666E+03</rscale>
<asrwt>0</asrwt>
<pdfrwt beam="1">  1        2 0.41053624E+00 0.45462666E+03</pdfrwt>
<pdfrwt beam="2">  1       -2 0.12410816E-01 0.45462666E+03</pdfrwt>
<totfact> 0.14530433E+02</totfact>
</mgrwt>
</event>
<event>
 4    1  0.1033139E-008  0.1135091E+04  0.7818608E-02  0.9171649E-01
         -2   -1    0    0    0  501 -0.00000000000E+00  0.00000000000E+00  0.52492206746E+03  0.52492206747E+03  0.25500000000E-02 0.  1.
          2   -1    0    0  501    0  0.00000000000E+00 -0.00000000000E+00 -0.25919111217E+04  0.25919111217E+04  0.25500000000E-02 0. -1.
    8880022    1    1    2    0    0  0.90969329629E+03 -0.66143621278E+03 -0.13922956213E+04  0.17963625767E+04  0.15294330000E+03 0.  0.
    8880022    1    1    2    0    0 -0.90969329629E+03  0.66143621278E+03 -0.67469343292E+03  0.13204706124E+04  0.15294330000E+03 0.  0.
<mgrwt>
<rscale>  0 0.11350909E+04</rscale>
<asrwt>0</asrwt>
<pdfrwt beam="1">  1        2 0.39875555E+00 0.11350909E+04</pdfrwt>
<pdfrwt beam="2">  1       -2 0.80757243E-01 0.11350909E+04</pdfrwt>
<totfact> 0.41418098E+00</totfact>
</mgrwt>
</event>
<event>
 4    1  0.1033139E-008  0.1378551E+04  0.7818608E-02  0.8969492E-01
          2   -1    0    0  501    0  0.00000000000E+00  0.00000000000E+00  0.35387779624E+04  0.35387779624E+04  0.25500000000E-02 0. -1.
         -2   -1    0    0    0  501 -0.00000000000E+00 -0.00000000000E+00 -0.10199251279E+04  0.10199251279E+04  0.25500000000E-02 0.  1.
    8880022    1    1    2    0    0 -0.12782254658E+03 -0.13640651297E+04  0.28278265880E+04  0.31459509129E+04  0.15294330000E+03 0.  0.
    8880022    1    1    2    0    0  0.12782254658E+03  0.13640651297E+04 -0.30897375349E+03  0.14127521774E+04  0.15294330000E+03 0.  0.
<mgrwt>
<rscale>  0 0.13785514E+04</rscale>
<asrwt>0</asrwt>
<pdfrwt beam="1">  1        2 0.54442738E+00 0.13785514E+04</pdfrwt>
<pdfrwt beam="2">  1       -2 0.15691156E+00 0.13785514E+04</pdfrwt>
<totfact> 0.19637972E-01</totfact>
</mgrwt>
</event>
<event>
 4    1  0.1037124E-008  0.6296947E+03  0.7818608E-02  0.9845645E-01
         -2   -1    0    0    0  501 -0.00000000000E+00  0.00000000000E+00  0.10362335268E+04  0.10362335268E+04  0.25500000000E-02 0.  1.
          2   -1    0    0  501    0  0.00000000000E+00 -0.00000000000E+00 -0.17020282354E+04  0.17020282354E+04  0.25500000000E-02 0. -1.
    8880022    1    1    2    0    0 -0.84000073331E+02 -0.60503534731E+03 -0.15383388465E+04  0.16622279758E+04  0.15294330000E+03 0.  0.
    8880022    1    1    2    0    0  0.84000073331E+02  0.60503534731E+03  0.87254413796E+03  0.10760337864E+04  0.15294330000E+03 0.  0.
<mgrwt>
<rscale>  0 0.62969472E+03</rscale>
<asrwt>0</asrwt>
<pdfrwt beam="1">  1        2 0.26185050E+00 0.62969472E+03</pdfrwt>
<pdfrwt beam="2">  1       -2 0.15942054E+00 0.62969472E+03</pdfrwt>
<totfact> 0.26259182E+00</totfact>
</mgrwt>
</event>
<event>
 4    1  0.1033139E-008  0.2307292E+03  0.7818608E-02  0.1126128E+00
          2   -1    0    0  501    0  0.00000000000E+00  0.00000000000E+00  0.30314178062E+04  0.30314178062E+04  0.25500000000E-02 0. -1.
         -2   -1    0    0    0  501 -0.00000000000E+00 -0.00000000000E+00 -0.26192164341E+03  0.26192164342E+03  0.25500000000E-02 0.  1.
    8880022    1    1    2    0    0  0.87618387901E+02 -0.14888693408E+03  0.29752568870E+04  0.29841899232E+04  0.15294330000E+03 0.  0.
    8880022    1    1    2    0    0 -0.87618387901E+02  0.14888693408E+03 -0.20576072422E+03  0.30914952642E+03  0.15294330000E+03 0.  0.
<mgrwt>
<rscale>  0 0.23072918E+03</rscale>
<asrwt>0</asrwt>
<pdfrwt beam="1">  1        2 0.46637195E+00 0.23072918E+03</pdfrwt>
<pdfrwt beam="2">  1       -2 0.40295639E-01 0.23072918E+03</pdfrwt>
<totfact> 0.12163742E+01</totfact>
</mgrwt>
</event>
<event>
 4    1  0.1033139E-008  0.3276317E+03  0.7818608E-02  0.1072190E+00
         -2   -1    0    0    0  501 -0.00000000000E+00  0.00000000000E+00  0.90255579983E+02  0.90255580019E+02  0.25500000000E-02 0.  1.
          2   -1    0    0  501    0  0.00000000000E+00 -0.00000000000E+00 -0.20298745969E+04  0.20298745969E+04  0.25500000000E-02 0. -1.
    8880022    1    1    2    0    0 -0.28515619428E+03 -0.51350126164E+02 -0.16519620935E+04  0.16841381481E+04  0.15294330000E+03 0.  0.
    8880022    1    1    2    0    0  0.28515619428E+03  0.51350126164E+02 -0.28765692350E+03  0.43599202888E+03  0.15294330000E+03 0.  0.
<mgrwt>
<rscale>  0 0.32763172E+03</rscale>
<asrwt>0</asrwt>
<pdfrwt beam="1">  1        2 0.31228837E+00 0.32763172E+03</pdfrwt>
<pdfrwt beam="2">  1       -2 0.13885475E-01 0.32763172E+03</pdfrwt>
<totfact> 0.27670386E+02</totfact>
</mgrwt>
</event>
<event>
 4    1  0.1033139E-008  0.4318166E+03  0.7818608E-02  0.1033288E+00
          2   -1    0    0  501    0  0.00000000000E+00  0.00000000000E+00  0.95232980833E+03  0.95232980834E+03  0.25500000000E-02 0. -1.
         -2   -1    0    0    0  501 -0.00000000000E+00 -0.00000000000E+00 -0.25260998172E+03  0.25260998174E+03  0.25500000000E-02 0.  1.
    8880022    1    1    2    0    0  0.13693771443E+02  0.40359188865E+03  0.63556948859E+03  0.76838412256E+03  0.15294330000E+03 0.  0.
    8880022    1    1    2    0    0 -0.13693771443E+02 -0.40359188865E+03  0.64150338024E+02  0.43655566752E+03  0.15294330000E+03 0.  0.
<mgrwt>
<rscale>  0 0.43181661E+03</rscale>
<asrwt>0</asrwt>
<pdfrwt beam="1">  1        2 0.14651228E+00 0.43181661E+03</pdfrwt>
<pdfrwt beam="2">  1       -2 0.38863074E-01 0.43181661E+03</pdfrwt>
<totfact> 0.17538863E+02</totfact>
</mgrwt>
</event>
<event>
 4    1  0.1033139E-008  0.5516155E+03  0.7818608E-02  0.1001121E+00
          2   -1    0    0  501    0  0.00000000000E+00  0.00000000000E+00  0.14768825697E+04  0.14768825697E+04  0.25500000000E-02 0. -1.
         -2   -1    0    0    0  501 -0.00000000000E+00 -0.00000000000E+00 -0.10414254177E+04  0.10414254177E+04  0.25500000000E-02 0.  1.
    8880022    1    1    2    0    0  0.49016042702E+03 -0.20157072776E+03 -0.91001727531E+03  0.10641480615E+04  0.15294330000E+03 0.  0.
    8880022    1    1    2    0    0 -0.49016042702E+03  0.20157072776E+03  0.13454744273E+04  0.14541599259E+04  0.15294330000E+03 0.  0.
<mgrwt>
<rscale>  0 0.55161550E+03</rscale>
<asrwt>0</asrwt>
<pdfrwt beam="1">  1        2 0.22721270E+00 0.55161550E+03</pdfrwt>
<pdfrwt beam="2">  1       -2 0.16021930E+00 0.55161550E+03</pdfrwt>
<totfact> 0.34989729E+00</totfact>
</mgrwt>
</event>
<event>
 4    1  0.1033139E-008  0.1805132E+04  0.7818608E-02  0.8703575E-01
         -2   -1    0    0    0  501 -0.00000000000E+00  0.00000000000E+00  0.12416457409E+04  0.12416457409E+04  0.25500000000E-02 0.  1.
          2   -1    0    0  501    0  0.00000000000E+00 -0.00000000000E+00 -0.28267501091E+04  0.28267501091E+04  0.25500000000E-02 0. -1.
    8880022    1    1    2    0    0 -0.76385218210E+03 -0.16283861473E+04 -0.13368834627E+04  0.22462770636E+04  0.15294330000E+03 0.  0.
    8880022    1    1    2    0    0  0.76385218210E+03  0.16283861473E+04 -0.24822090554E+03  0.18221187864E+04  0.15294330000E+03 0.  0.
<mgrwt>
<rscale>  0 0.18051325E+04</rscale>
<asrwt>0</asrwt>
<pdfrwt beam="1">  1        2 0.43488463E+00 0.18051325E+04</pdfrwt>
<pdfrwt beam="2">  1       -2 0.19102242E+00 0.18051325E+04</pdfrwt>
<totfact> 0.30987864E-01</totfact>
</mgrwt>
</event>
<event>
 4    1  0.1033139E-008  0.1364883E+04  0.7818608E-02  0.8979638E-01
         -2   -1    0    0    0  501 -0.00000000000E+00  0.00000000000E+00  0.12627109491E+04  0.12627109491E+04  0.25500000000E-02 0.  1.
          2   -1    0    0  501    0  0.00000000000E+00 -0.00000000000E+00 -0.17783279317E+04  0.17783279317E+04  0.25500000000E-02 0. -1.
    8880022    1    1    2    0    0 -0.13230063512E+04  0.29860850660E+03  0.36983356963E+03  0.14141009044E+04  0.15294330000E+03 0.  0.
    8880022    1    1    2    0    0  0.13230063512E+04 -0.29860850660E+03 -0.88545055217E+03  0.16269379764E+04  0.15294330000E+03 0.  0.
<mgrwt>
<rscale>  0 0.13648826E+04</rscale>
<asrwt>0</asrwt>
<pdfrwt beam="1">  1        2 0.27358891E+00 0.13648826E+04</pdfrwt>
<pdfrwt beam="2">  1       -2 0.19426322E+00 0.13648826E+04</pdfrwt>
<totfact> 0.12272950E+00</totfact>
</mgrwt>
</event>
<event>
 4    1  0.1033139E-008  0.7426040E+03  0.7818608E-02  0.9647025E-01
          2   -1    0    0  501    0  0.00000000000E+00  0.00000000000E+00  0.11457571768E+04  0.11457571768E+04  0.25500000000E-02 0. -1.
         -2   -1    0    0    0  501 -0.00000000000E+00 -0.00000000000E+00 -0.16420815471E+04  0.16420815471E+04  0.25500000000E-02 0.  1.
    8880022    1    1    2    0    0 -0.37655082376E+03 -0.62151307085E+03  0.92380182099E+03  0.11852723221E+04  0.15294330000E+03 0.  0.
    8880022    1    1    2    0    0  0.37655082376E+03  0.62151307085E+03 -0.14201261912E+04  0.16025664018E+04  0.15294330000E+03 0.  0.
<mgrwt>
<rscale>  0 0.74260398E+03</rscale>
<asrwt>0</asrwt>
<pdfrwt beam="1">  1        2 0.17627033E+00 0.74260398E+03</pdfrwt>
<pdfrwt beam="2">  1       -2 0.25262793E+00 0.74260398E+03</pdfrwt>
<totfact> 0.13126549E+00</totfact>
</mgrwt>
</event>
<event>
 4    1  0.1033139E-008  0.1965699E+04  0.7818608E-02  0.8622828E-01
         -2   -1    0    0    0  501 -0.00000000000E+00  0.00000000000E+00  0.15925369698E+04  0.15925369698E+04  0.25500000000E-02 0.  1.
          2   -1    0    0  501    0  0.00000000000E+00 -0.00000000000E+00 -0.31849525601E+04  0.31849525602E+04  0.25500000000E-02 0. -1.
    8880022    1    1    2    0    0 -0.98600642711E+03 -0.16936267157E+04 -0.19620502025E+04  0.27773391541E+04  0.15294330000E+03 0.  0.
    8880022    1    1    2    0    0  0.98600642711E+03  0.16936267157E+04  0.36963461215E+03  0.20001503758E+04  0.15294330000E+03 0.  0.
<mgrwt>
<rscale>  0 0.19656988E+04</rscale>
<asrwt>0</asrwt>
<pdfrwt beam="1">  1        2 0.48999270E+00 0.19656988E+04</pdfrwt>
<pdfrwt beam="2">  1       -2 0.24500569E+00 0.19656988E+04</pdfrwt>
<totfact> 0.81573860E-02</totfact>
</mgrwt>
</event>
<event>
 4    1  0.1033139E-008  0.4010109E+03  0.7818608E-02  0.1043430E+00
         -2   -1    0    0    0  501 -0.00000000000E+00  0.00000000000E+00  0.50396816043E+03  0.50396816044E+03  0.25500000000E-02 0.  1.
          2   -1    0    0  501    0  0.00000000000E+00 -0.00000000000E+00 -0.38578287549E+04  0.38578287549E+04  0.25500000000E-02 0. -1.
    8880022    1    1    2    0    0  0.15734222039E+03 -0.33565092051E+03 -0.37656896042E+04  0.37869813788E+04  0.15294330000E+03 0.  0.
    8880022    1    1    2    0    0 -0.15734222039E+03  0.33565092051E+03  0.41182900978E+03  0.57481553656E+03  0.15294330000E+03 0.  0.
<mgrwt>
<rscale>  0 0.40101093E+03</rscale>
<asrwt>0</asrwt>
<pdfrwt beam="1">  1        2 0.59351210E+00 0.40101093E+03</pdfrwt>
<pdfrwt beam="2">  1       -2 0.77533565E-01 0.40101093E+03</pdfrwt>
<totfact> 0.82128526E-01</totfact>
</mgrwt>
</event>
<event>
 4    1  0.1033139E-008  0.3759879E+03  0.7818608E-02  0.1052427E+00
          2   -1    0    0  501    0  0.00000000000E+00  0.00000000000E+00  0.30450183127E+04  0.30450183127E+04  0.25500000000E-02 0. -1.
         -2   -1    0    0    0  501 -0.00000000000E+00 -0.00000000000E+00 -0.96948703004E+02  0.96948703038E+02  0.25500000000E-02 0.  1.
    8880022    1    1    2    0    0 -0.80197778024E+02  0.33398139495E+03  0.26081194796E+04  0.26350814273E+04  0.15294330000E+03 0.  0.
    8880022    1    1    2    0    0  0.80197778024E+02 -0.33398139495E+03  0.33995013010E+03  0.50688558841E+03  0.15294330000E+03 0.  1.
<mgrwt>
<rscale>  0 0.37598791E+03</rscale>
<asrwt>0</asrwt>
<pdfrwt beam="1">  1        2 0.46846432E+00 0.37598791E+03</pdfrwt>
<pdfrwt beam="2">  1       -2 0.14915186E-01 0.37598791E+03</pdfrwt>
<totfact> 0.65653425E+01</totfact>
</mgrwt>
</event>
<event>
 4    1  0.1033139E-008  0.6468676E+03  0.7818608E-02  0.9812675E-01
          2   -1    0    0  501    0  0.00000000000E+00  0.00000000000E+00  0.38772537379E+04  0.38772537379E+04  0.25500000000E-02 0. -1.
         -2   -1    0    0    0  501 -0.00000000000E+00 -0.00000000000E+00 -0.33791280148E+03  0.33791280149E+03  0.25500000000E-02 0.  1.
    8880022    1    1    2    0    0 -0.50568795079E+03  0.37326370953E+03  0.35084256549E+04  0.35675605573E+04  0.15294330000E+03 0.  0.
    8880022    1    1    2    0    0  0.50568795079E+03 -0.37326370953E+03  0.30915281446E+02  0.64760598211E+03  0.15294330000E+03 0.  0.
<mgrwt>
<rscale>  0 0.64686765E+03</rscale>
<asrwt>0</asrwt>
<pdfrwt beam="1">  1        2 0.59650059E+00 0.64686765E+03</pdfrwt>
<pdfrwt beam="2">  1       -2 0.51986583E-01 0.64686765E+03</pdfrwt>
<totfact> 0.16975767E+00</totfact>
</mgrwt>
</event>
<event>
 4    1  0.1033139E-008  0.5992399E+03  0.7818608E-02  0.9906984E-01
         -2   -1    0    0    0  501 -0.00000000000E+00  0.00000000000E+00  0.56268584580E+03  0.56268584581E+03  0.25500000000E-02 0.  1.
          2   -1    0    0  501    0  0.00000000000E+00 -0.00000000000E+00 -0.36135271989E+04  0.36135271989E+04  0.25500000000E-02 0. -1.
    8880022    1    1    2    0    0  0.50456662540E+03  0.28479696690E+03 -0.34201913005E+04  0.34722898752E+04  0.15294330000E+03 0.  0.
    8880022    1    1    2    0    0 -0.50456662540E+03 -0.28479696690E+03  0.36934994749E+03  0.70392316950E+03  0.15294330000E+03 0.  0.
<mgrwt>
<rscale>  0 0.59923989E+03</rscale>
<asrwt>0</asrwt>
<pdfrwt beam="1">  1        2 0.55592725E+00 0.59923989E+03</pdfrwt>
<pdfrwt beam="2">  1       -2 0.86567055E-01 0.59923989E+03</pdfrwt>
<totfact> 0.88928907E-01</totfact>
</mgrwt>
</event>
<event>
 4    1  0.1033139E-008  0.1183360E+04  0.7818608E-02  0.9127548E-01
          2   -1    0    0  501    0  0.00000000000E+00  0.00000000000E+00  0.13433721586E+04  0.13433721586E+04  0.25500000000E-02 0. -1.
         -2   -1    0    0    0  501 -0.00000000000E+00 -0.00000000000E+00 -0.11879479329E+04  0.11879479329E+04  0.25500000000E-02 0.  1.
    8880022    1    1    2    0    0 -0.57817310710E+03 -0.10211092443E+04 -0.36529599582E+03  0.12384591427E+04  0.15294330000E+03 0.  0.
    8880022    1    1    2    0    0  0.57817310710E+03  0.10211092443E+04  0.52072022158E+03  0.12928609488E+04  0.15294330000E+03 0.  0.
<mgrwt>
<rscale>  0 0.11833596E+04</rscale>
<asrwt>0</asrwt>
<pdfrwt beam="1">  1        2 0.20667264E+00 0.11833596E+04</pdfrwt>
<pdfrwt beam="2">  1       -2 0.18276122E+00 0.11833596E+04</pdfrwt>
<totfact> 0.26323223E+00</totfact>
</mgrwt>
</event>
<event>
 4    1  0.1033139E-008  0.7400082E+03  0.7818608E-02  0.9651158E-01
          2   -1    0    0  501    0  0.00000000000E+00  0.00000000000E+00  0.94130098532E+03  0.94130098532E+03  0.25500000000E-02 0. -1.
         -2   -1    0    0    0  501 -0.00000000000E+00 -0.00000000000E+00 -0.10980668381E+04  0.10980668381E+04  0.25500000000E-02 0.  1.
    8880022    1    1    2    0    0  0.33456542009E+03  0.64209540610E+03  0.62082236372E+03  0.96593612168E+03  0.15294330000E+03 0.  0.
    8880022    1    1    2    0    0 -0.33456542009E+03 -0.64209540610E+03 -0.77758821648E+03  0.10734317017E+04  0.15294330000E+03 0.  0.
<mgrwt>
<rscale>  0 0.74000823E+03</rscale>
<asrwt>0</asrwt>
<pdfrwt beam="1">  1        2 0.14481554E+00 0.74000823E+03</pdfrwt>
<pdfrwt beam="2">  1       -2 0.16893336E+00 0.74000823E+03</pdfrwt>
<totfact> 0.60909389E+00</totfact>
</mgrwt>
</event>
<event>
 4    1  0.1033139E-008  0.4026829E+03  0.7818608E-02  0.1042855E+00
          2   -1    0    0  501    0  0.00000000000E+00  0.00000000000E+00  0.11201688007E+04  0.11201688007E+04  0.25500000000E-02 0. -1.
         -2   -1    0    0    0  501 -0.00000000000E+00 -0.00000000000E+00 -0.59352815420E+03  0.59352815421E+03  0.25500000000E-02 0.  1.
    8880022    1    1    2    0    0 -0.30531700634E+03 -0.21340889373E+03  0.10083872953E+04  0.10858169369E+04  0.15294330000E+03 0. -1.
    8880022    1    1    2    0    0  0.30531700634E+03  0.21340889373E+03 -0.48174664880E+03  0.62788001794E+03  0.15294330000E+03 0.  0.
<mgrwt>
<rscale>  0 0.40268286E+03</rscale>
<asrwt>0</asrwt>
<pdfrwt beam="1">  1        2 0.17233366E+00 0.40268286E+03</pdfrwt>
<pdfrwt beam="2">  1       -2 0.91312025E-01 0.40268286E+03</pdfrwt>
<totfact> 0.23160067E+01</totfact>
</mgrwt>
</event>
<event>
 4    1  0.1033139E-008  0.5918333E+03  0.7818608E-02  0.9922496E-01
          2   -1    0    0  501    0  0.00000000000E+00  0.00000000000E+00  0.10048255715E+04  0.10048255715E+04  0.25500000000E-02 0. -1.
         -2   -1    0    0    0  501 -0.00000000000E+00 -0.00000000000E+00 -0.57013312591E+03  0.57013312592E+03  0.25500000000E-02 0.  1.
    8880022    1    1    2    0    0 -0.25288575640E+03  0.51276089882E+03  0.70823780744E+03  0.92296662456E+03  0.15294330000E+03 0.  0.
    8880022    1    1    2    0    0  0.25288575640E+03 -0.51276089882E+03 -0.27354536181E+03  0.65199207290E+03  0.15294330000E+03 0.  0.
<mgrwt>
<rscale>  0 0.59183325E+03</rscale>
<asrwt>0</asrwt>
<pdfrwt beam="1">  1        2 0.15458855E+00 0.59183325E+03</pdfrwt>
<pdfrwt beam="2">  1       -2 0.87712789E-01 0.59183325E+03</pdfrwt>
<totfact> 0.28999663E+01</totfact>
</mgrwt>
</event>
<event>
 4    1  0.1033139E-008  0.3999526E+03  0.7818608E-02  0.1043796E+00
          2   -1    0    0  501    0  0.00000000000E+00  0.00000000000E+00  0.39501912543E+03  0.39501912544E+03  0.25500000000E-02 0. -1.
         -2   -1    0    0    0  501 -0.00000000000E+00 -0.00000000000E+00 -0.76701659615E+03  0.76701659616E+03  0.25500000000E-02 0.  1.
    8880022    1    1    2    0    0 -0.14383971540E+03 -0.34041234655E+03  0.21319408104E+03  0.45322599066E+03  0.15294330000E+03 0.  0.
    8880022    1    1    2    0    0  0.14383971540E+03  0.34041234655E+03 -0.58519155175E+03  0.70880973094E+03  0.15294330000E+03 0.  0.
<mgrwt>
<rscale>  0 0.39995260E+03</rscale>
<asrwt>0</asrwt>
<pdfrwt beam="1">  1        2 0.60772173E-01 0.39995260E+03</pdfrwt>
<pdfrwt beam="2">  1       -2 0.11800255E+00 0.39995260E+03</pdfrwt>
<totfact> 0.46518696E+01</totfact>
</mgrwt>
</event>
<event>
 4    1  0.1033139E-008  0.9429054E+03  0.7818608E-02  0.9373482E-01
         -2   -1    0    0    0  501 -0.00000000000E+00  0.00000000000E+00  0.73374339249E+03  0.73374339249E+03  0.25500000000E-02 0.  1.
          2   -1    0    0  501    0  0.00000000000E+00 -0.00000000000E+00 -0.12631820886E+04  0.12631820886E+04  0.25500000000E-02 0. -1.
    8880022    1    1    2    0    0 -0.36337735832E+03 -0.85652546949E+03 -0.46630646781E+03  0.10519089121E+04  0.15294330000E+03 0.  1.
    8880022    1    1    2    0    0  0.36337735832E+03  0.85652546949E+03 -0.63132228326E+02  0.94501656901E+03  0.15294330000E+03 0.  0.
<mgrwt>
<rscale>  0 0.94290542E+03</rscale>
<asrwt>0</asrwt>
<pdfrwt beam="1">  1        2 0.19433571E+00 0.94290542E+03</pdfrwt>
<pdfrwt beam="2">  1       -2 0.11288360E+00 0.94290542E+03</pdfrwt>
<totfact> 0.10707097E+01</totfact>
</mgrwt>
</event>
<event>
 4    1  0.1033139E-008  0.3643542E+03  0.7818608E-02  0.1056873E+00
         -2   -1    0    0    0  501 -0.00000000000E+00  0.00000000000E+00  0.74466873159E+02  0.74466873203E+02  0.25500000000E-02 0.  1.
          2   -1    0    0  501    0  0.00000000000E+00 -0.00000000000E+00 -0.22080203978E+04  0.22080203978E+04  0.25500000000E-02 0. -1.
    8880022    1    1    2    0    0  0.28885909833E+03 -0.16100541254E+03 -0.15676433320E+04  0.16094283429E+04  0.15294330000E+03 0.  1.
    8880022    1    1    2    0    0 -0.28885909833E+03  0.16100541254E+03 -0.56591019268E+03  0.67305892814E+03  0.15294330000E+03 0. -1.
<mgrwt>
<rscale>  0 0.36435419E+03</rscale>
<asrwt>0</asrwt>
<pdfrwt beam="1">  1        2 0.33969540E+00 0.36435419E+03</pdfrwt>
<pdfrwt beam="2">  1       -2 0.11456444E-01 0.36435419E+03</pdfrwt>
<totfact> 0.30253223E+02</totfact>
</mgrwt>
</event>
<event>
 4    1  0.1033139E-008  0.8965415E+03  0.7818608E-02  0.9429915E-01
          2   -1    0    0  501    0  0.00000000000E+00  0.00000000000E+00  0.12789797346E+04  0.12789797346E+04  0.25500000000E-02 0. -1.
         -2   -1    0    0    0  501 -0.00000000000E+00 -0.00000000000E+00 -0.70109537549E+03  0.70109537549E+03  0.25500000000E-02 0.  1.
    8880022    1    1    2    0    0 -0.45169968837E+03  0.75918537949E+03 -0.29726454833E+02  0.89703420450E+03  0.15294330000E+03 0.  0.
    8880022    1    1    2    0    0  0.45169968837E+03 -0.75918537949E+03  0.60761081390E+03  0.10830409055E+04  0.15294330000E+03 0.  0.
<mgrwt>
<rscale>  0 0.89654152E+03</rscale>
<asrwt>0</asrwt>
<pdfrwt beam="1">  1        2 0.19676611E+00 0.89654152E+03</pdfrwt>
<pdfrwt beam="2">  1       -2 0.10786083E+00 0.89654152E+03</pdfrwt>
<totfact> 0.11763022E+01</totfact>
</mgrwt>
</event>
<event>
 4    1  0.1033139E-008  0.1052761E+04  0.7818608E-02  0.9252498E-01
         -2   -1    0    0    0  501 -0.00000000000E+00  0.00000000000E+00  0.31142007916E+03  0.31142007917E+03  0.25500000000E-02 0.  1.
          2   -1    0    0  501    0  0.00000000000E+00 -0.00000000000E+00 -0.39250026508E+04  0.39250026508E+04  0.25500000000E-02 0. -1.
    8880022    1    1    2    0    0 -0.15271959598E+03 -0.10303351544E+04 -0.24537327153E+04  0.26700392687E+04  0.15294330000E+03 0.  0.
    8880022    1    1    2    0    0  0.15271959598E+03  0.10303351544E+04 -0.11598498564E+04  0.15663834613E+04  0.15294330000E+03 0.  0.
<mgrwt>
<rscale>  0 0.10527609E+04</rscale>
<asrwt>0</asrwt>
<pdfrwt beam="1">  1        2 0.60384652E+00 0.10527609E+04</pdfrwt>
<pdfrwt beam="2">  1       -2 0.47910784E-01 0.10527609E+04</pdfrwt>
<totfact> 0.16903170E+00</totfact>
</mgrwt>
</event>
<event>
 4    1  0.1033139E-008  0.4318203E+03  0.7818608E-02  0.1033286E+00
         -2   -1    0    0    0  501 -0.00000000000E+00  0.00000000000E+00  0.86233513799E+03  0.86233513799E+03  0.25500000000E-02 0.  1.
          2   -1    0    0  501    0  0.00000000000E+00 -0.00000000000E+00 -0.35968634180E+04  0.35968634180E+04  0.25500000000E-02 0. -1.
    8880022    1    1    2    0    0  0.26324116639E+03  0.30623718723E+03 -0.35288049074E+04  0.35551276846E+04  0.15294330000E+03 0.  0.
    8880022    1    1    2    0    0 -0.26324116639E+03 -0.30623718723E+03  0.79427662742E+03  0.90407087134E+03  0.15294330000E+03 0.  1.
<mgrwt>
<rscale>  0 0.43182031E+03</rscale>
<asrwt>0</asrwt>
<pdfrwt beam="1">  1        2 0.55336360E+00 0.43182031E+03</pdfrwt>
<pdfrwt beam="2">  1       -2 0.13266695E+00 0.43182031E+03</pdfrwt>
<totfact> 0.35026605E-01</totfact>
</mgrwt>
</event>
<event>
 4    1  0.1033139E-008  0.4447197E+03  0.7818608E-02  0.1029308E+00
         -2   -1    0    0    0  501 -0.00000000000E+00  0.00000000000E+00  0.20493614218E+03  0.20493614220E+03  0.25500000000E-02 0.  1.
          2   -1    0    0  501    0  0.00000000000E+00 -0.00000000000E+00 -0.18886275845E+04  0.18886275845E+04  0.25500000000E-02 0. -1.
    8880022    1    1    2    0    0  0.40976040734E+03  0.80500506250E+02 -0.10983493954E+03  0.45808218682E+03  0.15294330000E+03 0.  1.
    8880022    1    1    2    0    0 -0.40976040734E+03 -0.80500506250E+02 -0.15738565028E+04  0.16354815399E+04  0.15294330000E+03 0.  0.
<mgrwt>
<rscale>  0 0.44471966E+03</rscale>
<asrwt>0</asrwt>
<pdfrwt beam="1">  1        2 0.29055808E+00 0.44471966E+03</pdfrwt>
<pdfrwt beam="2">  1       -2 0.31528639E-01 0.44471966E+03</pdfrwt>
<totfact> 0.77032566E+01</totfact>
</mgrwt>
</event>
<event>
 4    1  0.1033139E-008  0.7303979E+03  0.7818608E-02  0.9666615E-01
          2   -1    0    0  501    0  0.00000000000E+00  0.00000000000E+00  0.21476786446E+04  0.21476786446E+04  0.25500000000E-02 0. -1.
         -2   -1    0    0    0  501 -0.00000000000E+00 -0.00000000000E+00 -0.39664180830E+03  0.39664180831E+03  0.25500000000E-02 0.  1.
    8880022    1    1    2    0    0  0.59158201708E+03  0.40015013405E+03  0.97787264331E+02  0.73691479480E+03  0.15294330000E+03 0.  0.
    8880022    1    1    2    0    0 -0.59158201708E+03 -0.40015013405E+03  0.16532495720E+04  0.18074056581E+04  0.15294330000E+03 0.  0.
<mgrwt>
<rscale>  0 0.73039788E+03</rscale>
<asrwt>0</asrwt>
<pdfrwt beam="1">  1        2 0.33041210E+00 0.73039788E+03</pdfrwt>
<pdfrwt beam="2">  1       -2 0.61021817E-01 0.73039788E+03</pdfrwt>
<totfact> 0.14378930E+01</totfact>
</mgrwt>
</event>
<event>
 4    1  0.1033139E-008  0.1020031E+04  0.7818608E-02  0.9286844E-01
         -2   -1    0    0    0  501 -0.00000000000E+00  0.00000000000E+00  0.13562061972E+04  0.13562061972E+04  0.25500000000E-02 0.  1.
          2   -1    0    0  501    0  0.00000000000E+00 -0.00000000000E+00 -0.16724727138E+04  0.16724727138E+04  0.25500000000E-02 0. -1.
    8880022    1    1    2    0    0 -0.49509358878E+03 -0.87860918734E+03 -0.12722651651E+04  0.16306814738E+04  0.15294330000E+03 0.  0.
    8880022    1    1    2    0    0  0.49509358878E+03  0.87860918734E+03  0.95599864841E+03  0.13979974372E+04  0.15294330000E+03 0.  0.
<mgrwt>
<rscale>  0 0.10200311E+04</rscale>
<asrwt>0</asrwt>
<pdfrwt beam="1">  1        2 0.25730350E+00 0.10200311E+04</pdfrwt>
<pdfrwt beam="2">  1       -2 0.20864711E+00 0.10200311E+04</pdfrwt>
<totfact> 0.11782693E+00</totfact>
</mgrwt>
</event>
<event>
 4    1  0.1033139E-008  0.8878211E+03  0.7818608E-02  0.9440935E-01
          2   -1    0    0  501    0  0.00000000000E+00  0.00000000000E+00  0.30283153979E+04  0.30283153979E+04  0.25500000000E-02 0. -1.
         -2   -1    0    0    0  501 -0.00000000000E+00 -0.00000000000E+00 -0.29801464662E+03  0.29801464664E+03  0.25500000000E-02 0.  1.
    8880022    1    1    2    0    0  0.74784242958E+03  0.45339431948E+03  0.77337694937E+03  0.11774286676E+04  0.15294330000E+03 0.  0.
    8880022    1    1    2    0    0 -0.74784242958E+03 -0.45339431948E+03  0.19569238019E+04  0.21489013770E+04  0.15294330000E+03 0.  0.
<mgrwt>
<rscale>  0 0.88782113E+03</rscale>
<asrwt>0</asrwt>
<pdfrwt beam="1">  1        2 0.46589469E+00 0.88782113E+03</pdfrwt>
<pdfrwt beam="2">  1       -2 0.45848406E-01 0.88782113E+03</pdfrwt>
<totfact> 0.78450222E+00</totfact>
</mgrwt>
</event>
<event>
 4    1  0.1033139E-008  0.3753055E+03  0.7818608E-02  0.1052683E+00
          2   -1    0    0  501    0  0.00000000000E+00  0.00000000000E+00  0.13503517525E+04  0.13503517525E+04  0.25500000000E-02 0. -1.
         -2   -1    0    0    0  501 -0.00000000000E+00 -0.00000000000E+00 -0.10486041157E+04  0.10486041157E+04  0.25500000000E-02 0.  1.
    8880022    1    1    2    0    0  0.32062052200E+03 -0.12109934874E+03  0.12891307151E+04  0.13426511926E+04  0.15294330000E+03 0.  0.
    8880022    1    1    2    0    0 -0.32062052200E+03  0.12109934874E+03 -0.98738307830E+03  0.10563046756E+04  0.15294330000E+03 0.  0.
<mgrwt>
<rscale>  0 0.37530551E+03</rscale>
<asrwt>0</asrwt>
<pdfrwt beam="1">  1        2 0.20774642E+00 0.37530551E+03</pdfrwt>
<pdfrwt beam="2">  1       -2 0.16132371E+00 0.37530551E+03</pdfrwt>
<totfact> 0.42274365E+00</totfact>
</mgrwt>
</event>
<event>
 4    1  0.1033139E-008  0.6164606E+03  0.7818608E-02  0.9871832E-01
         -2   -1    0    0    0  501 -0.00000000000E+00  0.00000000000E+00  0.76593097761E+03  0.76593097762E+03  0.25500000000E-02 0.  1.
          2   -1    0    0  501    0  0.00000000000E+00 -0.00000000000E+00 -0.77633447691E+03  0.77633447691E+03  0.25500000000E-02 0. -1.
    8880022    1    1    2    0    0  0.53638928212E+03 -0.26252343608E+03 -0.46845623755E+03  0.77425765477E+03  0.15294330000E+03 0.  0.
    8880022    1    1    2    0    0 -0.53638928212E+03  0.26252343608E+03  0.45805273825E+03  0.76800779976E+03  0.15294330000E+03 0.  0.
<mgrwt>
<rscale>  0 0.61646060E+03</rscale>
<asrwt>0</asrwt>
<pdfrwt beam="1">  1        2 0.11943607E+00 0.61646060E+03</pdfrwt>
<pdfrwt beam="2">  1       -2 0.11783554E+00 0.61646060E+03</pdfrwt>
<totfact> 0.20485636E+01</totfact>
</mgrwt>
</event>
<event>
 4    1  0.1033139E-008  0.5190290E+03  0.7818608E-02  0.1008928E+00
          2   -1    0    0  501    0  0.00000000000E+00  0.00000000000E+00  0.50972278876E+04  0.50972278876E+04  0.25500000000E-02 0. -1.
         -2   -1    0    0    0  501 -0.00000000000E+00 -0.00000000000E+00 -0.61010948718E+03  0.61010948718E+03  0.25500000000E-02 0.  1.
    8880022    1    1    2    0    0 -0.16542603082E+03  0.46758285010E+03  0.49708295653E+04  0.49978533106E+04  0.15294330000E+03 0. -1.
    8880022    1    1    2    0    0  0.16542603082E+03 -0.46758285010E+03 -0.48371116487E+03  0.70948406425E+03  0.15294330000E+03 0.  0.
<mgrwt>
<rscale>  0 0.51902904E+03</rscale>
<asrwt>0</asrwt>
<pdfrwt beam="1">  1        2 0.78418893E+00 0.51902904E+03</pdfrwt>
<pdfrwt beam="2">  1       -2 0.93862995E-01 0.51902904E+03</pdfrwt>
<totfact> 0.32423251E-02</totfact>
</mgrwt>
</event>
<event>
 4    1  0.1033139E-008  0.6376088E+03  0.7818608E-02  0.9830312E-01
         -2   -1    0    0    0  501 -0.00000000000E+00  0.00000000000E+00  0.19364532135E+03  0.19364532137E+03  0.25500000000E-02 0.  1.
          2   -1    0    0  501    0  0.00000000000E+00 -0.00000000000E+00 -0.27125959177E+04  0.27125959177E+04  0.25500000000E-02 0. -1.
    8880022    1    1    2    0    0  0.18486679513E+03 -0.59074331114E+03 -0.19503474134E+04  0.20519259435E+04  0.15294330000E+03 0.  0.
    8880022    1    1    2    0    0 -0.18486679513E+03  0.59074331114E+03 -0.56860318297E+03  0.85431529561E+03  0.15294330000E+03 0.  1.
<mgrwt>
<rscale>  0 0.63760885E+03</rscale>
<asrwt>0</asrwt>
<pdfrwt beam="1">  1        2 0.41732242E+00 0.63760885E+03</pdfrwt>
<pdfrwt beam="2">  1       -2 0.29791590E-01 0.63760885E+03</pdfrwt>
<totfact> 0.28967750E+01</totfact>
</mgrwt>
</event>
<event>
 4    1  0.1033139E-008  0.9000453E+03  0.7818608E-02  0.9425525E-01
         -2   -1    0    0    0  501 -0.00000000000E+00  0.00000000000E+00  0.12286722100E+04  0.12286722100E+04  0.25500000000E-02 0.  1.
          2   -1    0    0  501    0  0.00000000000E+00 -0.00000000000E+00 -0.92947737770E+03  0.92947737770E+03  0.25500000000E-02 0. -1.
    8880022    1    1    2    0    0  0.26134341089E+03  0.84757861329E+03  0.73135879361E+03  0.11597272188E+04  0.15294330000E+03 0.  0.
    8880022    1    1    2    0    0 -0.26134341089E+03 -0.84757861329E+03 -0.43216396133E+03  0.99842236884E+03  0.15294330000E+03 0.  0.
<mgrwt>
<rscale>  0 0.90004530E+03</rscale>
<asrwt>0</asrwt>
<pdfrwt beam="1">  1        2 0.14299652E+00 0.90004530E+03</pdfrwt>
<pdfrwt beam="2">  1       -2 0.18902649E+00 0.90004530E+03</pdfrwt>
<totfact> 0.44195773E+00</totfact>
</mgrwt>
</event>
<event>
 4    1  0.1033139E-008  0.7494850E+03  0.7818608E-02  0.9636159E-01
          2   -1    0    0  501    0  0.00000000000E+00  0.00000000000E+00  0.25325255725E+04  0.25325255725E+04  0.25500000000E-02 0. -1.
         -2   -1    0    0    0  501 -0.00000000000E+00 -0.00000000000E+00 -0.75068062986E+03  0.75068062987E+03  0.25500000000E-02 0.  1.
    8880022    1    1    2    0    0  0.88281125138E+00  0.73371340738E+03  0.22688208237E+04  0.23894090748E+04  0.15294330000E+03 0.  0.
    8880022    1    1    2    0    0 -0.88281125138E+00 -0.73371340738E+03 -0.48697588107E+03  0.89379712759E+03  0.15294330000E+03 0.  1.
<mgrwt>
<rscale>  0 0.74948502E+03</rscale>
<asrwt>0</asrwt>
<pdfrwt beam="1">  1        2 0.38961932E+00 0.74948502E+03</pdfrwt>
<pdfrwt beam="2">  1       -2 0.11548933E+00 0.74948502E+03</pdfrwt>
<totfact> 0.20457680E+00</totfact>
</mgrwt>
</event>
<event>
 4    1  0.1033139E-008  0.5472847E+03  0.7818608E-02  0.1002124E+00
         -2   -1    0    0    0  501 -0.00000000000E+00  0.00000000000E+00  0.59119154346E+03  0.59119154346E+03  0.25500000000E-02 0.  1.
          2   -1    0    0  501    0  0.00000000000E+00 -0.00000000000E+00 -0.21183790894E+04  0.21183790894E+04  0.25500000000E-02 0. -1.
    8880022    1    1    2    0    0 -0.14618160071E+03 -0.50473743072E+03  0.41813053412E+03  0.68873342517E+03  0.15294330000E+03 0.  0.
    8880022    1    1    2    0    0  0.14618160071E+03  0.50473743072E+03 -0.19453180800E+04  0.20208372077E+04  0.15294330000E+03 0.  0.
<mgrwt>
<rscale>  0 0.54728474E+03</rscale>
<asrwt>0</asrwt>
<pdfrwt beam="1">  1        2 0.32590447E+00 0.54728474E+03</pdfrwt>
<pdfrwt beam="2">  1       -2 0.90952546E-01 0.54728474E+03</pdfrwt>
<totfact> 0.63948403E+00</totfact>
</mgrwt>
</event>
<event>
 4    1  0.1033139E-008  0.9257716E+03  0.7818608E-02  0.9393927E-01
         -2   -1    0    0    0  501 -0.00000000000E+00  0.00000000000E+00  0.13625373190E+04  0.13625373190E+04  0.25500000000E-02 0.  1.
          2   -1    0    0  501    0  0.00000000000E+00 -0.00000000000E+00 -0.98081075499E+03  0.98081075500E+03  0.25500000000E-02 0. -1.
    8880022    1    1    2    0    0  0.85561827519E+03 -0.31871424773E+03  0.89257869148E+03  0.12859820287E+04  0.15294330000E+03 0.  1.
    8880022    1    1    2    0    0 -0.85561827519E+03  0.31871424773E+03 -0.51085212751E+03  0.10573660453E+04  0.15294330000E+03 0.  0.
<mgrwt>
<rscale>  0 0.92577160E+03</rscale>
<asrwt>0</asrwt>
<pdfrwt beam="1">  1        2 0.15089396E+00 0.92577160E+03</pdfrwt>
<pdfrwt beam="2">  1       -2 0.20962113E+00 0.92577160E+03</pdfrwt>
<totfact> 0.29890160E+00</totfact>
</mgrwt>
</event>
<event>
 4    1  0.1033139E-008  0.9674335E+03  0.7818608E-02  0.9345002E-01
         -2   -1    0    0    0  501 -0.00000000000E+00  0.00000000000E+00  0.52118141292E+03  0.52118141292E+03  0.25500000000E-02 0.  1.
          2   -1    0    0  501    0  0.00000000000E+00 -0.00000000000E+00 -0.33035642331E+04  0.33035642331E+04  0.25500000000E-02 0. -1.
    8880022    1    1    2    0    0  0.13017858068E+03 -0.94635591055E+03 -0.99226688140E+02  0.97250890020E+03  0.15294330000E+03 0.  0.
    8880022    1    1    2    0    0 -0.13017858068E+03  0.94635591055E+03 -0.26831561320E+04  0.28522367458E+04  0.15294330000E+03 0.  0.
<mgrwt>
<rscale>  0 0.96743353E+03</rscale>
<asrwt>0</asrwt>
<pdfrwt beam="1">  1        2 0.50824064E+00 0.96743353E+03</pdfrwt>
<pdfrwt beam="2">  1       -2 0.80181757E-01 0.96743353E+03</pdfrwt>
<totfact> 0.15767148E+00</totfact>
</mgrwt>
</event>
<event>
 4    1  0.1033139E-008  0.1277903E+04  0.7818608E-02  0.9047274E-01
         -2   -1    0    0    0  501 -0.00000000000E+00  0.00000000000E+00  0.52848043437E+03  0.52848043437E+03  0.25500000000E-02 0.  1.
          2   -1    0    0  501    0  0.00000000000E+00 -0.00000000000E+00 -0.42404330314E+04  0.42404330314E+04  0.25500000000E-02 0. -1.
    8880022    1    1    2    0    0  0.30253784552E+02  0.12683565423E+04 -0.61402650153E+03  0.14177671908E+04  0.15294330000E+03 0.  0.
    8880022    1    1    2    0    0 -0.30253784552E+02 -0.12683565423E+04 -0.30979260955E+04  0.33511462749E+04  0.15294330000E+03 0.  0.
<mgrwt>
<rscale>  0 0.12779027E+04</rscale>
<asrwt>0</asrwt>
<pdfrwt beam="1">  1        2 0.65237429E+00 0.12779027E+04</pdfrwt>
<pdfrwt beam="2">  1       -2 0.81304685E-01 0.12779027E+04</pdfrwt>
<totfact> 0.28874278E-01</totfact>
</mgrwt>
</event>
<event>
 4    1  0.1033139E-008  0.7686380E+03  0.7818608E-02  0.9606556E-01
         -2   -1    0    0    0  501 -0.00000000000E+00  0.00000000000E+00  0.20271980556E+04  0.20271980556E+04  0.25500000000E-02 0.  1.
          2   -1    0    0  501    0  0.00000000000E+00 -0.00000000000E+00 -0.16314608634E+04  0.16314608634E+04  0.25500000000E-02 0. -1.
    8880022    1    1    2    0    0  0.45561486045E+03 -0.59985650492E+03 -0.14600360776E+04  0.16500029480E+04  0.15294330000E+03 0.  0.
    8880022    1    1    2    0    0 -0.45561486045E+03  0.59985650492E+03  0.18557732698E+04  0.20086559709E+04  0.15294330000E+03 0.  0.
<mgrwt>
<rscale>  0 0.76863800E+03</rscale>
<asrwt>0</asrwt>
<pdfrwt beam="1">  1        2 0.25099398E+00 0.76863800E+03</pdfrwt>
<pdfrwt beam="2">  1       -2 0.31187662E+00 0.76863800E+03</pdfrwt>
<totfact> 0.30390270E-01</totfact>
</mgrwt>
</event>
<event>
 4    1  0.1033139E-008  0.1276663E+04  0.7818608E-02  0.9048279E-01
          2   -1    0    0  501    0  0.00000000000E+00  0.00000000000E+00  0.34763596388E+04  0.34763596388E+04  0.25500000000E-02 0. -1.
         -2   -1    0    0    0  501 -0.00000000000E+00 -0.00000000000E+00 -0.58586754374E+03  0.58586754375E+03  0.25500000000E-02 0.  1.
    8880022    1    1    2    0    0  0.34558432740E+03 -0.12194459894E+04  0.53748404527E+03  0.13851923333E+04  0.15294330000E+03 0.  0.
    8880022    1    1    2    0    0 -0.34558432740E+03  0.12194459894E+04  0.23530080497E+04  0.26770348492E+04  0.15294330000E+03 0.  0.
<mgrwt>
<rscale>  0 0.12766631E+04</rscale>
<asrwt>0</asrwt>
<pdfrwt beam="1">  1        2 0.53482456E+00 0.12766631E+04</pdfrwt>
<pdfrwt beam="2">  1       -2 0.90133468E-01 0.12766631E+04</pdfrwt>
<totfact> 0.88112222E-01</totfact>
</mgrwt>
</event>
<event>
 4    1  0.1033139E-008  0.1629381E+03  0.7818608E-02  0.1185419E+00
          2   -1    0    0  501    0  0.00000000000E+00  0.00000000000E+00  0.15475175938E+04  0.15475175938E+04  0.25500000000E-02 0. -1.
         -2   -1    0    0    0  501 -0.00000000000E+00 -0.00000000000E+00 -0.22365526732E+03  0.22365526733E+03  0.25500000000E-02 0.  1.
    8880022    1    1    2    0    0 -0.54196388130E+02 -0.14829855317E+02 -0.18901269429E+03  0.24954884234E+03  0.15294330000E+03 0.  0.
    8880022    1    1    2    0    0  0.54196388130E+02  0.14829855317E+02  0.15128750207E+04  0.15216240188E+04  0.15294330000E+03 0. -1.
<mgrwt>
<rscale>  0 0.16293811E+03</rscale>
<asrwt>0</asrwt>
<pdfrwt beam="1">  1        2 0.23807963E+00 0.16293811E+03</pdfrwt>
<pdfrwt beam="2">  1       -2 0.34408502E-01 0.16293811E+03</pdfrwt>
<totfact> 0.10696610E+02</totfact>
</mgrwt>
</event>
<event>
 4    1  0.1033139E-008  0.2936876E+03  0.7818608E-02  0.1088439E+00
         -2   -1    0    0    0  501 -0.00000000000E+00  0.00000000000E+00  0.83672854165E+02  0.83672854204E+02  0.25500000000E-02 0.  1.
          2   -1    0    0  501    0  0.00000000000E+00 -0.00000000000E+00 -0.21313298209E+04  0.21313298209E+04  0.25500000000E-02 0. -1.
    8880022    1    1    2    0    0  0.24716001118E+03  0.42103026889E+02 -0.18196472034E+04  0.18431951426E+04  0.15294330000E+03 0.  0.
    8880022    1    1    2    0    0 -0.24716001118E+03 -0.42103026889E+02 -0.22800976332E+03  0.37180753245E+03  0.15294330000E+03 0.  0.
<mgrwt>
<rscale>  0 0.29368757E+03</rscale>
<asrwt>0</asrwt>
<pdfrwt beam="1">  1        2 0.32789685E+00 0.29368757E+03</pdfrwt>
<pdfrwt beam="2">  1       -2 0.12872748E-01 0.29368757E+03</pdfrwt>
<totfact> 0.27871512E+02</totfact>
</mgrwt>
</event>
<event>
 4    1  0.1033139E-008  0.1742428E+04  0.7818608E-02  0.8737529E-01
          2   -1    0    0  501    0  0.00000000000E+00  0.00000000000E+00  0.16458102589E+04  0.16458102589E+04  0.25500000000E-02 0. -1.
         -2   -1    0    0    0  501 -0.00000000000E+00 -0.00000000000E+00 -0.22106231271E+04  0.22106231271E+04  0.25500000000E-02 0.  1.
    8880022    1    1    2    0    0 -0.10355901147E+04 -0.13929171560E+04 -0.10668873713E+04  0.20431116967E+04  0.15294330000E+03 0.  0.
    8880022    1    1    2    0    0  0.10355901147E+04  0.13929171560E+04  0.50207450307E+03  0.18133216893E+04  0.15294330000E+03 0.  0.
<mgrwt>
<rscale>  0 0.17424284E+04</rscale>
<asrwt>0</asrwt>
<pdfrwt beam="1">  1        2 0.25320158E+00 0.17424284E+04</pdfrwt>
<pdfrwt beam="2">  1       -2 0.34009586E+00 0.17424284E+04</pdfrwt>
<totfact> 0.17293394E-01</totfact>
</mgrwt>
</event>
<event>
 4    1  0.1033139E-008  0.2021347E+04  0.7818608E-02  0.8596705E-01
         -2   -1    0    0    0  501 -0.00000000000E+00  0.00000000000E+00  0.17848195555E+04  0.17848195555E+04  0.25500000000E-02 0.  1.
          2   -1    0    0  501    0  0.00000000000E+00 -0.00000000000E+00 -0.28639748941E+04  0.28639748941E+04  0.25500000000E-02 0. -1.
    8880022    1    1    2    0    0  0.72089114989E+03 -0.18822246801E+04  0.50170084900E+03  0.20826783697E+04  0.15294330000E+03 0.  0.
    8880022    1    1    2    0    0 -0.72089114989E+03  0.18822246801E+04 -0.15808561877E+04  0.25661160799E+04  0.15294330000E+03 0.  0.
<mgrwt>
<rscale>  0 0.20213474E+04</rscale>
<asrwt>0</asrwt>
<pdfrwt beam="1">  1        2 0.44061152E+00 0.20213474E+04</pdfrwt>
<pdfrwt beam="2">  1       -2 0.27458762E+00 0.20213474E+04</pdfrwt>
<totfact> 0.84979367E-02</totfact>
</mgrwt>
</event>
<event>
 4    1  0.1033139E-008  0.6611884E+03  0.7818608E-02  0.9786008E-01
         -2   -1    0    0    0  501 -0.00000000000E+00  0.00000000000E+00  0.84964413758E+03  0.84964413759E+03  0.25500000000E-02 0.  1.
          2   -1    0    0  501    0  0.00000000000E+00 -0.00000000000E+00 -0.99967387353E+03  0.99967387353E+03  0.25500000000E-02 0. -1.
    8880022    1    1    2    0    0  0.76367111996E+02 -0.63870695512E+03  0.56913400572E+03  0.87240110029E+03  0.15294330000E+03 0.  1.
    8880022    1    1    2    0    0 -0.76367111996E+02  0.63870695512E+03 -0.71916374167E+03  0.97691691083E+03  0.15294330000E+03 0.  0.
<mgrwt>
<rscale>  0 0.66118845E+03</rscale>
<asrwt>0</asrwt>
<pdfrwt beam="1">  1        2 0.15379598E+00 0.66118845E+03</pdfrwt>
<pdfrwt beam="2">  1       -2 0.13071448E+00 0.66118845E+03</pdfrwt>
<totfact> 0.11103572E+01</totfact>
</mgrwt>
</event>
<event>
 4    1  0.1033139E-008  0.9028134E+03  0.7818608E-02  0.9422071E-01
         -2   -1    0    0    0  501 -0.00000000000E+00  0.00000000000E+00  0.13695669322E+04  0.13695669322E+04  0.25500000000E-02 0.  1.
          2   -1    0    0  501    0  0.00000000000E+00 -0.00000000000E+00 -0.67796765038E+03  0.67796765039E+03  0.25500000000E-02 0. -1.
    8880022    1    1    2    0    0  0.84239654101E+03 -0.28644086665E+03 -0.12055789928E+02  0.90289384618E+03  0.15294330000E+03 0.  0.
    8880022    1    1    2    0    0 -0.84239654101E+03  0.28644086665E+03  0.70365507170E+03  0.11446407364E+04  0.15294330000E+03 0.  0.
<mgrwt>
<rscale>  0 0.90281336E+03</rscale>
<asrwt>0</asrwt>
<pdfrwt beam="1">  1        2 0.10430272E+00 0.90281336E+03</pdfrwt>
<pdfrwt beam="2">  1       -2 0.21070260E+00 0.90281336E+03</pdfrwt>
<totfact> 0.48550639E+00</totfact>
</mgrwt>
</event>
<event>
 4    1  0.1033139E-008  0.9085715E+03  0.7818608E-02  0.9414930E-01
         -2   -1    0    0    0  501 -0.00000000000E+00  0.00000000000E+00  0.65753607702E+03  0.65753607703E+03  0.25500000000E-02 0.  1.
          2   -1    0    0  501    0  0.00000000000E+00 -0.00000000000E+00 -0.24366363781E+04  0.24366363781E+04  0.25500000000E-02 0. -1.
    8880022    1    1    2    0    0 -0.67323822230E+03  0.59064437056E+03  0.18760634116E+03  0.92773825441E+03  0.15294330000E+03 0.  0.
    8880022    1    1    2    0    0  0.67323822230E+03 -0.59064437056E+03 -0.19667066422E+04  0.21664342007E+04  0.15294330000E+03 0.  0.
<mgrwt>
<rscale>  0 0.90857148E+03</rscale>
<asrwt>0</asrwt>
<pdfrwt beam="1">  1        2 0.37486713E+00 0.90857148E+03</pdfrwt>
<pdfrwt beam="2">  1       -2 0.10115940E+00 0.90857148E+03</pdfrwt>
<totfact> 0.31069183E+00</totfact>
</mgrwt>
</event>
<event>
 4    1  0.1033139E-008  0.1185394E+04  0.7818608E-02  0.9125738E-01
          2   -1    0    0  501    0  0.00000000000E+00  0.00000000000E+00  0.20864244426E+04  0.20864244426E+04  0.25500000000E-02 0. -1.
         -2   -1    0    0    0  501 -0.00000000000E+00 -0.00000000000E+00 -0.89272344650E+03  0.89272344651E+03  0.25500000000E-02 0.  1.
    8880022    1    1    2    0    0  0.45699406456E+03  0.10830162347E+04  0.13350430040E+04  0.17853568873E+04  0.15294330000E+03 0.  0.
    8880022    1    1    2    0    0 -0.45699406456E+03 -0.10830162347E+04 -0.14134200796E+03  0.11937910017E+04  0.15294330000E+03 0.  0.
<mgrwt>
<rscale>  0 0.11853942E+04</rscale>
<asrwt>0</asrwt>
<pdfrwt beam="1">  1        2 0.32098837E+00 0.11853942E+04</pdfrwt>
<pdfrwt beam="2">  1       -2 0.13734207E+00 0.11853942E+04</pdfrwt>
<totfact> 0.22042502E+00</totfact>
</mgrwt>
</event>
<event>
 4    1  0.1033139E-008  0.1676343E+04  0.7818608E-02  0.8774973E-01
         -2   -1    0    0    0  501 -0.00000000000E+00  0.00000000000E+00  0.13603701205E+04  0.13603701205E+04  0.25500000000E-02 0.  1.
          2   -1    0    0  501    0  0.00000000000E+00 -0.00000000000E+00 -0.28647408063E+04  0.28647408063E+04  0.25500000000E-02 0. -1.
    8880022    1    1    2    0    0  0.10277168218E+04  0.13154974326E+04 -0.18678863968E+04  0.25098060891E+04  0.15294330000E+03 0.  0.
    8880022    1    1    2    0    0 -0.10277168218E+04 -0.13154974326E+04  0.36351571096E+03  0.17153048376E+04  0.15294330000E+03 0.  0.
<mgrwt>
<rscale>  0 0.16763433E+04</rscale>
<asrwt>0</asrwt>
<pdfrwt beam="1">  1        2 0.44072935E+00 0.16763433E+04</pdfrwt>
<pdfrwt beam="2">  1       -2 0.20928771E+00 0.16763433E+04</pdfrwt>
<totfact> 0.22533301E-01</totfact>
</mgrwt>
</event>
<event>
 4    1  0.1033139E-008  0.1618089E+04  0.7818608E-02  0.8809512E-01
         -2   -1    0    0    0  501 -0.00000000000E+00  0.00000000000E+00  0.25430716757E+04  0.25430716757E+04  0.25500000000E-02 0.  1.
          2   -1    0    0  501    0  0.00000000000E+00 -0.00000000000E+00 -0.16609416664E+04  0.16609416664E+04  0.25500000000E-02 0. -1.
    8880022    1    1    2    0    0  0.12767480248E+04 -0.98220885083E+03 -0.85494218476E+03  0.18300648999E+04  0.15294330000E+03 0.  0.
    8880022    1    1    2    0    0 -0.12767480248E+04  0.98220885083E+03  0.17370721941E+04  0.23739484422E+04  0.15294330000E+03 0.  0.
<mgrwt>
<rscale>  0 0.16180888E+04</rscale>
<asrwt>0</asrwt>
<pdfrwt beam="1">  1        2 0.25552949E+00 0.16180888E+04</pdfrwt>
<pdfrwt beam="2">  1       -2 0.39124180E+00 0.16180888E+04</pdfrwt>
<totfact> 0.81003156E-02</totfact>
</mgrwt>
</event>
<event>
 4    1  0.1033139E-008  0.1700590E+04  0.7818608E-02  0.8761028E-01
          2   -1    0    0  501    0  0.00000000000E+00  0.00000000000E+00  0.20902650636E+04  0.20902650636E+04  0.25500000000E-02 0. -1.
         -2   -1    0    0    0  501 -0.00000000000E+00 -0.00000000000E+00 -0.19322703682E+04  0.19322703682E+04  0.25500000000E-02 0.  1.
    8880022    1    1    2    0    0 -0.16924583759E+04 -0.64806636087E+02 -0.99278737248E+03  0.19691708088E+04  0.15294330000E+03 0.  0.
    8880022    1    1    2    0    0  0.16924583759E+04  0.64806636087E+02  0.11507820679E+04  0.20533646230E+04  0.15294330000E+03 0.  0.
<mgrwt>
<rscale>  0 0.17005902E+04</rscale>
<asrwt>0</asrwt>
<pdfrwt beam="1">  1        2 0.32157924E+00 0.17005902E+04</pdfrwt>
<pdfrwt beam="2">  1       -2 0.29727237E+00 0.17005902E+04</pdfrwt>
<totfact> 0.18013683E-01</totfact>
</mgrwt>
</event>
<event>
 4    1  0.1033139E-008  0.8969482E+03  0.7818608E-02  0.9429404E-01
          2   -1    0    0  501    0  0.00000000000E+00  0.00000000000E+00  0.19856385179E+04  0.19856385179E+04  0.25500000000E-02 0. -1.
         -2   -1    0    0    0  501 -0.00000000000E+00 -0.00000000000E+00 -0.89997986213E+03  0.89997986213E+03  0.25500000000E-02 0.  1.
    8880022    1    1    2    0    0  0.83615148226E+03 -0.28631299018E+03 -0.52699581225E+03  0.10403079682E+04  0.15294330000E+03 0.  0.
    8880022    1    1    2    0    0 -0.83615148226E+03  0.28631299018E+03  0.16126544681E+04  0.18453104118E+04  0.15294330000E+03 0.  0.
<mgrwt>
<rscale>  0 0.89694821E+03</rscale>
<asrwt>0</asrwt>
<pdfrwt beam="1">  1        2 0.30548284E+00 0.89694821E+03</pdfrwt>
<pdfrwt beam="2">  1       -2 0.13845844E+00 0.89694821E+03</pdfrwt>
<totfact> 0.25465913E+00</totfact>
</mgrwt>
</event>
<event>
 4    1  0.1033139E-008  0.4973860E+03  0.7818608E-02  0.1014463E+00
          2   -1    0    0  501    0  0.00000000000E+00  0.00000000000E+00  0.75439743445E+03  0.75439743445E+03  0.25500000000E-02 0. -1.
         -2   -1    0    0    0  501 -0.00000000000E+00 -0.00000000000E+00 -0.14337950030E+04  0.14337950030E+04  0.25500000000E-02 0.  1.
    8880022    1    1    2    0    0  0.67223950623E+02 -0.46848921591E+03  0.62116579065E+03  0.79576365678E+03  0.15294330000E+03 0.  0.
    8880022    1    1    2    0    0 -0.67223950623E+02  0.46848921591E+03 -0.13005633592E+04  0.13924287807E+04  0.15294330000E+03 0.  0.
<mgrwt>
<rscale>  0 0.49738603E+03</rscale>
<asrwt>0</asrwt>
<pdfrwt beam="1">  1        2 0.11606114E+00 0.49738603E+03</pdfrwt>
<pdfrwt beam="2">  1       -2 0.22058385E+00 0.49738603E+03</pdfrwt>
<totfact> 0.39048295E+00</totfact>
</mgrwt>
</event>
<event>
 4    1  0.1033139E-008  0.3264836E+03  0.7818608E-02  0.1072703E+00
         -2   -1    0    0    0  501 -0.00000000000E+00  0.00000000000E+00  0.17517142141E+03  0.17517142143E+03  0.25500000000E-02 0.  1.
          2   -1    0    0  501    0  0.00000000000E+00 -0.00000000000E+00 -0.79901618728E+03  0.79901618728E+03  0.25500000000E-02 0. -1.
    8880022    1    1    2    0    0 -0.27591234424E+03  0.84096794451E+02 -0.54977201157E+03  0.63940660793E+03  0.15294330000E+03 0.  0.
    8880022    1    1    2    0    0  0.27591234424E+03 -0.84096794451E+02 -0.74072754302E+02  0.33478100078E+03  0.15294330000E+03 0.  0.
<mgrwt>
<rscale>  0 0.32648361E+03</rscale>
<asrwt>0</asrwt>
<pdfrwt beam="1">  1        2 0.12292557E+00 0.32648361E+03</pdfrwt>
<pdfrwt beam="2">  1       -2 0.26949450E-01 0.32648361E+03</pdfrwt>
<totfact> 0.44249785E+02</totfact>
</mgrwt>
</event>
<event>
 4    1  0.1033139E-008  0.1486448E+04  0.7818608E-02  0.8893515E-01
          2   -1    0    0  501    0  0.00000000000E+00  0.00000000000E+00  0.22717110402E+04  0.22717110402E+04  0.25500000000E-02 0. -1.
         -2   -1    0    0    0  501 -0.00000000000E+00 -0.00000000000E+00 -0.12917368780E+04  0.12917368780E+04  0.25500000000E-02 0.  1.
    8880022    1    1    2    0    0  0.31542161310E+03  0.14445224807E+04  0.13755582515E+04  0.20252624886E+04  0.15294330000E+03 0.  0.
    8880022    1    1    2    0    0 -0.31542161310E+03 -0.14445224807E+04 -0.39558408942E+03  0.15381854296E+04  0.15294330000E+03 0.  0.
<mgrwt>
<rscale>  0 0.14864480E+04</rscale>
<asrwt>0</asrwt>
<pdfrwt beam="1">  1        2 0.34949401E+00 0.14864480E+04</pdfrwt>
<pdfrwt beam="2">  1       -2 0.19872875E+00 0.14864480E+04</pdfrwt>
<totfact> 0.59996716E-01</totfact>
</mgrwt>
</event>
<event>
 4    1  0.1033139E-008  0.1390772E+04  0.7818608E-02  0.8960525E-01
          2   -1    0    0  501    0  0.00000000000E+00  0.00000000000E+00  0.18941434682E+04  0.18941434682E+04  0.25500000000E-02 0. -1.
         -2   -1    0    0    0  501 -0.00000000000E+00 -0.00000000000E+00 -0.14778757659E+04  0.14778757659E+04  0.25500000000E-02 0.  1.
    8880022    1    1    2    0    0 -0.18137188131E+03  0.13703869128E+04 -0.72912169979E+03  0.15703076629E+04  0.15294330000E+03 0.  0.
    8880022    1    1    2    0    0  0.18137188131E+03 -0.13703869128E+04  0.11453894021E+04  0.18017115711E+04  0.15294330000E+03 0.  0.
<mgrwt>
<rscale>  0 0.13907723E+04</rscale>
<asrwt>0</asrwt>
<pdfrwt beam="1">  1        2 0.29140669E+00 0.13907723E+04</pdfrwt>
<pdfrwt beam="2">  1       -2 0.22736550E+00 0.13907723E+04</pdfrwt>
<totfact> 0.64507693E-01</totfact>
</mgrwt>
</event>
<event>
 4    1  0.1033139E-008  0.1102634E+04  0.7818608E-02  0.9202628E-01
          2   -1    0    0  501    0  0.00000000000E+00  0.00000000000E+00  0.16004339760E+04  0.16004339760E+04  0.25500000000E-02 0. -1.
         -2   -1    0    0    0  501 -0.00000000000E+00 -0.00000000000E+00 -0.13860226260E+04  0.13860226260E+04  0.25500000000E-02 0.  1.
    8880022    1    1    2    0    0 -0.96078058859E+02 -0.10877406205E+04 -0.89660166807E+03  0.14211603903E+04  0.15294330000E+03 0.  0.
    8880022    1    1    2    0    0  0.96078058859E+02  0.10877406205E+04  0.11110130181E+04  0.15652962117E+04  0.15294330000E+03 0.  0.
<mgrwt>
<rscale>  0 0.11026343E+04</rscale>
<asrwt>0</asrwt>
<pdfrwt beam="1">  1        2 0.24622061E+00 0.11026343E+04</pdfrwt>
<pdfrwt beam="2">  1       -2 0.21323425E+00 0.11026343E+04</pdfrwt>
<totfact> 0.11943512E+00</totfact>
</mgrwt>
</event>
<event>
 4    1  0.1033139E-008  0.6387959E+03  0.7818608E-02  0.9828033E-01
         -2   -1    0    0    0  501 -0.00000000000E+00  0.00000000000E+00  0.14701368177E+03  0.14701368179E+03  0.25500000000E-02 0.  1.
          2   -1    0    0  501    0  0.00000000000E+00 -0.00000000000E+00 -0.53441009537E+04  0.53441009537E+04  0.25500000000E-02 0. -1.
    8880022    1    1    2    0    0 -0.43570206525E+03 -0.44139807335E+03 -0.45019339833E+04  0.45470286773E+04  0.15294330000E+03 0.  0.
    8880022    1    1    2    0    0  0.43570206525E+03  0.44139807335E+03 -0.69515328862E+03  0.94408595822E+03  0.15294330000E+03 0.  0.
<mgrwt>
<rscale>  0 0.63879590E+03</rscale>
<asrwt>0</asrwt>
<pdfrwt beam="1">  1        2 0.82216923E+00 0.63879590E+03</pdfrwt>
<pdfrwt beam="2">  1       -2 0.22617494E-01 0.63879590E+03</pdfrwt>
<totfact> 0.23997708E-01</totfact>
</mgrwt>
</event>
<event>
 4    1  0.1033139E-008  0.1995778E+04  0.7818608E-02  0.8608597E-01
          2   -1    0    0  501    0  0.00000000000E+00  0.00000000000E+00  0.30918735538E+04  0.30918735538E+04  0.25500000000E-02 0. -1.
         -2   -1    0    0    0  501 -0.00000000000E+00 -0.00000000000E+00 -0.17656310050E+04  0.17656310050E+04  0.25500000000E-02 0.  1.
    8880022    1    1    2    0    0  0.19736730184E+04  0.25367903086E+03 -0.59975939710E+03  0.20839484691E+04  0.15294330000E+03 0.  0.
    8880022    1    1    2    0    0 -0.19736730184E+04 -0.25367903086E+03  0.19260019459E+04  0.27735560898E+04  0.15294330000E+03 0.  0.
<mgrwt>
<rscale>  0 0.19957780E+04</rscale>
<asrwt>0</asrwt>
<pdfrwt beam="1">  1        2 0.47567285E+00 0.19957780E+04</pdfrwt>
<pdfrwt beam="2">  1       -2 0.27163554E+00 0.19957780E+04</pdfrwt>
<totfact> 0.63960400E-02</totfact>
</mgrwt>
</event>
<event>
 4    1  0.1033139E-008  0.6531424E+03  0.7818608E-02  0.9800901E-01
          2   -1    0    0  501    0  0.00000000000E+00  0.00000000000E+00  0.29160364330E+04  0.29160364330E+04  0.25500000000E-02 0. -1.
         -2   -1    0    0    0  501 -0.00000000000E+00 -0.00000000000E+00 -0.16632536845E+03  0.16632536847E+03  0.25500000000E-02 0.  1.
    8880022    1    1    2    0    0 -0.47567117193E+03 -0.42064269173E+03  0.19097193543E+04  0.20183218285E+04  0.15294330000E+03 0.  0.
    8880022    1    1    2    0    0  0.47567117193E+03  0.42064269173E+03  0.83999171018E+03  0.10640399730E+04  0.15294330000E+03 0.  0.
<mgrwt>
<rscale>  0 0.65314240E+03</rscale>
<asrwt>0</asrwt>
<pdfrwt beam="1">  1        2 0.44862098E+00 0.65314240E+03</pdfrwt>
<pdfrwt beam="2">  1       -2 0.25588519E-01 0.65314240E+03</pdfrwt>
<totfact> 0.28932801E+01</totfact>
</mgrwt>
</event>
<event>
 4    1  0.1033139E-008  0.1009257E+04  0.7818608E-02  0.9298449E-01
         -2   -1    0    0    0  501 -0.00000000000E+00  0.00000000000E+00  0.13766591573E+04  0.13766591573E+04  0.25500000000E-02 0.  1.
          2   -1    0    0  501    0  0.00000000000E+00 -0.00000000000E+00 -0.14599195115E+04  0.14599195115E+04  0.25500000000E-02 0. -1.
    8880022    1    1    2    0    0 -0.65705131160E+03 -0.75066140608E+03 -0.10376551092E+04  0.14475250435E+04  0.15294330000E+03 0.  0.
    8880022    1    1    2    0    0  0.65705131160E+03  0.75066140608E+03  0.95439475500E+03  0.13890536253E+04  0.15294330000E+03 0.  0.
<mgrwt>
<rscale>  0 0.10092575E+04</rscale>
<asrwt>0</asrwt>
<pdfrwt beam="1">  1        2 0.22460300E+00 0.10092575E+04</pdfrwt>
<pdfrwt beam="2">  1       -2 0.21179372E+00 0.10092575E+04</pdfrwt>
<totfact> 0.14808296E+00</totfact>
</mgrwt>
</event>
<event>
 4    1  0.1033139E-008  0.8115338E+03  0.7818608E-02  0.9543471E-01
         -2   -1    0    0    0  501 -0.00000000000E+00  0.00000000000E+00  0.52218366085E+03  0.52218366085E+03  0.25500000000E-02 0.  1.
          2   -1    0    0  501    0  0.00000000000E+00 -0.00000000000E+00 -0.17232629758E+04  0.17232629758E+04  0.25500000000E-02 0. -1.
    8880022    1    1    2    0    0 -0.61611641308E+03  0.50556512285E+03 -0.11818918524E+04  0.14336859948E+04  0.15294330000E+03 0.  0.
    8880022    1    1    2    0    0  0.61611641308E+03 -0.50556512285E+03 -0.19187462545E+02  0.81176064184E+03  0.15294330000E+03 0.  0.
<mgrwt>
<rscale>  0 0.81153384E+03</rscale>
<asrwt>0</asrwt>
<pdfrwt beam="1">  1        2 0.26511738E+00 0.81153384E+03</pdfrwt>
<pdfrwt beam="2">  1       -2 0.80335949E-01 0.81153384E+03</pdfrwt>
<totfact> 0.13301569E+01</totfact>
</mgrwt>
</event>
<event>
 4    1  0.1033139E-008  0.3197695E+03  0.7818608E-02  0.1075755E+00
         -2   -1    0    0    0  501 -0.00000000000E+00  0.00000000000E+00  0.18499609446E+03  0.18499609448E+03  0.25500000000E-02 0.  1.
          2   -1    0    0  501    0  0.00000000000E+00 -0.00000000000E+00 -0.12235743781E+04  0.12235743781E+04  0.25500000000E-02 0. -1.
    8880022    1    1    2    0    0  0.27523547123E+03  0.55734577127E+02 -0.10407778008E+04  0.10887933649E+04  0.15294330000E+03 0.  0.
    8880022    1    1    2    0    0 -0.27523547123E+03 -0.55734577127E+02  0.21995171956E+01  0.31977710769E+03  0.15294330000E+03 0.  0.
<mgrwt>
<rscale>  0 0.31976954E+03</rscale>
<asrwt>0</asrwt>
<pdfrwt beam="1">  1        2 0.18824221E+00 0.31976954E+03</pdfrwt>
<pdfrwt beam="2">  1       -2 0.28460938E-01 0.31976954E+03</pdfrwt>
<totfact> 0.21843730E+02</totfact>
</mgrwt>
</event>
<event>
 4    1  0.1033139E-008  0.1309581E+04  0.7818608E-02  0.9022002E-01
          2   -1    0    0  501    0  0.00000000000E+00  0.00000000000E+00  0.21527393682E+04  0.21527393682E+04  0.25500000000E-02 0. -1.
         -2   -1    0    0    0  501 -0.00000000000E+00 -0.00000000000E+00 -0.10911847215E+04  0.10911847215E+04  0.25500000000E-02 0.  1.
    8880022    1    1    2    0    0  0.97963121330E+03 -0.85553066385E+03  0.13734371893E+04  0.18977174176E+04  0.15294330000E+03 0.  0.
    8880022    1    1    2    0    0 -0.97963121330E+03  0.85553066385E+03 -0.31188254257E+03  0.13462066722E+04  0.15294330000E+03 0.  0.
<mgrwt>
<rscale>  0 0.13095807E+04</rscale>
<asrwt>0</asrwt>
<pdfrwt beam="1">  1        2 0.33119067E+00 0.13095807E+04</pdfrwt>
<pdfrwt beam="2">  1       -2 0.16787458E+00 0.13095807E+04</pdfrwt>
<totfact> 0.11642396E+00</totfact>
</mgrwt>
</event>
<event>
 4    1  0.1033139E-008  0.2214638E+03  0.7818608E-02  0.1132796E+00
         -2   -1    0    0    0  501 -0.00000000000E+00  0.00000000000E+00  0.11230928525E+03  0.11230928528E+03  0.25500000000E-02 0.  1.
          2   -1    0    0  501    0  0.00000000000E+00 -0.00000000000E+00 -0.93536560701E+03  0.93536560701E+03  0.25500000000E-02 0. -1.
    8880022    1    1    2    0    0  0.13182700114E+03  0.90973643253E+02 -0.29049120247E+02  0.22336084348E+03  0.15294330000E+03 0.  1.
    8880022    1    1    2    0    0 -0.13182700114E+03 -0.90973643253E+02 -0.79400720151E+03  0.82431404881E+03  0.15294330000E+03 0. -1.
<mgrwt>
<rscale>  0 0.22146380E+03</rscale>
<asrwt>0</asrwt>
<pdfrwt beam="1">  1        2 0.14390240E+00 0.22146380E+03</pdfrwt>
<pdfrwt beam="2">  1       -2 0.17278352E-01 0.22146380E+03</pdfrwt>
<totfact> 0.78238681E+02</totfact>
</mgrwt>
</event>
<event>
 4    1  0.1033139E-008  0.8474868E+03  0.7818608E-02  0.9493716E-01
          2   -1    0    0  501    0  0.00000000000E+00  0.00000000000E+00  0.14421501416E+04  0.14421501416E+04  0.25500000000E-02 0. -1.
         -2   -1    0    0    0  501 -0.00000000000E+00 -0.00000000000E+00 -0.59234822796E+03  0.59234822797E+03  0.25500000000E-02 0.  1.
    8880022    1    1    2    0    0  0.53687439456E+02  0.83184121765E+03  0.18984194028E+02  0.84769936014E+03  0.15294330000E+03 0.  0.
    8880022    1    1    2    0    0 -0.53687439456E+02 -0.83184121765E+03  0.83081771960E+03  0.11867990094E+04  0.15294330000E+03 0.  0.
<mgrwt>
<rscale>  0 0.84748676E+03</rscale>
<asrwt>0</asrwt>
<pdfrwt beam="1">  1        2 0.22186925E+00 0.84748676E+03</pdfrwt>
<pdfrwt beam="2">  1       -2 0.91130497E-01 0.84748676E+03</pdfrwt>
<totfact> 0.14217790E+01</totfact>
</mgrwt>
</event>
<event>
 4    1  0.1033139E-008  0.5170544E+03  0.7818608E-02  0.1009421E+00
          2   -1    0    0  501    0  0.00000000000E+00  0.00000000000E+00  0.68784841220E+03  0.68784841220E+03  0.25500000000E-02 0. -1.
         -2   -1    0    0    0  501 -0.00000000000E+00 -0.00000000000E+00 -0.50507807689E+03  0.50507807689E+03  0.25500000000E-02 0.  1.
    8880022    1    1    2    0    0  0.42789032678E+03 -0.24670531619E+03  0.37773570603E+03  0.64033550692E+03  0.15294330000E+03 0.  0.
    8880022    1    1    2    0    0 -0.42789032678E+03  0.24670531619E+03 -0.19496537072E+03  0.55259098218E+03  0.15294330000E+03 0.  0.
<mgrwt>
<rscale>  0 0.51705444E+03</rscale>
<asrwt>0</asrwt>
<pdfrwt beam="1">  1        2 0.10582283E+00 0.51705444E+03</pdfrwt>
<pdfrwt beam="2">  1       -2 0.77704320E-01 0.51705444E+03</pdfrwt>
<totfact> 0.63825329E+01</totfact>
</mgrwt>
</event>
<event>
 4    1  0.1033139E-008  0.8581919E+03  0.7818608E-02  0.9479407E-01
          2   -1    0    0  501    0  0.00000000000E+00  0.00000000000E+00  0.15367954802E+04  0.15367954802E+04  0.25500000000E-02 0. -1.
         -2   -1    0    0    0  501 -0.00000000000E+00 -0.00000000000E+00 -0.61523535750E+03  0.61523535751E+03  0.25500000000E-02 0.  1.
    8880022    1    1    2    0    0 -0.77811998880E+03  0.32807170970E+03 -0.45114906798E+02  0.85937696706E+03  0.15294330000E+03 0.  0.
    8880022    1    1    2    0    0  0.77811998880E+03 -0.32807170970E+03  0.96667502953E+03  0.12926538707E+04  0.15294330000E+03 0.  0.
<mgrwt>
<rscale>  0 0.85819195E+03</rscale>
<asrwt>0</asrwt>
<pdfrwt beam="1">  1        2 0.23643007E+00 0.85819195E+03</pdfrwt>
<pdfrwt beam="2">  1       -2 0.94651595E-01 0.85819195E+03</pdfrwt>
<totfact> 0.11506068E+01</totfact>
</mgrwt>
</event>
<event>
 4    1  0.1033139E-008  0.1099896E+04  0.7818608E-02  0.9205293E-01
          2   -1    0    0  501    0  0.00000000000E+00  0.00000000000E+00  0.27581788466E+04  0.27581788466E+04  0.25500000000E-02 0. -1.
         -2   -1    0    0    0  501 -0.00000000000E+00 -0.00000000000E+00 -0.55975116555E+03  0.55975116556E+03  0.25500000000E-02 0.  1.
    8880022    1    1    2    0    0  0.10635579376E+04  0.23500010214E+03  0.32745642662E+03  0.11476061602E+04  0.15294330000E+03 0.  0.
    8880022    1    1    2    0    0 -0.10635579376E+04 -0.23500010214E+03  0.18709712545E+04  0.21703238520E+04  0.15294330000E+03 0.  0.
<mgrwt>
<rscale>  0 0.10998964E+04</rscale>
<asrwt>0</asrwt>
<pdfrwt beam="1">  1        2 0.42433521E+00 0.10998964E+04</pdfrwt>
<pdfrwt beam="2">  1       -2 0.86115564E-01 0.10998964E+04</pdfrwt>
<totfact> 0.28698370E+00</totfact>
</mgrwt>
</event>
<event>
 4    1  0.1033139E-008  0.1264657E+04  0.7818608E-02  0.9058072E-01
          2   -1    0    0  501    0  0.00000000000E+00  0.00000000000E+00  0.14263524831E+04  0.14263524831E+04  0.25500000000E-02 0. -1.
         -2   -1    0    0    0  501 -0.00000000000E+00 -0.00000000000E+00 -0.15536388426E+04  0.15536388426E+04  0.25500000000E-02 0.  1.
    8880022    1    1    2    0    0  0.10560009589E+04  0.67884297195E+03  0.72236338736E+03  0.14564224394E+04  0.15294330000E+03 0.  0.
    8880022    1    1    2    0    0 -0.10560009589E+04 -0.67884297195E+03 -0.84964974686E+03  0.15235688862E+04  0.15294330000E+03 0.  0.
<mgrwt>
<rscale>  0 0.12646571E+04</rscale>
<asrwt>0</asrwt>
<pdfrwt beam="1">  1        2 0.21943884E+00 0.12646571E+04</pdfrwt>
<pdfrwt beam="2">  1       -2 0.23902136E+00 0.12646571E+04</pdfrwt>
<totfact> 0.10121326E+00</totfact>
</mgrwt>
</event>
<event>
 4    1  0.1033139E-008  0.9951318E+03  0.7818608E-02  0.9313900E-01
          2   -1    0    0  501    0  0.00000000000E+00  0.00000000000E+00  0.11191807452E+04  0.11191807452E+04  0.25500000000E-02 0. -1.
         -2   -1    0    0    0  501 -0.00000000000E+00 -0.00000000000E+00 -0.10228551982E+04  0.10228551982E+04  0.25500000000E-02 0.  1.
    8880022    1    1    2    0    0 -0.87378524335E+02  0.97941848146E+03  0.44159082661E+03  0.10887100989E+04  0.15294330000E+03 0. -1.
    8880022    1    1    2    0    0  0.87378524335E+02 -0.97941848146E+03 -0.34526527961E+03  0.10533258445E+04  0.15294330000E+03 0.  0.
<mgrwt>
<rscale>  0 0.99513176E+03</rscale>
<asrwt>0</asrwt>
<pdfrwt beam="1">  1        2 0.17218165E+00 0.99513176E+03</pdfrwt>
<pdfrwt beam="2">  1       -2 0.15736234E+00 0.99513176E+03</pdfrwt>
<totfact> 0.55405488E+00</totfact>
</mgrwt>
</event>
<event>
 4    1  0.1033139E-008  0.2627603E+03  0.7818608E-02  0.1105496E+00
         -2   -1    0    0    0  501 -0.00000000000E+00  0.00000000000E+00  0.16355874981E+03  0.16355874983E+03  0.25500000000E-02 0.  1.
          2   -1    0    0  501    0  0.00000000000E+00 -0.00000000000E+00 -0.60766369661E+03  0.60766369661E+03  0.25500000000E-02 0. -1.
    8880022    1    1    2    0    0  0.19122567383E+03 -0.95310279657E+02 -0.89786526239E+01  0.26291363023E+03  0.15294330000E+03 0.  0.
    8880022    1    1    2    0    0 -0.19122567383E+03  0.95310279657E+02 -0.43512629417E+03  0.50830881621E+03  0.15294330000E+03 0.  0.
<mgrwt>
<rscale>  0 0.26276027E+03</rscale>
<asrwt>0</asrwt>
<pdfrwt beam="1">  1        2 0.93486721E-01 0.26276027E+03</pdfrwt>
<pdfrwt beam="2">  1       -2 0.25162885E-01 0.26276027E+03</pdfrwt>
<totfact> 0.70124080E+02</totfact>
</mgrwt>
</event>
<event>
 4    1  0.1033139E-008  0.8196240E+03  0.7818608E-02  0.9532039E-01
         -2   -1    0    0    0  501 -0.00000000000E+00  0.00000000000E+00  0.39682213166E+03  0.39682213167E+03  0.25500000000E-02 0.  1.
          2   -1    0    0  501    0  0.00000000000E+00 -0.00000000000E+00 -0.20002395481E+04  0.20002395481E+04  0.25500000000E-02 0. -1.
    8880022    1    1    2    0    0 -0.68735017742E+03  0.41945397836E+03 -0.33191042248E+03  0.88427828647E+03  0.15294330000E+03 0.  0.
    8880022    1    1    2    0    0  0.68735017742E+03 -0.41945397836E+03 -0.12715069940E+04  0.15127833933E+04  0.15294330000E+03 0.  0.
<mgrwt>
<rscale>  0 0.81962404E+03</rscale>
<asrwt>0</asrwt>
<pdfrwt beam="1">  1        2 0.30772916E+00 0.81962404E+03</pdfrwt>
<pdfrwt beam="2">  1       -2 0.61049560E-01 0.81962404E+03</pdfrwt>
<totfact> 0.17087120E+01</totfact>
</mgrwt>
</event>
<event>
 4    1  0.1033139E-008  0.1589321E+03  0.7818608E-02  0.1189908E+00
          2   -1    0    0  501    0  0.00000000000E+00  0.00000000000E+00  0.28678312074E+04  0.28678312074E+04  0.25500000000E-02 0. -1.
         -2   -1    0    0    0  501 -0.00000000000E+00 -0.00000000000E+00 -0.60806209862E+03  0.60806209863E+03  0.25500000000E-02 0.  1.
    8880022    1    1    2    0    0  0.42528379438E+02  0.76867684099E+01  0.28551981255E+04  0.28596181106E+04  0.15294330000E+03 0.  0.
    8880022    1    1    2    0    0 -0.42528379438E+02 -0.76867684099E+01 -0.59542901676E+03  0.61627519542E+03  0.15294330000E+03 0.  1.
<mgrwt>
<rscale>  0 0.15893207E+03</rscale>
<asrwt>0</asrwt>
<pdfrwt beam="1">  1        2 0.44120480E+00 0.15893207E+03</pdfrwt>
<pdfrwt beam="2">  1       -2 0.93548015E-01 0.15893207E+03</pdfrwt>
<totfact> 0.27786149E+00</totfact>
</mgrwt>
</event>
<event>
 4    1  0.1033139E-008  0.1004090E+04  0.7818608E-02  0.9304070E-01
          2   -1    0    0  501    0  0.00000000000E+00  0.00000000000E+00  0.11861479038E+04  0.11861479038E+04  0.25500000000E-02 0. -1.
         -2   -1    0    0    0  501 -0.00000000000E+00 -0.00000000000E+00 -0.12246117494E+04  0.12246117494E+04  0.25500000000E-02 0.  1.
    8880022    1    1    2    0    0  0.82060380539E+03  0.55804527840E+03  0.64746667395E+03  0.11947426020E+04  0.15294330000E+03 0.  0.
    8880022    1    1    2    0    0 -0.82060380539E+03 -0.55804527840E+03 -0.68593051952E+03  0.12160170512E+04  0.15294330000E+03 0.  0.
<mgrwt>
<rscale>  0 0.10040900E+04</rscale>
<asrwt>0</asrwt>
<pdfrwt beam="1">  1        2 0.18248429E+00 0.10040900E+04</pdfrwt>
<pdfrwt beam="2">  1       -2 0.18840181E+00 0.10040900E+04</pdfrwt>
<totfact> 0.30406577E+00</totfact>
</mgrwt>
</event>
<event>
 4    1  0.1033139E-008  0.8716249E+03  0.7818608E-02  0.9461764E-01
         -2   -1    0    0    0  501 -0.00000000000E+00  0.00000000000E+00  0.15130661557E+04  0.15130661557E+04  0.25500000000E-02 0.  1.
          2   -1    0    0  501    0  0.00000000000E+00 -0.00000000000E+00 -0.10494412203E+04  0.10494412203E+04  0.25500000000E-02 0. -1.
    8880022    1    1    2    0    0 -0.85286677735E+03 -0.94638914197E+02  0.11571071375E+04  0.14486638135E+04  0.15294330000E+03 0.  0.
    8880022    1    1    2    0    0  0.85286677735E+03  0.94638914197E+02 -0.69348220211E+03  0.11138435625E+04  0.15294330000E+03 0.  0.
<mgrwt>
<rscale>  0 0.87162487E+03</rscale>
<asrwt>0</asrwt>
<pdfrwt beam="1">  1        2 0.16145250E+00 0.87162487E+03</pdfrwt>
<pdfrwt beam="2">  1       -2 0.23277941E+00 0.87162487E+03</pdfrwt>
<totfact> 0.19471341E+00</totfact>
</mgrwt>
</event>
<event>
 4    1  0.1033139E-008  0.7234760E+03  0.7818608E-02  0.9677906E-01
          2   -1    0    0  501    0  0.00000000000E+00  0.00000000000E+00  0.15251797077E+04  0.15251797077E+04  0.25500000000E-02 0. -1.
         -2   -1    0    0    0  501 -0.00000000000E+00 -0.00000000000E+00 -0.46573643063E+03  0.46573643064E+03  0.25500000000E-02 0.  1.
    8880022    1    1    2    0    0 -0.67372182775E+03 -0.21476677842E+03  0.10403601197E+04  0.12671885029E+04  0.15294330000E+03 0.  0.
    8880022    1    1    2    0    0  0.67372182775E+03  0.21476677842E+03  0.19083157340E+02  0.72372763538E+03  0.15294330000E+03 0.  0.
<mgrwt>
<rscale>  0 0.72347600E+03</rscale>
<asrwt>0</asrwt>
<pdfrwt beam="1">  1        2 0.23464303E+00 0.72347600E+03</pdfrwt>
<pdfrwt beam="2">  1       -2 0.71651758E-01 0.72347600E+03</pdfrwt>
<totfact> 0.22297851E+01</totfact>
</mgrwt>
</event>
<event>
 4    1  0.1033139E-008  0.6111263E+03  0.7818608E-02  0.9882588E-01
          2   -1    0    0  501    0  0.00000000000E+00  0.00000000000E+00  0.17424515066E+04  0.17424515066E+04  0.25500000000E-02 0. -1.
         -2   -1    0    0    0  501 -0.00000000000E+00 -0.00000000000E+00 -0.51274650923E+03  0.51274650924E+03  0.25500000000E-02 0.  1.
    8880022    1    1    2    0    0 -0.45340487633E+03 -0.38014176072E+03  0.14750697927E+04  0.15966547174E+04  0.15294330000E+03 0.  0.
    8880022    1    1    2    0    0  0.45340487633E+03  0.38014176072E+03 -0.24536479536E+03  0.65854329845E+03  0.15294330000E+03 0.  0.
<mgrwt>
<rscale>  0 0.61112633E+03</rscale>
<asrwt>0</asrwt>
<pdfrwt beam="1">  1        2 0.26806946E+00 0.61112633E+03</pdfrwt>
<pdfrwt beam="2">  1       -2 0.78884079E-01 0.61112633E+03</pdfrwt>
<totfact> 0.13929550E+01</totfact>
</mgrwt>
</event>
<event>
 4    1  0.1033139E-008  0.1255297E+04  0.7818608E-02  0.9065786E-01
         -2   -1    0    0    0  501 -0.00000000000E+00  0.00000000000E+00  0.19198287317E+04  0.19198287317E+04  0.25500000000E-02 0.  1.
          2   -1    0    0  501    0  0.00000000000E+00 -0.00000000000E+00 -0.14800403669E+04  0.14800403669E+04  0.25500000000E-02 0. -1.
    8880022    1    1    2    0    0  0.94309468801E+03  0.81421835099E+03 -0.91465034892E+03  0.15531761096E+04  0.15294330000E+03 0.  0.
    8880022    1    1    2    0    0 -0.94309468801E+03 -0.81421835099E+03  0.13544387137E+04  0.18466929891E+04  0.15294330000E+03 0.  0.
<mgrwt>
<rscale>  0 0.12552971E+04</rscale>
<asrwt>0</asrwt>
<pdfrwt beam="1">  1        2 0.22769852E+00 0.12552971E+04</pdfrwt>
<pdfrwt beam="2">  1       -2 0.29535827E+00 0.12552971E+04</pdfrwt>
<totfact> 0.42798019E-01</totfact>
</mgrwt>
</event>
<event>
 4    1  0.1033139E-008  0.5186646E+03  0.7818608E-02  0.1009019E+00
          2   -1    0    0  501    0  0.00000000000E+00  0.00000000000E+00  0.75775681399E+03  0.75775681400E+03  0.25500000000E-02 0. -1.
         -2   -1    0    0    0  501 -0.00000000000E+00 -0.00000000000E+00 -0.38705422703E+03  0.38705422704E+03  0.25500000000E-02 0.  1.
    8880022    1    1    2    0    0 -0.23705219568E+03 -0.43523273557E+03  0.35004528130E+03  0.62573527115E+03  0.15294330000E+03 0.  0.
    8880022    1    1    2    0    0  0.23705219568E+03  0.43523273557E+03  0.20657305663E+02  0.51907576988E+03  0.15294330000E+03 0.  0.
<mgrwt>
<rscale>  0 0.51866456E+03</rscale>
<asrwt>0</asrwt>
<pdfrwt beam="1">  1        2 0.11657797E+00 0.51866456E+03</pdfrwt>
<pdfrwt beam="2">  1       -2 0.59546805E-01 0.51866456E+03</pdfrwt>
<totfact> 0.10032016E+02</totfact>
</mgrwt>
</event>
<event>
 4    1  0.1033139E-008  0.7249643E+03  0.7818608E-02  0.9675467E-01
          2   -1    0    0  501    0  0.00000000000E+00  0.00000000000E+00  0.32354189135E+04  0.32354189135E+04  0.25500000000E-02 0. -1.
         -2   -1    0    0    0  501 -0.00000000000E+00 -0.00000000000E+00 -0.46973393195E+03  0.46973393196E+03  0.25500000000E-02 0.  1.
    8880022    1    1    2    0    0 -0.21943860893E+00 -0.70864764810E+03 -0.11554656960E+03  0.73411456876E+03  0.15294330000E+03 0.  0.
    8880022    1    1    2    0    0  0.21943860893E+00  0.70864764810E+03  0.28812315512E+04  0.29710382767E+04  0.15294330000E+03 0. -1.
<mgrwt>
<rscale>  0 0.72496427E+03</rscale>
<asrwt>0</asrwt>
<pdfrwt beam="1">  1        2 0.49775675E+00 0.72496427E+03</pdfrwt>
<pdfrwt beam="2">  1       -2 0.72266760E-01 0.72496427E+03</pdfrwt>
<totfact> 0.23058412E+00</totfact>
</mgrwt>
</event>
<event>
 4    1  0.1033139E-008  0.5529404E+03  0.7818608E-02  0.1000816E+00
          2   -1    0    0  501    0  0.00000000000E+00  0.00000000000E+00  0.88593873119E+03  0.88593873119E+03  0.25500000000E-02 0. -1.
         -2   -1    0    0    0  501 -0.00000000000E+00 -0.00000000000E+00 -0.36598456700E+03  0.36598456701E+03  0.25500000000E-02 0.  1.
    8880022    1    1    2    0    0  0.46761821383E+03 -0.25235805792E+03  0.11046937600E+03  0.56386746612E+03  0.15294330000E+03 0.  0.
    8880022    1    1    2    0    0 -0.46761821383E+03  0.25235805792E+03  0.40948478818E+03  0.68805583209E+03  0.15294330000E+03 0.  0.
<mgrwt>
<rscale>  0 0.55294036E+03</rscale>
<asrwt>0</asrwt>
<pdfrwt beam="1">  1        2 0.13629827E+00 0.55294036E+03</pdfrwt>
<pdfrwt beam="2">  1       -2 0.56305318E-01 0.55294036E+03</pdfrwt>
<totfact> 0.91374248E+01</totfact>
</mgrwt>
</event>
<event>
 4    1  0.1033139E-008  0.7935091E+03  0.7818608E-02  0.9569460E-01
         -2   -1    0    0    0  501 -0.00000000000E+00  0.00000000000E+00  0.48499782540E+03  0.48499782541E+03  0.25500000000E-02 0.  1.
          2   -1    0    0  501    0  0.00000000000E+00 -0.00000000000E+00 -0.21039981387E+04  0.21039981387E+04  0.25500000000E-02 0. -1.
    8880022    1    1    2    0    0 -0.77755466230E+03  0.40912479742E+02 -0.84241209931E+01  0.79355384360E+03  0.15294330000E+03 0.  1.
    8880022    1    1    2    0    0  0.77755466230E+03 -0.40912479742E+02 -0.16105761923E+04  0.17954421205E+04  0.15294330000E+03 0.  0.
<mgrwt>
<rscale>  0 0.79350913E+03</rscale>
<asrwt>0</asrwt>
<pdfrwt beam="1">  1        2 0.32369202E+00 0.79350913E+03</pdfrwt>
<pdfrwt beam="2">  1       -2 0.74615051E-01 0.79350913E+03</pdfrwt>
<totfact> 0.97364684E+00</totfact>
</mgrwt>
</event>
<event>
 4    1  0.1033139E-008  0.6131406E+03  0.7818608E-02  0.9878512E-01
         -2   -1    0    0    0  501 -0.00000000000E+00  0.00000000000E+00  0.54076064914E+03  0.54076064915E+03  0.25500000000E-02 0.  1.
          2   -1    0    0  501    0  0.00000000000E+00 -0.00000000000E+00 -0.15550411685E+04  0.15550411685E+04  0.25500000000E-02 0. -1.
    8880022    1    1    2    0    0  0.18392969422E+03 -0.56455258710E+03  0.27207282731E+03  0.67079432943E+03  0.15294330000E+03 0.  0.
    8880022    1    1    2    0    0 -0.18392969422E+03  0.56455258710E+03 -0.12863533467E+04  0.14250074883E+04  0.15294330000E+03 0.  0.
<mgrwt>
<rscale>  0 0.61314061E+03</rscale>
<asrwt>0</asrwt>
<pdfrwt beam="1">  1        2 0.23923710E+00 0.61314061E+03</pdfrwt>
<pdfrwt beam="2">  1       -2 0.83193947E-01 0.61314061E+03</pdfrwt>
<totfact> 0.15634740E+01</totfact>
</mgrwt>
</event>
<event>
 4    1  0.1033139E-008  0.2256928E+03  0.7818608E-02  0.1129709E+00
          2   -1    0    0  501    0  0.00000000000E+00  0.00000000000E+00  0.24932322405E+04  0.24932322405E+04  0.25500000000E-02 0. -1.
         -2   -1    0    0    0  501 -0.00000000000E+00 -0.00000000000E+00 -0.51804138950E+02  0.51804139013E+02  0.25500000000E-02 0.  1.
    8880022    1    1    2    0    0  0.36419980833E+01  0.16592873370E+03  0.22110127616E+04  0.22225018996E+04  0.15294330000E+03 0.  0.
    8880022    1    1    2    0    0 -0.36419980833E+01 -0.16592873370E+03  0.23041533990E+03  0.32253447985E+03  0.15294330000E+03 0.  0.
<mgrwt>
<rscale>  0 0.22569285E+03</rscale>
<asrwt>0</asrwt>
<pdfrwt beam="1">  1        2 0.38357408E+00 0.22569285E+03</pdfrwt>
<pdfrwt beam="2">  1       -2 0.79698698E-02 0.22569285E+03</pdfrwt>
<totfact> 0.38961398E+02</totfact>
</mgrwt>
</event>
<event>
 4    1  0.1033139E-008  0.2284464E+03  0.7818608E-02  0.1127738E+00
          2   -1    0    0  501    0  0.00000000000E+00  0.00000000000E+00  0.14472229137E+04  0.14472229137E+04  0.25500000000E-02 0. -1.
         -2   -1    0    0    0  501 -0.00000000000E+00 -0.00000000000E+00 -0.41330516380E+03  0.41330516381E+03  0.25500000000E-02 0.  1.
    8880022    1    1    2    0    0 -0.10947189496E+03 -0.12966112696E+03  0.14057143726E+04  0.14241561200E+04  0.15294330000E+03 0.  0.
    8880022    1    1    2    0    0  0.10947189496E+03  0.12966112696E+03 -0.37179662273E+03  0.43637195753E+03  0.15294330000E+03 0.  1.
<mgrwt>
<rscale>  0 0.22844640E+03</rscale>
<asrwt>0</asrwt>
<pdfrwt beam="1">  1        2 0.22264968E+00 0.22844640E+03</pdfrwt>
<pdfrwt beam="2">  1       -2 0.63585410E-01 0.22844640E+03</pdfrwt>
<totfact> 0.35190026E+01</totfact>
</mgrwt>
</event>
<event>
 4    1  0.1033139E-008  0.3626251E+03  0.7818608E-02  0.1057549E+00
         -2   -1    0    0    0  501 -0.00000000000E+00  0.00000000000E+00  0.30067946050E+03  0.30067946051E+03  0.25500000000E-02 0.  1.
          2   -1    0    0  501    0  0.00000000000E+00 -0.00000000000E+00 -0.11072432710E+04  0.11072432710E+04  0.25500000000E-02 0. -1.
    8880022    1    1    2    0    0 -0.17314677258E+03 -0.27950945631E+03  0.14428309339E+03  0.39027503773E+03  0.15294330000E+03 0.  0.
    8880022    1    1    2    0    0  0.17314677258E+03  0.27950945631E+03 -0.95084690393E+03  0.10176476938E+04  0.15294330000E+03 0.  0.
<mgrwt>
<rscale>  0 0.36262514E+03</rscale>
<asrwt>0</asrwt>
<pdfrwt beam="1">  1        2 0.17034512E+00 0.36262514E+03</pdfrwt>
<pdfrwt beam="2">  1       -2 0.46258379E-01 0.36262514E+03</pdfrwt>
<totfact> 0.10109566E+02</totfact>
</mgrwt>
</event>
<event>
 4    1  0.1033139E-008  0.5787343E+03  0.7818608E-02  0.9950535E-01
         -2   -1    0    0    0  501 -0.00000000000E+00  0.00000000000E+00  0.49376776285E+03  0.49376776286E+03  0.25500000000E-02 0.  1.
          2   -1    0    0  501    0  0.00000000000E+00 -0.00000000000E+00 -0.88868714203E+03  0.88868714203E+03  0.25500000000E-02 0. -1.
    8880022    1    1    2    0    0 -0.53767621414E+03  0.14981981017E+03 -0.53376508108E+03  0.78729822911E+03  0.15294330000E+03 0.  0.
    8880022    1    1    2    0    0  0.53767621414E+03 -0.14981981017E+03  0.13884570191E+03  0.59515667578E+03  0.15294330000E+03 0.  0.
<mgrwt>
<rscale>  0 0.57873426E+03</rscale>
<asrwt>0</asrwt>
<pdfrwt beam="1">  1        2 0.13672110E+00 0.57873426E+03</pdfrwt>
<pdfrwt beam="2">  1       -2 0.75964271E-01 0.57873426E+03</pdfrwt>
<totfact> 0.47765850E+01</totfact>
</mgrwt>
</event>
<event>
 4    1  0.1033139E-008  0.6380055E+03  0.7818608E-02  0.9829550E-01
          2   -1    0    0  501    0  0.00000000000E+00  0.00000000000E+00  0.14808268077E+04  0.14808268077E+04  0.25500000000E-02 0. -1.
         -2   -1    0    0    0  501 -0.00000000000E+00 -0.00000000000E+00 -0.67406271913E+03  0.67406271914E+03  0.25500000000E-02 0.  1.
    8880022    1    1    2    0    0 -0.57039845854E+03  0.24146410204E+03  0.12325265961E+04  0.13878662678E+04  0.15294330000E+03 0. -1.
    8880022    1    1    2    0    0  0.57039845854E+03 -0.24146410204E+03 -0.42576250756E+03  0.76702325905E+03  0.15294330000E+03 0.  0.
<mgrwt>
<rscale>  0 0.63800546E+03</rscale>
<asrwt>0</asrwt>
<pdfrwt beam="1">  1        2 0.22781951E+00 0.63800546E+03</pdfrwt>
<pdfrwt beam="2">  1       -2 0.10370196E+00 0.63800546E+03</pdfrwt>
<totfact> 0.10264048E+01</totfact>
</mgrwt>
</event>
<event>
 4    1  0.1033139E-008  0.9479565E+03  0.7818608E-02  0.9367542E-01
         -2   -1    0    0    0  501 -0.00000000000E+00  0.00000000000E+00  0.41743897105E+03  0.41743897106E+03  0.25500000000E-02 0.  1.
          2   -1    0    0  501    0  0.00000000000E+00 -0.00000000000E+00 -0.25493679522E+04  0.25493679522E+04  0.25500000000E-02 0. -1.
    8880022    1    1    2    0    0 -0.91252982349E+03 -0.20620168256E+03 -0.48082985348E+03  0.10629293550E+04  0.15294330000E+03 0.  0.
    8880022    1    1    2    0    0  0.91252982349E+03  0.20620168256E+03 -0.16510991277E+04  0.19038775683E+04  0.15294330000E+03 0.  0.
<mgrwt>
<rscale>  0 0.94795647E+03</rscale>
<asrwt>0</asrwt>
<pdfrwt beam="1">  1        2 0.39221044E+00 0.94795647E+03</pdfrwt>
<pdfrwt beam="2">  1       -2 0.64221382E-01 0.94795647E+03</pdfrwt>
<totfact> 0.74418099E+00</totfact>
</mgrwt>
</event>
<event>
 4    1  0.1033139E-008  0.1531320E+04  0.7818608E-02  0.8863889E-01
          2   -1    0    0  501    0  0.00000000000E+00  0.00000000000E+00  0.16511596057E+04  0.16511596057E+04  0.25500000000E-02 0. -1.
         -2   -1    0    0    0  501 -0.00000000000E+00 -0.00000000000E+00 -0.24706768319E+04  0.24706768319E+04  0.25500000000E-02 0.  1.
    8880022    1    1    2    0    0 -0.38204637965E+03  0.14749877871E+04 -0.17536081153E+04  0.23281068453E+04  0.15294330000E+03 0.  0.
    8880022    1    1    2    0    0  0.38204637965E+03 -0.14749877871E+04  0.93409088902E+03  0.17937295923E+04  0.15294330000E+03 0.  0.
<mgrwt>
<rscale>  0 0.15313197E+04</rscale>
<asrwt>0</asrwt>
<pdfrwt beam="1">  1        2 0.25402455E+00 0.15313197E+04</pdfrwt>
<pdfrwt beam="2">  1       -2 0.38010413E+00 0.15313197E+04</pdfrwt>
<totfact> 0.97880344E-02</totfact>
</mgrwt>
</event>
<event>
 4    1  0.1033139E-008  0.5714621E+03  0.7818608E-02  0.9966448E-01
         -2   -1    0    0    0  501 -0.00000000000E+00  0.00000000000E+00  0.90078421815E+03  0.90078421815E+03  0.25500000000E-02 0.  1.
          2   -1    0    0  501    0  0.00000000000E+00 -0.00000000000E+00 -0.11523026110E+04  0.11523026110E+04  0.25500000000E-02 0. -1.
    8880022    1    1    2    0    0 -0.27147270290E+03 -0.47904059629E+03  0.72409170788E+03  0.92243036364E+03  0.15294330000E+03 0.  0.
    8880022    1    1    2    0    0  0.27147270290E+03  0.47904059629E+03 -0.97561010069E+03  0.11306564655E+04  0.15294330000E+03 0.  0.
<mgrwt>
<rscale>  0 0.57146214E+03</rscale>
<asrwt>0</asrwt>
<pdfrwt beam="1">  1        2 0.17727732E+00 0.57146214E+03</pdfrwt>
<pdfrwt beam="2">  1       -2 0.13858219E+00 0.57146214E+03</pdfrwt>
<totfact> 0.78175154E+00</totfact>
</mgrwt>
</event>
<event>
 4    1  0.1033139E-008  0.1006792E+04  0.7818608E-02  0.9301127E-01
         -2   -1    0    0    0  501 -0.00000000000E+00  0.00000000000E+00  0.20677403714E+04  0.20677403714E+04  0.25500000000E-02 0.  1.
          2   -1    0    0  501    0  0.00000000000E+00 -0.00000000000E+00 -0.57206809725E+03  0.57206809726E+03  0.25500000000E-02 0. -1.
    8880022    1    1    2    0    0  0.82681673584E+03 -0.55372580353E+03  0.24855431416E+03  0.10370193249E+04  0.15294330000E+03 0.  0.
    8880022    1    1    2    0    0 -0.82681673584E+03  0.55372580353E+03  0.12471179600E+04  0.16027891438E+04  0.15294330000E+03 0.  0.
<mgrwt>
<rscale>  0 0.10067919E+04</rscale>
<asrwt>0</asrwt>
<pdfrwt beam="1">  1        2 0.88010476E-01 0.10067919E+04</pdfrwt>
<pdfrwt beam="2">  1       -2 0.31811390E+00 0.10067919E+04</pdfrwt>
<totfact> 0.13026054E+00</totfact>
</mgrwt>
</event>
<event>
 4    1  0.1033139E-008  0.1900364E+04  0.7818608E-02  0.8654675E-01
          2   -1    0    0  501    0  0.00000000000E+00  0.00000000000E+00  0.20452937761E+04  0.20452937761E+04  0.25500000000E-02 0. -1.
         -2   -1    0    0    0  501 -0.00000000000E+00 -0.00000000000E+00 -0.22456273714E+04  0.22456273714E+04  0.25500000000E-02 0.  1.
    8880022    1    1    2    0    0 -0.91901663303E+03 -0.16563209400E+04 -0.10919982798E+04  0.21917669867E+04  0.15294330000E+03 0.  0.
    8880022    1    1    2    0    0  0.91901663303E+03  0.16563209400E+04  0.89166468455E+03  0.20991541608E+04  0.15294330000E+03 0.  0.
<mgrwt>
<rscale>  0 0.19003637E+04</rscale>
<asrwt>0</asrwt>
<pdfrwt beam="1">  1        2 0.31466058E+00 0.19003637E+04</pdfrwt>
<pdfrwt beam="2">  1       -2 0.34548114E+00 0.19003637E+04</pdfrwt>
<totfact> 0.93936019E-02</totfact>
</mgrwt>
</event>
<event>
 4    1  0.1033139E-008  0.2179737E+03  0.7818608E-02  0.1135403E+00
         -2   -1    0    0    0  501 -0.00000000000E+00  0.00000000000E+00  0.71933046578E+02  0.71933046623E+02  0.25500000000E-02 0.  1.
          2   -1    0    0  501    0  0.00000000000E+00 -0.00000000000E+00 -0.10053178912E+04  0.10053178912E+04  0.25500000000E-02 0. -1.
    8880022    1    1    2    0    0 -0.16692075911E+02 -0.15440938698E+03 -0.15124758624E+03  0.26530806536E+03  0.15294330000E+03 0.  0.
    8880022    1    1    2    0    0  0.16692075911E+02  0.15440938698E+03 -0.78213725836E+03  0.81194287244E+03  0.15294330000E+03 0. -1.
<mgrwt>
<rscale>  0 0.21797371E+03</rscale>
<asrwt>0</asrwt>
<pdfrwt beam="1">  1        2 0.15466428E+00 0.21797371E+03</pdfrwt>
<pdfrwt beam="2">  1       -2 0.11066623E-01 0.21797371E+03</pdfrwt>
<totfact> 0.14695794E+03</totfact>
</mgrwt>
</event>
<event>
 4    1  0.1033139E-008  0.8653373E+03  0.7818608E-02  0.9469980E-01
         -2   -1    0    0    0  501 -0.00000000000E+00  0.00000000000E+00  0.42434552489E+03  0.42434552489E+03  0.25500000000E-02 0.  1.
          2   -1    0    0  501    0  0.00000000000E+00 -0.00000000000E+00 -0.19322105060E+04  0.19322105060E+04  0.25500000000E-02 0. -1.
    8880022    1    1    2    0    0 -0.84664154412E+03  0.92817874815E+02 -0.11009448234E+04  0.14003171852E+04  0.15294330000E+03 0.  0.
    8880022    1    1    2    0    0  0.84664154412E+03 -0.92817874815E+02 -0.40692015768E+03  0.95623884561E+03  0.15294330000E+03 0.  0.
<mgrwt>
<rscale>  0 0.86533734E+03</rscale>
<asrwt>0</asrwt>
<pdfrwt beam="1">  1        2 0.29726315E+00 0.86533734E+03</pdfrwt>
<pdfrwt beam="2">  1       -2 0.65283928E-01 0.86533734E+03</pdfrwt>
<totfact> 0.16037731E+01</totfact>
</mgrwt>
</event>
<event>
 4    1  0.1033139E-008  0.1731637E+03  0.7818608E-02  0.1174588E+00
          2   -1    0    0  501    0  0.00000000000E+00  0.00000000000E+00  0.97937031364E+03  0.97937031364E+03  0.25500000000E-02 0. -1.
         -2   -1    0    0    0  501 -0.00000000000E+00 -0.00000000000E+00 -0.98409127710E+03  0.98409127711E+03  0.25500000000E-02 0.  1.
    8880022    1    1    2    0    0 -0.58813241657E+02 -0.55991082239E+02 -0.96869868833E+03  0.98405426704E+03  0.15294330000E+03 0.  0.
    8880022    1    1    2    0    0  0.58813241657E+02  0.55991082239E+02  0.96397772486E+03  0.97940732371E+03  0.15294330000E+03 0. -1.
<mgrwt>
<rscale>  0 0.17316366E+03</rscale>
<asrwt>0</asrwt>
<pdfrwt beam="1">  1        2 0.15067236E+00 0.17316366E+03</pdfrwt>
<pdfrwt beam="2">  1       -2 0.15139866E+00 0.17316366E+03</pdfrwt>
<totfact> 0.88913460E+00</totfact>
</mgrwt>
</event>
<event>
 4    1  0.1033139E-008  0.1270121E+04  0.7818608E-02  0.9053601E-01
          2   -1    0    0  501    0  0.00000000000E+00  0.00000000000E+00  0.50141946326E+04  0.50141946326E+04  0.25500000000E-02 0. -1.
         -2   -1    0    0    0  501 -0.00000000000E+00 -0.00000000000E+00 -0.20083370406E+04  0.20083370406E+04  0.25500000000E-02 0.  1.
    8880022    1    1    2    0    0  0.22129824964E+03 -0.12413067320E+04 -0.17148235804E+04  0.21339697475E+04  0.15294330000E+03 0.  0.
    8880022    1    1    2    0    0 -0.22129824964E+03  0.12413067320E+04  0.47206811724E+04  0.48885619258E+04  0.15294330000E+03 0.  0.
<mgrwt>
<rscale>  0 0.12701208E+04</rscale>
<asrwt>0</asrwt>
<pdfrwt beam="1">  1        2 0.77141456E+00 0.12701208E+04</pdfrwt>
<pdfrwt beam="2">  1       -2 0.30897493E+00 0.12701208E+04</pdfrwt>
<totfact> 0.95179530E-04</totfact>
</mgrwt>
</event>
<event>
 4    1  0.1033139E-008  0.1103568E+04  0.7818608E-02  0.9201721E-01
          2   -1    0    0  501    0  0.00000000000E+00  0.00000000000E+00  0.25121030046E+04  0.25121030046E+04  0.25500000000E-02 0. -1.
         -2   -1    0    0    0  501 -0.00000000000E+00 -0.00000000000E+00 -0.57815006896E+03  0.57815006896E+03  0.25500000000E-02 0.  1.
    8880022    1    1    2    0    0 -0.86022006825E+03 -0.67416106597E+03  0.15878525756E+04  0.19336853838E+04  0.15294330000E+03 0.  0.
    8880022    1    1    2    0    0  0.86022006825E+03  0.67416106597E+03  0.34610036001E+03  0.11565676897E+04  0.15294330000E+03 0.  0.
<mgrwt>
<rscale>  0 0.11035685E+04</rscale>
<asrwt>0</asrwt>
<pdfrwt beam="1">  1        2 0.38647738E+00 0.11035685E+04</pdfrwt>
<pdfrwt beam="2">  1       -2 0.88946165E-01 0.11035685E+04</pdfrwt>
<totfact> 0.37058471E+00</totfact>
</mgrwt>
</event>
<event>
 4    1  0.1033139E-008  0.7992787E+03  0.7818608E-02  0.9561062E-01
          2   -1    0    0  501    0  0.00000000000E+00  0.00000000000E+00  0.10147548445E+04  0.10147548445E+04  0.25500000000E-02 0. -1.
         -2   -1    0    0    0  501 -0.00000000000E+00 -0.00000000000E+00 -0.11364616388E+04  0.11364616388E+04  0.25500000000E-02 0.  1.
    8880022    1    1    2    0    0 -0.76652388205E+03  0.16702079679E+03  0.65750252352E+03  0.10349666805E+04  0.15294330000E+03 0.  0.
    8880022    1    1    2    0    0  0.76652388205E+03 -0.16702079679E+03 -0.77920931775E+03  0.11162498028E+04  0.15294330000E+03 0.  0.
<mgrwt>
<rscale>  0 0.79927871E+03</rscale>
<asrwt>0</asrwt>
<pdfrwt beam="1">  1        2 0.15611613E+00 0.79927871E+03</pdfrwt>
<pdfrwt beam="2">  1       -2 0.17484025E+00 0.79927871E+03</pdfrwt>
<totfact> 0.49241580E+00</totfact>
</mgrwt>
</event>
<event>
 4    1  0.1033139E-008  0.6709624E+03  0.7818608E-02  0.9768221E-01
         -2   -1    0    0    0  501 -0.00000000000E+00  0.00000000000E+00  0.95555205909E+03  0.95555205910E+03  0.25500000000E-02 0.  1.
          2   -1    0    0  501    0  0.00000000000E+00 -0.00000000000E+00 -0.12612337933E+04  0.12612337933E+04  0.25500000000E-02 0. -1.
    8880022    1    1    2    0    0 -0.19451977378E+02 -0.65300878931E+03  0.72443797300E+03  0.98742133260E+03  0.15294330000E+03 0.  0.
    8880022    1    1    2    0    0  0.19451977378E+02  0.65300878931E+03 -0.10301197072E+04  0.12293645198E+04  0.15294330000E+03 0.  0.
<mgrwt>
<rscale>  0 0.67096238E+03</rscale>
<asrwt>0</asrwt>
<pdfrwt beam="1">  1        2 0.19403597E+00 0.67096238E+03</pdfrwt>
<pdfrwt beam="2">  1       -2 0.14700801E+00 0.67096238E+03</pdfrwt>
<totfact> 0.56935633E+00</totfact>
</mgrwt>
</event>
<event>
 4    1  0.1033139E-008  0.7958681E+03  0.7818608E-02  0.9566017E-01
          2   -1    0    0  501    0  0.00000000000E+00  0.00000000000E+00  0.17703925891E+04  0.17703925891E+04  0.25500000000E-02 0. -1.
         -2   -1    0    0    0  501 -0.00000000000E+00 -0.00000000000E+00 -0.45169244135E+03  0.45169244136E+03  0.25500000000E-02 0.  1.
    8880022    1    1    2    0    0 -0.77338456822E+03 -0.10904456428E+03  0.11659642781E+04  0.14116935780E+04  0.15294330000E+03 0.  0.
    8880022    1    1    2    0    0  0.77338456822E+03  0.10904456428E+03  0.15273586967E+03  0.81039145248E+03  0.15294330000E+03 0.  0.
<mgrwt>
<rscale>  0 0.79586812E+03</rscale>
<asrwt>0</asrwt>
<pdfrwt beam="1">  1        2 0.27236810E+00 0.79586812E+03</pdfrwt>
<pdfrwt beam="2">  1       -2 0.69491143E-01 0.79586812E+03</pdfrwt>
<totfact> 0.17321658E+01</totfact>
</mgrwt>
</event>
<event>
 4    1  0.1033139E-008  0.8529489E+03  0.7818608E-02  0.9486388E-01
         -2   -1    0    0    0  501 -0.00000000000E+00  0.00000000000E+00  0.56903083246E+03  0.56903083247E+03  0.25500000000E-02 0.  1.
          2   -1    0    0  501    0  0.00000000000E+00 -0.00000000000E+00 -0.38122237368E+04  0.38122237368E+04  0.25500000000E-02 0. -1.
    8880022    1    1    2    0    0  0.77545877239E+03 -0.32061483503E+03 -0.34074939763E+04  0.35126253760E+04  0.15294330000E+03 0.  0.
    8880022    1    1    2    0    0 -0.77545877239E+03  0.32061483503E+03  0.16430107203E+03  0.86862919327E+03  0.15294330000E+03 0.  0.
<mgrwt>
<rscale>  0 0.85294890E+03</rscale>
<asrwt>0</asrwt>
<pdfrwt beam="1">  1        2 0.58649594E+00 0.85294890E+03</pdfrwt>
<pdfrwt beam="2">  1       -2 0.87543207E-01 0.85294890E+03</pdfrwt>
<totfact> 0.58308019E-01</totfact>
</mgrwt>
</event>
<event>
 4    1  0.1033139E-008  0.5478402E+03  0.7818608E-02  0.1001995E+00
          2   -1    0    0  501    0  0.00000000000E+00  0.00000000000E+00  0.17967472674E+03  0.17967472676E+03  0.25500000000E-02 0. -1.
         -2   -1    0    0    0  501 -0.00000000000E+00 -0.00000000000E+00 -0.25197644117E+04  0.25197644117E+04  0.25500000000E-02 0.  1.
    8880022    1    1    2    0    0 -0.35036252360E+03  0.39240708902E+03 -0.19536734925E+04  0.20290315398E+04  0.15294330000E+03 0.  0.
    8880022    1    1    2    0    0  0.35036252360E+03 -0.39240708902E+03 -0.38641619247E+03  0.67040759861E+03  0.15294330000E+03 0.  0.
<mgrwt>
<rscale>  0 0.54784019E+03</rscale>
<asrwt>0</asrwt>
<pdfrwt beam="1">  1        2 0.27642268E-01 0.54784019E+03</pdfrwt>
<pdfrwt beam="2">  1       -2 0.38765604E+00 0.54784019E+03</pdfrwt>
<totfact> 0.19161716E+00</totfact>
</mgrwt>
</event>
<event>
 4    1  0.1033139E-008  0.8178458E+03  0.7818608E-02  0.9534539E-01
          2   -1    0    0  501    0  0.00000000000E+00  0.00000000000E+00  0.14066687880E+04  0.14066687880E+04  0.25500000000E-02 0. -1.
         -2   -1    0    0    0  501 -0.00000000000E+00 -0.00000000000E+00 -0.80228032038E+03  0.80228032038E+03  0.25500000000E-02 0.  1.
    8880022    1    1    2    0    0  0.56610318584E+03 -0.57009407316E+03 -0.40269398993E+03  0.91161075675E+03  0.15294330000E+03 0.  0.
    8880022    1    1    2    0    0 -0.56610318584E+03  0.57009407316E+03  0.10070824575E+04  0.12973383516E+04  0.15294330000E+03 0.  0.
<mgrwt>
<rscale>  0 0.81784578E+03</rscale>
<asrwt>0</asrwt>
<pdfrwt beam="1">  1        2 0.21641058E+00 0.81784578E+03</pdfrwt>
<pdfrwt beam="2">  1       -2 0.12342774E+00 0.81784578E+03</pdfrwt>
<totfact> 0.72004947E+00</totfact>
</mgrwt>
</event>
<event>
 4    1  0.1033139E-008  0.3548838E+03  0.7818608E-02  0.1060628E+00
          2   -1    0    0  501    0  0.00000000000E+00  0.00000000000E+00  0.85234524808E+03  0.85234524809E+03  0.25500000000E-02 0. -1.
         -2   -1    0    0    0  501 -0.00000000000E+00 -0.00000000000E+00 -0.48598913907E+03  0.48598913907E+03  0.25500000000E-02 0.  1.
    8880022    1    1    2    0    0 -0.27187703275E+02 -0.31907938473E+03  0.74142571474E+03  0.82198209741E+03  0.15294330000E+03 0.  0.
    8880022    1    1    2    0    0  0.27187703275E+02  0.31907938473E+03 -0.37506960572E+03  0.51635228975E+03  0.15294330000E+03 0.  0.
<mgrwt>
<rscale>  0 0.35488375E+03</rscale>
<asrwt>0</asrwt>
<pdfrwt beam="1">  1        2 0.13113004E+00 0.35488375E+03</pdfrwt>
<pdfrwt beam="2">  1       -2 0.74767561E-01 0.35488375E+03</pdfrwt>
<totfact> 0.53923820E+01</totfact>
</mgrwt>
</event>
<event>
 4    1  0.1033139E-008  0.8678317E+03  0.7818608E-02  0.9466711E-01
         -2   -1    0    0    0  501 -0.00000000000E+00  0.00000000000E+00  0.63364287212E+03  0.63364287212E+03  0.25500000000E-02 0.  1.
          2   -1    0    0  501    0  0.00000000000E+00 -0.00000000000E+00 -0.21763573019E+04  0.21763573019E+04  0.25500000000E-02 0. -1.
    8880022    1    1    2    0    0 -0.27324866249E+02  0.85381121414E+03  0.17518924938E+03  0.88533788116E+03  0.15294330000E+03 0.  0.
    8880022    1    1    2    0    0  0.27324866249E+02 -0.85381121414E+03 -0.17179036792E+04  0.19246622929E+04  0.15294330000E+03 0.  0.
<mgrwt>
<rscale>  0 0.86783172E+03</rscale>
<asrwt>0</asrwt>
<pdfrwt beam="1">  1        2 0.33482420E+00 0.86783172E+03</pdfrwt>
<pdfrwt beam="2">  1       -2 0.97483520E-01 0.86783172E+03</pdfrwt>
<totfact> 0.47705613E+00</totfact>
</mgrwt>
</event>
<event>
 4    1  0.1033139E-008  0.8580096E+03  0.7818608E-02  0.9479649E-01
         -2   -1    0    0    0  501 -0.00000000000E+00  0.00000000000E+00  0.16761366765E+04  0.16761366765E+04  0.25500000000E-02 0.  1.
          2   -1    0    0  501    0  0.00000000000E+00 -0.00000000000E+00 -0.14941833693E+04  0.14941833693E+04  0.25500000000E-02 0. -1.
    8880022    1    1    2    0    0  0.84340445736E+03  0.38180045924E+02 -0.12409838990E+04  0.15087151769E+04  0.15294330000E+03 0.  0.
    8880022    1    1    2    0    0 -0.84340445736E+03 -0.38180045924E+02  0.14229372061E+04  0.16616048688E+04  0.15294330000E+03 0.  0.
<mgrwt>
<rscale>  0 0.85800958E+03</rscale>
<asrwt>0</asrwt>
<pdfrwt beam="1">  1        2 0.22987437E+00 0.85800958E+03</pdfrwt>
<pdfrwt beam="2">  1       -2 0.25786718E+00 0.85800958E+03</pdfrwt>
<totfact> 0.75208260E-01</totfact>
</mgrwt>
</event>
<event>
 4    1  0.1033139E-008  0.1138069E+04  0.7818608E-02  0.9168861E-01
         -2   -1    0    0    0  501 -0.00000000000E+00  0.00000000000E+00  0.71650474169E+03  0.71650474169E+03  0.25500000000E-02 0.  1.
          2   -1    0    0  501    0  0.00000000000E+00 -0.00000000000E+00 -0.29941809550E+04  0.29941809550E+04  0.25500000000E-02 0. -1.
    8880022    1    1    2    0    0  0.49428745516E+03  0.10136518725E+04  0.29104784994E+02  0.11384414559E+04  0.15294330000E+03 0.  0.
    8880022    1    1    2    0    0 -0.49428745516E+03 -0.10136518725E+04 -0.23067809983E+04  0.25722442408E+04  0.15294330000E+03 0.  0.
<mgrwt>
<rscale>  0 0.11380694E+04</rscale>
<asrwt>0</asrwt>
<pdfrwt beam="1">  1        2 0.46064322E+00 0.11380694E+04</pdfrwt>
<pdfrwt beam="2">  1       -2 0.11023150E+00 0.11380694E+04</pdfrwt>
<totfact> 0.11449515E+00</totfact>
</mgrwt>
</event>
<event>
 4    1  0.1033139E-008  0.5335300E+03  0.7818608E-02  0.1005380E+00
          2   -1    0    0  501    0  0.00000000000E+00  0.00000000000E+00  0.16152957971E+04  0.16152957971E+04  0.25500000000E-02 0. -1.
         -2   -1    0    0    0  501 -0.00000000000E+00 -0.00000000000E+00 -0.33411422710E+03  0.33411422711E+03  0.25500000000E-02 0.  1.
    8880022    1    1    2    0    0  0.45048464310E+03  0.24150820789E+03 -0.29452722730E+02  0.53434234722E+03  0.15294330000E+03 0.  0.
    8880022    1    1    2    0    0 -0.45048464310E+03 -0.24150820789E+03  0.13106342928E+04  0.14150676770E+04  0.15294330000E+03 0.  0.
<mgrwt>
<rscale>  0 0.53353002E+03</rscale>
<asrwt>0</asrwt>
<pdfrwt beam="1">  1        2 0.24850705E+00 0.53353002E+03</pdfrwt>
<pdfrwt beam="2">  1       -2 0.51402188E-01 0.53353002E+03</pdfrwt>
<totfact> 0.41224756E+01</totfact>
</mgrwt>
</event>
<event>
 4    1  0.1033139E-008  0.2771505E+03  0.7818608E-02  0.1097256E+00
          2   -1    0    0  501    0  0.00000000000E+00  0.00000000000E+00  0.30970819306E+03  0.30970819307E+03  0.25500000000E-02 0. -1.
         -2   -1    0    0    0  501 -0.00000000000E+00 -0.00000000000E+00 -0.66982377748E+03  0.66982377748E+03  0.25500000000E-02 0.  1.
    8880022    1    1    2    0    0 -0.44556606716E+02  0.22679389491E+03  0.20859869179E+03  0.34688013665E+03  0.15294330000E+03 0.  0.
    8880022    1    1    2    0    0  0.44556606716E+02 -0.22679389491E+03 -0.56871427620E+03  0.63265183391E+03  0.15294330000E+03 0.  0.
<mgrwt>
<rscale>  0 0.27715053E+03</rscale>
<asrwt>0</asrwt>
<pdfrwt beam="1">  1        2 0.47647415E-01 0.27715053E+03</pdfrwt>
<pdfrwt beam="2">  1       -2 0.10304981E+00 0.27715053E+03</pdfrwt>
<totfact> 0.85128002E+01</totfact>
</mgrwt>
</event>
<event>
 4    1  0.1033139E-008  0.9951592E+03  0.7818608E-02  0.9313870E-01
          2   -1    0    0  501    0  0.00000000000E+00  0.00000000000E+00  0.21241853358E+04  0.21241853358E+04  0.25500000000E-02 0. -1.
         -2   -1    0    0    0  501 -0.00000000000E+00 -0.00000000000E+00 -0.71225753439E+03  0.71225753439E+03  0.25500000000E-02 0.  1.
    8880022    1    1    2    0    0  0.96828860924E+03 -0.17136892713E+03  0.15395001593E+04  0.18331400747E+04  0.15294330000E+03 0.  0.
    8880022    1    1    2    0    0 -0.96828860924E+03  0.17136892713E+03 -0.12757235787E+03  0.10033027955E+04  0.15294330000E+03 0.  0.
<mgrwt>
<rscale>  0 0.99515918E+03</rscale>
<asrwt>0</asrwt>
<pdfrwt beam="1">  1        2 0.32679773E+00 0.99515918E+03</pdfrwt>
<pdfrwt beam="2">  1       -2 0.10957809E+00 0.99515918E+03</pdfrwt>
<totfact> 0.37852014E+00</totfact>
</mgrwt>
</event>
<event>
 4    1  0.1033139E-008  0.7913246E+03  0.7818608E-02  0.9572660E-01
          2   -1    0    0  501    0  0.00000000000E+00  0.00000000000E+00  0.70171632229E+03  0.70171632229E+03  0.25500000000E-02 0. -1.
         -2   -1    0    0    0  501 -0.00000000000E+00 -0.00000000000E+00 -0.16195373641E+04  0.16195373641E+04  0.25500000000E-02 0.  1.
    8880022    1    1    2    0    0  0.22385655370E+03 -0.74343201857E+03 -0.12366114541E+04  0.14681288990E+04  0.15294330000E+03 0.  0.
    8880022    1    1    2    0    0 -0.22385655370E+03  0.74343201857E+03  0.31879041223E+03  0.85312478736E+03  0.15294330000E+03 0.  0.
<mgrwt>
<rscale>  0 0.79132457E+03</rscale>
<asrwt>0</asrwt>
<pdfrwt beam="1">  1        2 0.10795636E+00 0.79132457E+03</pdfrwt>
<pdfrwt beam="2">  1       -2 0.24915959E+00 0.79132457E+03</pdfrwt>
<totfact> 0.27212189E+00</totfact>
</mgrwt>
</event>
<event>
 4    1  0.1033139E-008  0.5611203E+03  0.7818608E-02  0.9989523E-01
         -2   -1    0    0    0  501 -0.00000000000E+00  0.00000000000E+00  0.61708538363E+03  0.61708538364E+03  0.25500000000E-02 0.  1.
          2   -1    0    0  501    0  0.00000000000E+00 -0.00000000000E+00 -0.14794370129E+04  0.14794370129E+04  0.25500000000E-02 0. -1.
    8880022    1    1    2    0    0  0.23097307842E+03  0.48797110287E+03  0.41728023245E+03  0.69927019499E+03  0.15294330000E+03 0.  0.
    8880022    1    1    2    0    0 -0.23097307842E+03 -0.48797110287E+03 -0.12796318617E+04  0.13972522015E+04  0.15294330000E+03 0.  0.
<mgrwt>
<rscale>  0 0.56112032E+03</rscale>
<asrwt>0</asrwt>
<pdfrwt beam="1">  1        2 0.22760569E+00 0.56112032E+03</pdfrwt>
<pdfrwt beam="2">  1       -2 0.94936213E-01 0.56112032E+03</pdfrwt>
<totfact> 0.12826131E+01</totfact>
</mgrwt>
</event>
<event>
 4    1  0.1033139E-008  0.8943481E+03  0.7818608E-02  0.9432674E-01
         -2   -1    0    0    0  501 -0.00000000000E+00  0.00000000000E+00  0.64983619539E+03  0.64983619540E+03  0.25500000000E-02 0.  1.
          2   -1    0    0  501    0  0.00000000000E+00 -0.00000000000E+00 -0.14456294312E+04  0.14456294312E+04  0.25500000000E-02 0. -1.
    8880022    1    1    2    0    0  0.77250527151E+03  0.42391325778E+03  0.59407927052E+01  0.89436781621E+03  0.15294330000E+03 0.  0.
    8880022    1    1    2    0    0 -0.77250527151E+03 -0.42391325778E+03 -0.80173402853E+03  0.12010978104E+04  0.15294330000E+03 0.  0.
<mgrwt>
<rscale>  0 0.89434809E+03</rscale>
<asrwt>0</asrwt>
<pdfrwt beam="1">  1        2 0.22240453E+00 0.89434809E+03</pdfrwt>
<pdfrwt beam="2">  1       -2 0.99974800E-01 0.89434809E+03</pdfrwt>
<totfact> 0.11331522E+01</totfact>
</mgrwt>
</event>
<event>
 4    1  0.1033139E-008  0.2179849E+04  0.7818608E-02  0.8526862E-01
         -2   -1    0    0    0  501 -0.00000000000E+00  0.00000000000E+00  0.16056238337E+04  0.16056238337E+04  0.25500000000E-02 0.  1.
          2   -1    0    0  501    0  0.00000000000E+00 -0.00000000000E+00 -0.31576543805E+04  0.31576543805E+04  0.25500000000E-02 0. -1.
    8880022    1    1    2    0    0 -0.14300167875E+04 -0.16381093044E+04 -0.17930284388E+03  0.21872108423E+04  0.15294330000E+03 0.  0.
    8880022    1    1    2    0    0  0.14300167875E+04  0.16381093044E+04 -0.13727277029E+04  0.25760673720E+04  0.15294330000E+03 0.  0.
<mgrwt>
<rscale>  0 0.21798490E+04</rscale>
<asrwt>0</asrwt>
<pdfrwt beam="1">  1        2 0.48579298E+00 0.21798490E+04</pdfrwt>
<pdfrwt beam="2">  1       -2 0.24701905E+00 0.21798490E+04</pdfrwt>
<totfact> 0.80843267E-02</totfact>
</mgrwt>
</event>
<event>
 4    1  0.1033139E-008  0.1515861E+04  0.7818608E-02  0.8873974E-01
         -2   -1    0    0    0  501 -0.00000000000E+00  0.00000000000E+00  0.11723342436E+04  0.11723342436E+04  0.25500000000E-02 0.  1.
          2   -1    0    0  501    0  0.00000000000E+00 -0.00000000000E+00 -0.25626206910E+04  0.25626206910E+04  0.25500000000E-02 0. -1.
    8880022    1    1    2    0    0  0.91903900419E+03 -0.11957463960E+04 -0.16007031419E+04  0.22045598963E+04  0.15294330000E+03 0.  0.
    8880022    1    1    2    0    0 -0.91903900419E+03  0.11957463960E+04  0.21041669445E+03  0.15303950383E+04  0.15294330000E+03 0.  0.
<mgrwt>
<rscale>  0 0.15158607E+04</rscale>
<asrwt>0</asrwt>
<pdfrwt beam="1">  1        2 0.39424934E+00 0.15158607E+04</pdfrwt>
<pdfrwt beam="2">  1       -2 0.18035911E+00 0.15158607E+04</pdfrwt>
<totfact> 0.54236900E-01</totfact>
</mgrwt>
</event>
<event>
 4    1  0.1033139E-008  0.1292288E+04  0.7818608E-02  0.9035703E-01
          2   -1    0    0  501    0  0.00000000000E+00  0.00000000000E+00  0.22008074220E+04  0.22008074220E+04  0.25500000000E-02 0. -1.
         -2   -1    0    0    0  501 -0.00000000000E+00 -0.00000000000E+00 -0.13582735559E+04  0.13582735559E+04  0.25500000000E-02 0.  1.
    8880022    1    1    2    0    0  0.11267131799E+04 -0.61411338747E+03 -0.76093919221E+03  0.14996792823E+04  0.15294330000E+03 0.  0.
    8880022    1    1    2    0    0 -0.11267131799E+04  0.61411338747E+03  0.16034730582E+04  0.20594016956E+04  0.15294330000E+03 0.  0.
<mgrwt>
<rscale>  0 0.12922885E+04</rscale>
<asrwt>0</asrwt>
<pdfrwt beam="1">  1        2 0.33858575E+00 0.12922885E+04</pdfrwt>
<pdfrwt beam="2">  1       -2 0.20896516E+00 0.12922885E+04</pdfrwt>
<totfact> 0.57658624E-01</totfact>
</mgrwt>
</event>
<event>
 4    1  0.1262738E-008  0.1109509E+04  0.7818608E-02  0.9195973E-01
         -2   -1    0    0    0  501 -0.00000000000E+00  0.00000000000E+00  0.17367956756E+04  0.17367956756E+04  0.25500000000E-02 0.  1.
          2   -1    0    0  501    0  0.00000000000E+00 -0.00000000000E+00 -0.24404938774E+04  0.24404938774E+04  0.25500000000E-02 0. -1.
    8880022    1    1    2    0    0  0.65829892762E+03  0.87992049583E+03 -0.21112449485E+04  0.23850292331E+04  0.15294330000E+03 0.  0.
    8880022    1    1    2    0    0 -0.65829892762E+03 -0.87992049583E+03  0.14075467467E+04  0.17922603199E+04  0.15294330000E+03 0.  0.
<mgrwt>
<rscale>  0 0.11095085E+04</rscale>
<asrwt>0</asrwt>
<pdfrwt beam="1">  1        2 0.37546060E+00 0.11095085E+04</pdfrwt>
<pdfrwt beam="2">  1       -2 0.26719933E+00 0.11095085E+04</pdfrwt>
<totfact> 0.18856440E-01</totfact>
</mgrwt>
</event>
<event>
 4    1  0.1033139E-008  0.1089321E+04  0.7818608E-02  0.9215663E-01
          2   -1    0    0  501    0  0.00000000000E+00  0.00000000000E+00  0.12283477880E+04  0.12283477880E+04  0.25500000000E-02 0. -1.
         -2   -1    0    0    0  501 -0.00000000000E+00 -0.00000000000E+00 -0.19603632441E+04  0.19603632441E+04  0.25500000000E-02 0.  1.
    8880022    1    1    2    0    0  0.26793566783E+03 -0.10447195834E+04  0.76948141229E+03  0.13336873048E+04  0.15294330000E+03 0.  0.
    8880022    1    1    2    0    0 -0.26793566783E+03  0.10447195834E+04 -0.15014968684E+04  0.18550237273E+04  0.15294330000E+03 0.  0.
<mgrwt>
<rscale>  0 0.10893210E+04</rscale>
<asrwt>0</asrwt>
<pdfrwt beam="1">  1        2 0.18897658E+00 0.10893210E+04</pdfrwt>
<pdfrwt beam="2">  1       -2 0.30159435E+00 0.10893210E+04</pdfrwt>
<totfact> 0.56114298E-01</totfact>
</mgrwt>
</event>
<event>
 4    1  0.1033139E-008  0.5447785E+03  0.7818608E-02  0.1002710E+00
         -2   -1    0    0    0  501 -0.00000000000E+00  0.00000000000E+00  0.14371523468E+04  0.14371523468E+04  0.25500000000E-02 0.  1.
          2   -1    0    0  501    0  0.00000000000E+00 -0.00000000000E+00 -0.52745164232E+03  0.52745164232E+03  0.25500000000E-02 0. -1.
    8880022    1    1    2    0    0 -0.56767286744E+02  0.51977829682E+03 -0.31139525237E+03  0.62749554492E+03  0.15294330000E+03 0.  0.
    8880022    1    1    2    0    0  0.56767286744E+02 -0.51977829682E+03  0.12210959568E+04  0.13371084442E+04  0.15294330000E+03 0.  0.
<mgrwt>
<rscale>  0 0.54477854E+03</rscale>
<asrwt>0</asrwt>
<pdfrwt beam="1">  1        2 0.81146408E-01 0.54477854E+03</pdfrwt>
<pdfrwt beam="2">  1       -2 0.22110036E+00 0.54477854E+03</pdfrwt>
<totfact> 0.59296240E+00</totfact>
</mgrwt>
</event>
<event>
 4    1  0.1033139E-008  0.4350677E+03  0.7818608E-02  0.1032271E+00
          2   -1    0    0  501    0  0.00000000000E+00  0.00000000000E+00  0.17528192479E+04  0.17528192479E+04  0.25500000000E-02 0. -1.
         -2   -1    0    0    0  501 -0.00000000000E+00 -0.00000000000E+00 -0.30242508434E+03  0.30242508435E+03  0.25500000000E-02 0.  1.
    8880022    1    1    2    0    0  0.12993645653E+03  0.38601654800E+03 -0.98777493755E+02  0.44614000533E+03  0.15294330000E+03 0.  0.
    8880022    1    1    2    0    0 -0.12993645653E+03 -0.38601654800E+03  0.15491716573E+04  0.16091043269E+04  0.15294330000E+03 0. -1.
<mgrwt>
<rscale>  0 0.43506771E+03</rscale>
<asrwt>0</asrwt>
<pdfrwt beam="1">  1        2 0.26966450E+00 0.43506771E+03</pdfrwt>
<pdfrwt beam="2">  1       -2 0.46526936E-01 0.43506771E+03</pdfrwt>
<totfact> 0.43227565E+01</totfact>
</mgrwt>
</event>
<event>
 4    1  0.1033139E-008  0.1173982E+04  0.7818608E-02  0.9135940E-01
         -2   -1    0    0    0  501 -0.00000000000E+00  0.00000000000E+00  0.93161632858E+03  0.93161632858E+03  0.25500000000E-02 0.  1.
          2   -1    0    0  501    0  0.00000000000E+00 -0.00000000000E+00 -0.17041418937E+04  0.17041418937E+04  0.25500000000E-02 0. -1.
    8880022    1    1    2    0    0 -0.93259389677E+03 -0.69649841862E+03  0.92328562269E+02  0.11776067424E+04  0.15294330000E+03 0.  0.
    8880022    1    1    2    0    0  0.93259389677E+03  0.69649841862E+03 -0.86485412734E+03  0.14581514798E+04  0.15294330000E+03 0.  0.
<mgrwt>
<rscale>  0 0.11739817E+04</rscale>
<asrwt>0</asrwt>
<pdfrwt beam="1">  1        2 0.26217568E+00 0.11739817E+04</pdfrwt>
<pdfrwt beam="2">  1       -2 0.14332559E+00 0.11739817E+04</pdfrwt>
<totfact> 0.32140191E+00</totfact>
</mgrwt>
</event>
<event>
 4    1  0.1033139E-008  0.6287464E+03  0.7818608E-02  0.9847498E-01
          2   -1    0    0  501    0  0.00000000000E+00  0.00000000000E+00  0.16952409538E+04  0.16952409538E+04  0.25500000000E-02 0. -1.
         -2   -1    0    0    0  501 -0.00000000000E+00 -0.00000000000E+00 -0.31935178362E+03  0.31935178363E+03  0.25500000000E-02 0.  1.
    8880022    1    1    2    0    0 -0.16789810796E+03 -0.58629394841E+03  0.12111435512E+04  0.13646210914E+04  0.15294330000E+03 0.  0.
    8880022    1    1    2    0    0  0.16789810796E+03  0.58629394841E+03  0.16474561900E+03  0.64997164599E+03  0.15294330000E+03 0.  0.
<mgrwt>
<rscale>  0 0.62874639E+03</rscale>
<asrwt>0</asrwt>
<pdfrwt beam="1">  1        2 0.26080630E+00 0.62874639E+03</pdfrwt>
<pdfrwt beam="2">  1       -2 0.49131043E-01 0.62874639E+03</pdfrwt>
<totfact> 0.40305109E+01</totfact>
</mgrwt>
</event>
<event>
 4    1  0.1033139E-008  0.9786930E+03  0.7818608E-02  0.9332228E-01
          2   -1    0    0  501    0  0.00000000000E+00  0.00000000000E+00  0.13216299002E+04  0.13216299002E+04  0.25500000000E-02 0. -1.
         -2   -1    0    0    0  501 -0.00000000000E+00 -0.00000000000E+00 -0.23740519336E+04  0.23740519336E+04  0.25500000000E-02 0.  1.
    8880022    1    1    2    0    0 -0.16361111548E+03 -0.95272228192E+03  0.10139661444E+04  0.14092435341E+04  0.15294330000E+03 0.  0.
    8880022    1    1    2    0    0  0.16361111548E+03  0.95272228192E+03 -0.20663881778E+04  0.22864382996E+04  0.15294330000E+03 0.  0.
<mgrwt>
<rscale>  0 0.97869300E+03</rscale>
<asrwt>0</asrwt>
<pdfrwt beam="1">  1        2 0.20332768E+00 0.97869300E+03</pdfrwt>
<pdfrwt beam="2">  1       -2 0.36523876E+00 0.97869300E+03</pdfrwt>
<totfact> 0.20353404E-01</totfact>
</mgrwt>
</event>
<event>
 4    1  0.1033139E-008  0.4374882E+03  0.7818608E-02  0.1031520E+00
          2   -1    0    0  501    0  0.00000000000E+00  0.00000000000E+00  0.40590892932E+04  0.40590892932E+04  0.25500000000E-02 0. -1.
         -2   -1    0    0    0  501 -0.00000000000E+00 -0.00000000000E+00 -0.11638599812E+03  0.11638599815E+03  0.25500000000E-02 0.  1.
    8880022    1    1    2    0    0 -0.38819128997E+02  0.40804087035E+03  0.36113650130E+03  0.56728784778E+03  0.15294330000E+03 0.  0.
    8880022    1    1    2    0    0  0.38819128997E+02 -0.40804087035E+03  0.35815667938E+04  0.36081874436E+04  0.15294330000E+03 0.  0.
<mgrwt>
<rscale>  0 0.43748821E+03</rscale>
<asrwt>0</asrwt>
<pdfrwt beam="1">  1        2 0.62447517E+00 0.43748821E+03</pdfrwt>
<pdfrwt beam="2">  1       -2 0.17905541E-01 0.43748821E+03</pdfrwt>
<totfact> 0.95282294E+00</totfact>
</mgrwt>
</event>
<event>
 4    1  0.1033139E-008  0.7831106E+03  0.7818608E-02  0.9584791E-01
         -2   -1    0    0    0  501 -0.00000000000E+00  0.00000000000E+00  0.11245820693E+04  0.11245820693E+04  0.25500000000E-02 0.  1.
          2   -1    0    0  501    0  0.00000000000E+00 -0.00000000000E+00 -0.70830765152E+03  0.70830765152E+03  0.25500000000E-02 0. -1.
    8880022    1    1    2    0    0  0.43474114836E+03 -0.63314344604E+03  0.64774637941E+03  0.10162861380E+04  0.15294330000E+03 0.  0.
    8880022    1    1    2    0    0 -0.43474114836E+03  0.63314344604E+03 -0.23147196163E+03  0.81660358276E+03  0.15294330000E+03 0.  0.
<mgrwt>
<rscale>  0 0.78311056E+03</rscale>
<asrwt>0</asrwt>
<pdfrwt beam="1">  1        2 0.10897041E+00 0.78311056E+03</pdfrwt>
<pdfrwt beam="2">  1       -2 0.17301263E+00 0.78311056E+03</pdfrwt>
<totfact> 0.83018614E+00</totfact>
</mgrwt>
</event>
<event>
 4    1  0.1033139E-008  0.7415078E+03  0.7818608E-02  0.9648768E-01
          2   -1    0    0  501    0  0.00000000000E+00  0.00000000000E+00  0.28333036119E+04  0.28333036119E+04  0.25500000000E-02 0. -1.
         -2   -1    0    0    0  501 -0.00000000000E+00 -0.00000000000E+00 -0.32242199199E+03  0.32242199200E+03  0.25500000000E-02 0.  1.
    8880022    1    1    2    0    0  0.71188682599E+03  0.14021188012E+03  0.25986724805E+03  0.78572569258E+03  0.15294330000E+03 0.  0.
    8880022    1    1    2    0    0 -0.71188682599E+03 -0.14021188012E+03  0.22510143719E+04  0.23699999114E+04  0.15294330000E+03 0.  0.
<mgrwt>
<rscale>  0 0.74150784E+03</rscale>
<asrwt>0</asrwt>
<pdfrwt beam="1">  1        2 0.43589286E+00 0.74150784E+03</pdfrwt>
<pdfrwt beam="2">  1       -2 0.49603384E-01 0.74150784E+03</pdfrwt>
<totfact> 0.90007987E+00</totfact>
</mgrwt>
</event>
<event>
 4    1  0.1033139E-008  0.3009428E+03  0.7818608E-02  0.1084770E+00
          2   -1    0    0  501    0  0.00000000000E+00  0.00000000000E+00  0.22852050412E+04  0.22852050412E+04  0.25500000000E-02 0. -1.
         -2   -1    0    0    0  501 -0.00000000000E+00 -0.00000000000E+00 -0.14601776241E+03  0.14601776243E+03  0.25500000000E-02 0.  1.
    8880022    1    1    2    0    0 -0.25643826163E+03 -0.37607423704E+02  0.21072039876E+04  0.21285852576E+04  0.15294330000E+03 0.  0.
    8880022    1    1    2    0    0  0.25643826163E+03  0.37607423704E+02  0.31983291159E+02  0.30263754604E+03  0.15294330000E+03 0.  1.
<mgrwt>
<rscale>  0 0.30094277E+03</rscale>
<asrwt>0</asrwt>
<pdfrwt beam="1">  1        2 0.35156999E+00 0.30094277E+03</pdfrwt>
<pdfrwt beam="2">  1       -2 0.22464272E-01 0.30094277E+03</pdfrwt>
<totfact> 0.89930246E+01</totfact>
</mgrwt>
</event>
<event>
 4    1  0.1033139E-008  0.3464662E+03  0.7818608E-02  0.1064075E+00
         -2   -1    0    0    0  501 -0.00000000000E+00  0.00000000000E+00  0.15505081360E+04  0.15505081360E+04  0.25500000000E-02 0.  1.
          2   -1    0    0  501    0  0.00000000000E+00 -0.00000000000E+00 -0.31385027454E+03  0.31385027455E+03  0.25500000000E-02 0. -1.
    8880022    1    1    2    0    0  0.19160469289E+03 -0.24481583598E+03  0.14274073303E+04  0.14688534615E+04  0.15294330000E+03 0.  0.
    8880022    1    1    2    0    0 -0.19160469289E+03  0.24481583598E+03 -0.19074946877E+03  0.39550494906E+03  0.15294330000E+03 0.  0.
<mgrwt>
<rscale>  0 0.34646617E+03</rscale>
<asrwt>0</asrwt>
<pdfrwt beam="1">  1        2 0.48284659E-01 0.34646617E+03</pdfrwt>
<pdfrwt beam="2">  1       -2 0.23853971E+00 0.34646617E+03</pdfrwt>
<totfact> 0.86255760E+00</totfact>
</mgrwt>
</event>
<event>
 4    1  0.1033139E-008  0.3831658E+03  0.7818608E-02  0.1049770E+00
         -2   -1    0    0    0  501 -0.00000000000E+00  0.00000000000E+00  0.44084422778E+03  0.44084422778E+03  0.25500000000E-02 0.  1.
          2   -1    0    0  501    0  0.00000000000E+00 -0.00000000000E+00 -0.11883857635E+04  0.11883857635E+04  0.25500000000E-02 0. -1.
    8880022    1    1    2    0    0  0.24711564248E+03 -0.24971628242E+03 -0.10648790794E+04  0.11317170447E+04  0.15294330000E+03 0.  0.
    8880022    1    1    2    0    0 -0.24711564248E+03  0.24971628242E+03  0.31733754364E+03  0.49751294664E+03  0.15294330000E+03 0.  0.
<mgrwt>
<rscale>  0 0.38316578E+03</rscale>
<asrwt>0</asrwt>
<pdfrwt beam="1">  1        2 0.18282858E+00 0.38316578E+03</pdfrwt>
<pdfrwt beam="2">  1       -2 0.67822189E-01 0.38316578E+03</pdfrwt>
<totfact> 0.41017291E+01</totfact>
</mgrwt>
</event>
<event>
 4    1  0.1033139E-008  0.8991988E+03  0.7818608E-02  0.9426584E-01
          2   -1    0    0  501    0  0.00000000000E+00  0.00000000000E+00  0.28869781558E+04  0.28869781558E+04  0.25500000000E-02 0. -1.
         -2   -1    0    0    0  501 -0.00000000000E+00 -0.00000000000E+00 -0.98499352202E+03  0.98499352203E+03  0.25500000000E-02 0.  1.
    8880022    1    1    2    0    0 -0.36306786883E+03 -0.80829975307E+03  0.25887748271E+04  0.27404951244E+04  0.15294330000E+03 0.  0.
    8880022    1    1    2    0    0  0.36306786883E+03  0.80829975307E+03 -0.68679019338E+03  0.11314765534E+04  0.15294330000E+03 0.  0.
<mgrwt>
<rscale>  0 0.89919877E+03</rscale>
<asrwt>0</asrwt>
<pdfrwt beam="1">  1        2 0.44415048E+00 0.89919877E+03</pdfrwt>
<pdfrwt beam="2">  1       -2 0.15153747E+00 0.89919877E+03</pdfrwt>
<totfact> 0.61625817E-01</totfact>
</mgrwt>
</event>
<event>
 4    1  0.1033139E-008  0.5021924E+03  0.7818608E-02  0.1013208E+00
         -2   -1    0    0    0  501 -0.00000000000E+00  0.00000000000E+00  0.86019042247E+03  0.86019042247E+03  0.25500000000E-02 0.  1.
          2   -1    0    0  501    0  0.00000000000E+00 -0.00000000000E+00 -0.28983392233E+04  0.28983392233E+04  0.25500000000E-02 0. -1.
    8880022    1    1    2    0    0  0.44667292621E+03  0.17113995071E+03 -0.28007550889E+04  0.28454219910E+04  0.15294330000E+03 0.  0.
    8880022    1    1    2    0    0 -0.44667292621E+03 -0.17113995071E+03  0.76260628803E+03  0.91310765483E+03  0.15294330000E+03 0.  0.
<mgrwt>
<rscale>  0 0.50219243E+03</rscale>
<asrwt>0</asrwt>
<pdfrwt beam="1">  1        2 0.44589834E+00 0.50219243E+03</pdfrwt>
<pdfrwt beam="2">  1       -2 0.13233699E+00 0.50219243E+03</pdfrwt>
<totfact> 0.95350981E-01</totfact>
</mgrwt>
</event>
<event>
 4    1  0.1033139E-008  0.5944798E+03  0.7818608E-02  0.9916925E-01
          2   -1    0    0  501    0  0.00000000000E+00  0.00000000000E+00  0.55443545942E+03  0.55443545943E+03  0.25500000000E-02 0. -1.
         -2   -1    0    0    0  501 -0.00000000000E+00 -0.00000000000E+00 -0.96270663405E+03  0.96270663405E+03  0.25500000000E-02 0.  1.
    8880022    1    1    2    0    0  0.46283798017E+03  0.34028746525E+03  0.23680984570E+03  0.63991023662E+03  0.15294330000E+03 0.  0.
    8880022    1    1    2    0    0 -0.46283798017E+03 -0.34028746525E+03 -0.64508102033E+03  0.87723185686E+03  0.15294330000E+03 0.  0.
<mgrwt>
<rscale>  0 0.59447978E+03</rscale>
<asrwt>0</asrwt>
<pdfrwt beam="1">  1        2 0.85297763E-01 0.59447978E+03</pdfrwt>
<pdfrwt beam="2">  1       -2 0.14810871E+00 0.59447978E+03</pdfrwt>
<totfact> 0.17409556E+01</totfact>
</mgrwt>
</event>
<event>
 4    1  0.1033139E-008  0.1482990E+04  0.7818608E-02  0.8895844E-01
          2   -1    0    0  501    0  0.00000000000E+00  0.00000000000E+00  0.27362405082E+04  0.27362405082E+04  0.25500000000E-02 0. -1.
         -2   -1    0    0    0  501 -0.00000000000E+00 -0.00000000000E+00 -0.10836701693E+04  0.10836701693E+04  0.25500000000E-02 0.  1.
    8880022    1    1    2    0    0 -0.93439975044E+03  0.11413876121E+04 -0.14442546446E+03  0.14900063565E+04  0.15294330000E+03 0.  0.
    8880022    1    1    2    0    0  0.93439975044E+03 -0.11413876121E+04  0.17969958033E+04  0.23299043210E+04  0.15294330000E+03 0.  0.
<mgrwt>
<rscale>  0 0.14829903E+04</rscale>
<asrwt>0</asrwt>
<pdfrwt beam="1">  1        2 0.42096008E+00 0.14829903E+04</pdfrwt>
<pdfrwt beam="2">  1       -2 0.16671849E+00 0.14829903E+04</pdfrwt>
<totfact> 0.53746067E-01</totfact>
</mgrwt>
</event>
<event>
 4    1  0.1272474E-008  0.1284314E+04  0.7818608E-02  0.9042098E-01
         -2   -1    0    0    0  501 -0.00000000000E+00  0.00000000000E+00  0.15403596449E+04  0.15403596450E+04  0.25500000000E-02 0.  1.
          2   -1    0    0  501    0  0.00000000000E+00 -0.00000000000E+00 -0.27557474043E+04  0.27557474043E+04  0.25500000000E-02 0. -1.
    8880022    1    1    2    0    0 -0.12453645652E+04 -0.27411152184E+03 -0.22873285887E+04  0.26232296415E+04  0.15294330000E+03 0.  0.
    8880022    1    1    2    0    0  0.12453645652E+04  0.27411152184E+03  0.10719408293E+04  0.16728774077E+04  0.15294330000E+03 0.  0.
<mgrwt>
<rscale>  0 0.12843137E+04</rscale>
<asrwt>0</asrwt>
<pdfrwt beam="1">  1        2 0.42396114E+00 0.12843137E+04</pdfrwt>
<pdfrwt beam="2">  1       -2 0.23697841E+00 0.12843137E+04</pdfrwt>
<totfact> 0.18397212E-01</totfact>
</mgrwt>
</event>
<event>
 4    1  0.1033139E-008  0.4781350E+03  0.7818608E-02  0.1019649E+00
          2   -1    0    0  501    0  0.00000000000E+00  0.00000000000E+00  0.10710516767E+04  0.10710516767E+04  0.25500000000E-02 0. -1.
         -2   -1    0    0    0  501 -0.00000000000E+00 -0.00000000000E+00 -0.51533076844E+03  0.51533076844E+03  0.25500000000E-02 0.  1.
    8880022    1    1    2    0    0 -0.39869628383E+03 -0.21508774008E+03  0.88495245469E+03  0.10058598127E+04  0.15294330000E+03 0.  0.
    8880022    1    1    2    0    0  0.39869628383E+03  0.21508774008E+03 -0.32923154640E+03  0.58052263250E+03  0.15294330000E+03 0.  0.
<mgrwt>
<rscale>  0 0.47813504E+03</rscale>
<asrwt>0</asrwt>
<pdfrwt beam="1">  1        2 0.16477718E+00 0.47813504E+03</pdfrwt>
<pdfrwt beam="2">  1       -2 0.79281657E-01 0.47813504E+03</pdfrwt>
<totfact> 0.33667535E+01</totfact>
</mgrwt>
</event>
<event>
 4    1  0.1033139E-008  0.1092886E+04  0.7818608E-02  0.9212154E-01
         -2   -1    0    0    0  501 -0.00000000000E+00  0.00000000000E+00  0.70010744421E+03  0.70010744421E+03  0.25500000000E-02 0.  1.
          2   -1    0    0  501    0  0.00000000000E+00 -0.00000000000E+00 -0.29014501049E+04  0.29014501049E+04  0.25500000000E-02 0. -1.
    8880022    1    1    2    0    0  0.91996877783E+02 -0.10782132899E+04 -0.22565559087E+04  0.25072781150E+04  0.15294330000E+03 0.  0.
    8880022    1    1    2    0    0 -0.91996877783E+02  0.10782132899E+04  0.55213247969E+02  0.10942794341E+04  0.15294330000E+03 0.  0.
<mgrwt>
<rscale>  0 0.10928856E+04</rscale>
<asrwt>0</asrwt>
<pdfrwt beam="1">  1        2 0.44637693E+00 0.10928856E+04</pdfrwt>
<pdfrwt beam="2">  1       -2 0.10770884E+00 0.10928856E+04</pdfrwt>
<totfact> 0.13894783E+00</totfact>
</mgrwt>
</event>
<event>
 4    1  0.1090308E-008  0.8544673E+03  0.7818608E-02  0.9484361E-01
         -2   -1    0    0    0  501 -0.00000000000E+00  0.00000000000E+00  0.13874804926E+04  0.13874804926E+04  0.25500000000E-02 0.  1.
          2   -1    0    0  501    0  0.00000000000E+00 -0.00000000000E+00 -0.18966099358E+04  0.18966099358E+04  0.25500000000E-02 0. -1.
    8880022    1    1    2    0    0  0.75056641447E+03 -0.37864602884E+03  0.11412212127E+04  0.14256578366E+04  0.15294330000E+03 0.  0.
    8880022    1    1    2    0    0 -0.75056641447E+03  0.37864602884E+03 -0.16503506559E+04  0.18584325918E+04  0.15294330000E+03 0.  0.
<mgrwt>
<rscale>  0 0.85446733E+03</rscale>
<asrwt>0</asrwt>
<pdfrwt beam="1">  1        2 0.29178615E+00 0.85446733E+03</pdfrwt>
<pdfrwt beam="2">  1       -2 0.21345854E+00 0.85446733E+03</pdfrwt>
<totfact> 0.84848283E-01</totfact>
</mgrwt>
</event>
<event>
 4    1  0.1033139E-008  0.7408552E+03  0.7818608E-02  0.9649807E-01
          2   -1    0    0  501    0  0.00000000000E+00  0.00000000000E+00  0.22957431280E+04  0.22957431280E+04  0.25500000000E-02 0. -1.
         -2   -1    0    0    0  501 -0.00000000000E+00 -0.00000000000E+00 -0.27120335934E+03  0.27120335935E+03  0.25500000000E-02 0.  1.
    8880022    1    1    2    0    0  0.37981491096E+03  0.61742643825E+03  0.14539921552E+04  0.16318577186E+04  0.15294330000E+03 0.  0.
    8880022    1    1    2    0    0 -0.37981491096E+03 -0.61742643825E+03  0.57054761339E+03  0.93508876872E+03  0.15294330000E+03 0.  0.
<mgrwt>
<rscale>  0 0.74085520E+03</rscale>
<asrwt>0</asrwt>
<pdfrwt beam="1">  1        2 0.35319124E+00 0.74085520E+03</pdfrwt>
<pdfrwt beam="2">  1       -2 0.41723595E-01 0.74085520E+03</pdfrwt>
<totfact> 0.25829890E+01</totfact>
</mgrwt>
</event>
<event>
 4    1  0.1033139E-008  0.7511611E+03  0.7818608E-02  0.9633530E-01
          2   -1    0    0  501    0  0.00000000000E+00  0.00000000000E+00  0.23681909199E+04  0.23681909199E+04  0.25500000000E-02 0. -1.
         -2   -1    0    0    0  501 -0.00000000000E+00 -0.00000000000E+00 -0.78837275280E+03  0.78837275281E+03  0.25500000000E-02 0.  1.
    8880022    1    1    2    0    0 -0.36184665795E+03  0.64024868790E+03 -0.52848415430E+03  0.91844354241E+03  0.15294330000E+03 0.  0.
    8880022    1    1    2    0    0  0.36184665795E+03 -0.64024868790E+03  0.21083023214E+04  0.22381201303E+04  0.15294330000E+03 0.  0.
<mgrwt>
<rscale>  0 0.75116113E+03</rscale>
<asrwt>0</asrwt>
<pdfrwt beam="1">  1        2 0.36433706E+00 0.75116113E+03</pdfrwt>
<pdfrwt beam="2">  1       -2 0.12128812E+00 0.75116113E+03</pdfrwt>
<totfact> 0.22434201E+00</totfact>
</mgrwt>
</event>
<event>
 4    1  0.1033139E-008  0.6707399E+03  0.7818608E-02  0.9768622E-01
         -2   -1    0    0    0  501 -0.00000000000E+00  0.00000000000E+00  0.16450377468E+04  0.16450377468E+04  0.25500000000E-02 0.  1.
          2   -1    0    0  501    0  0.00000000000E+00 -0.00000000000E+00 -0.12138104048E+04  0.12138104048E+04  0.25500000000E-02 0. -1.
    8880022    1    1    2    0    0 -0.22660360193E+03 -0.61249588052E+03 -0.10425145490E+04  0.12396485930E+04  0.15294330000E+03 0.  0.
    8880022    1    1    2    0    0  0.22660360193E+03  0.61249588052E+03  0.14737418911E+04  0.16191995586E+04  0.15294330000E+03 0.  0.
<mgrwt>
<rscale>  0 0.67073993E+03</rscale>
<asrwt>0</asrwt>
<pdfrwt beam="1">  1        2 0.18674006E+00 0.67073993E+03</pdfrwt>
<pdfrwt beam="2">  1       -2 0.25308273E+00 0.67073993E+03</pdfrwt>
<totfact> 0.12052809E+00</totfact>
</mgrwt>
</event>
<event>
 4    1  0.1033139E-008  0.8665584E+03  0.7818608E-02  0.9468378E-01
          2   -1    0    0  501    0  0.00000000000E+00  0.00000000000E+00  0.26212853165E+04  0.26212853165E+04  0.25500000000E-02 0. -1.
         -2   -1    0    0    0  501 -0.00000000000E+00 -0.00000000000E+00 -0.10535660020E+04  0.10535660020E+04  0.25500000000E-02 0.  1.
    8880022    1    1    2    0    0  0.29911381388E+03 -0.79878834466E+03 -0.78398610697E+03  0.11685708203E+04  0.15294330000E+03 0.  0.
    8880022    1    1    2    0    0 -0.29911381388E+03  0.79878834466E+03  0.23517054214E+04  0.25062804981E+04  0.15294330000E+03 0.  0.
<mgrwt>
<rscale>  0 0.86655845E+03</rscale>
<asrwt>0</asrwt>
<pdfrwt beam="1">  1        2 0.40327466E+00 0.86655845E+03</pdfrwt>
<pdfrwt beam="2">  1       -2 0.16208708E+00 0.86655845E+03</pdfrwt>
<totfact> 0.74194822E-01</totfact>
</mgrwt>
</event>
<event>
 4    1  0.1495008E-008  0.7322377E+03  0.7818608E-02  0.9663636E-01
          2   -1    0    0  501    0  0.00000000000E+00  0.00000000000E+00  0.18793639770E+04  0.18793639770E+04  0.25500000000E-02 0. -1.
         -2   -1    0    0    0  501 -0.00000000000E+00 -0.00000000000E+00 -0.15472979295E+04  0.15472979295E+04  0.25500000000E-02 0.  1.
    8880022    1    1    2    0    0 -0.19994576018E+02  0.71580765521E+03 -0.13813027700E+04  0.15633839508E+04  0.15294330000E+03 0.  0.
    8880022    1    1    2    0    0  0.19994576018E+02 -0.71580765521E+03  0.17133688175E+04  0.18632779557E+04  0.15294330000E+03 0.  0.
<mgrwt>
<rscale>  0 0.73223769E+03</rscale>
<asrwt>0</asrwt>
<pdfrwt beam="1">  1        2 0.28913292E+00 0.73223769E+03</pdfrwt>
<pdfrwt beam="2">  1       -2 0.23804583E+00 0.73223769E+03</pdfrwt>
<totfact> 0.62484738E-01</totfact>
</mgrwt>
</event>
<event>
 4    1  0.1033139E-008  0.2089294E+03  0.7818608E-02  0.1142417E+00
         -2   -1    0    0    0  501 -0.00000000000E+00  0.00000000000E+00  0.73536268048E+03  0.73536268048E+03  0.25500000000E-02 0.  1.
          2   -1    0    0  501    0  0.00000000000E+00 -0.00000000000E+00 -0.10689843618E+03  0.10689843621E+03  0.25500000000E-02 0. -1.
    8880022    1    1    2    0    0  0.12007591879E+03 -0.76430428017E+02  0.59506715558E+03  0.63067932364E+03  0.15294330000E+03 0.  0.
    8880022    1    1    2    0    0 -0.12007591879E+03  0.76430428017E+02  0.33397088720E+02  0.21158179305E+03  0.15294330000E+03 0.  0.
<mgrwt>
<rscale>  0 0.20892939E+03</rscale>
<asrwt>0</asrwt>
<pdfrwt beam="1">  1        2 0.16445913E-01 0.20892939E+03</pdfrwt>
<pdfrwt beam="2">  1       -2 0.11313272E+00 0.20892939E+03</pdfrwt>
<totfact> 0.22434839E+02</totfact>
</mgrwt>
</event>
<event>
 4    1  0.1033139E-008  0.2799946E+03  0.7818608E-02  0.1095692E+00
          2   -1    0    0  501    0  0.00000000000E+00  0.00000000000E+00  0.20258433737E+04  0.20258433737E+04  0.25500000000E-02 0. -1.
         -2   -1    0    0    0  501 -0.00000000000E+00 -0.00000000000E+00 -0.78183772619E+02  0.78183772661E+02  0.25500000000E-02 0.  1.
    8880022    1    1    2    0    0  0.29765645020E+02 -0.23263556614E+03  0.22620964706E+03  0.35995521624E+03  0.15294330000E+03 0.  1.
    8880022    1    1    2    0    0 -0.29765645020E+02  0.23263556614E+03  0.17214499540E+04  0.17440719301E+04  0.15294330000E+03 0.  0.
<mgrwt>
<rscale>  0 0.27999456E+03</rscale>
<asrwt>0</asrwt>
<pdfrwt beam="1">  1        2 0.31166819E+00 0.27999456E+03</pdfrwt>
<pdfrwt beam="2">  1       -2 0.12028274E-01 0.27999456E+03</pdfrwt>
<totfact> 0.35500714E+02</totfact>
</mgrwt>
</event>
<event>
 4    1  0.1033139E-008  0.5973329E+03  0.7818608E-02  0.9910955E-01
          2   -1    0    0  501    0  0.00000000000E+00  0.00000000000E+00  0.11782574640E+04  0.11782574640E+04  0.25500000000E-02 0. -1.
         -2   -1    0    0    0  501 -0.00000000000E+00 -0.00000000000E+00 -0.71429507616E+03  0.71429507616E+03  0.25500000000E-02 0.  1.
    8880022    1    1    2    0    0  0.39241894729E+03  0.42358269240E+03 -0.48622295141E+03  0.77020733506E+03  0.15294330000E+03 0.  0.
    8880022    1    1    2    0    0 -0.39241894729E+03 -0.42358269240E+03  0.95018533928E+03  0.11223452051E+04  0.15294330000E+03 0.  0.
<mgrwt>
<rscale>  0 0.59733289E+03</rscale>
<asrwt>0</asrwt>
<pdfrwt beam="1">  1        2 0.18127038E+00 0.59733289E+03</pdfrwt>
<pdfrwt beam="2">  1       -2 0.10989155E+00 0.59733289E+03</pdfrwt>
<totfact> 0.13372835E+01</totfact>
</mgrwt>
</event>
<event>
 4    1  0.1033139E-008  0.1086212E+04  0.7818608E-02  0.9218736E-01
         -2   -1    0    0    0  501 -0.00000000000E+00  0.00000000000E+00  0.67087788351E+03  0.67087788352E+03  0.25500000000E-02 0.  1.
          2   -1    0    0  501    0  0.00000000000E+00 -0.00000000000E+00 -0.32947074970E+04  0.32947074970E+04  0.25500000000E-02 0. -1.
    8880022    1    1    2    0    0  0.52198334918E+03  0.94021170034E+03  0.41930511845E+02  0.10870209194E+04  0.15294330000E+03 0.  0.
    8880022    1    1    2    0    0 -0.52198334918E+03 -0.94021170034E+03 -0.26657601253E+04  0.28785644612E+04  0.15294330000E+03 0.  0.
<mgrwt>
<rscale>  0 0.10862119E+04</rscale>
<asrwt>0</asrwt>
<pdfrwt beam="1">  1        2 0.50687807E+00 0.10862119E+04</pdfrwt>
<pdfrwt beam="2">  1       -2 0.10321198E+00 0.10862119E+04</pdfrwt>
<totfact> 0.87105221E-01</totfact>
</mgrwt>
</event>
<event>
 4    1  0.1033139E-008  0.1938000E+04  0.7818608E-02  0.8636169E-01
          2   -1    0    0  501    0  0.00000000000E+00  0.00000000000E+00  0.29970512246E+04  0.29970512246E+04  0.25500000000E-02 0. -1.
         -2   -1    0    0    0  501 -0.00000000000E+00 -0.00000000000E+00 -0.24312166555E+04  0.24312166555E+04  0.25500000000E-02 0.  1.
    8880022    1    1    2    0    0 -0.18923389450E+04  0.38923714184E+03 -0.16063738812E+04  0.25171970393E+04  0.15294330000E+03 0.  0.
    8880022    1    1    2    0    0  0.18923389450E+04 -0.38923714184E+03  0.21722084504E+04  0.29110708408E+04  0.15294330000E+03 0.  0.
<mgrwt>
<rscale>  0 0.19380000E+04</rscale>
<asrwt>0</asrwt>
<pdfrwt beam="1">  1        2 0.46108480E+00 0.19380000E+04</pdfrwt>
<pdfrwt beam="2">  1       -2 0.37403333E+00 0.19380000E+04</pdfrwt>
<totfact> 0.16977248E-02</totfact>
</mgrwt>
</event>
<event>
 4    1  0.1033139E-008  0.4928921E+03  0.7818608E-02  0.1015651E+00
          2   -1    0    0  501    0  0.00000000000E+00  0.00000000000E+00  0.11946835018E+04  0.11946835019E+04  0.25500000000E-02 0. -1.
         -2   -1    0    0    0  501 -0.00000000000E+00 -0.00000000000E+00 -0.56265082158E+03  0.56265082158E+03  0.25500000000E-02 0.  1.
    8880022    1    1    2    0    0 -0.51628087299E+02 -0.46570964377E+03 -0.38613730266E+03  0.62613465103E+03  0.15294330000E+03 0.  0.
    8880022    1    1    2    0    0  0.51628087299E+02  0.46570964377E+03  0.10181699829E+04  0.11311996724E+04  0.15294330000E+03 0.  0.
<mgrwt>
<rscale>  0 0.49289206E+03</rscale>
<asrwt>0</asrwt>
<pdfrwt beam="1">  1        2 0.18379746E+00 0.49289206E+03</pdfrwt>
<pdfrwt beam="2">  1       -2 0.86561666E-01 0.49289206E+03</pdfrwt>
<totfact> 0.23261342E+01</totfact>
</mgrwt>
</event>
<event>
 4    1  0.1033139E-008  0.5094379E+03  0.7818608E-02  0.1011344E+00
         -2   -1    0    0    0  501 -0.00000000000E+00  0.00000000000E+00  0.12179660158E+04  0.12179660158E+04  0.25500000000E-02 0.  1.
          2   -1    0    0  501    0  0.00000000000E+00 -0.00000000000E+00 -0.10223644070E+04  0.10223644070E+04  0.25500000000E-02 0. -1.
    8880022    1    1    2    0    0 -0.10057293175E+03 -0.47541598290E+03 -0.89881829532E+03  0.10331511276E+04  0.15294330000E+03 0.  0.
    8880022    1    1    2    0    0  0.10057293175E+03  0.47541598290E+03  0.10944199041E+04  0.12071792953E+04  0.15294330000E+03 0.  0.
<mgrwt>
<rscale>  0 0.50943785E+03</rscale>
<asrwt>0</asrwt>
<pdfrwt beam="1">  1        2 0.15728683E+00 0.50943785E+03</pdfrwt>
<pdfrwt beam="2">  1       -2 0.18737939E+00 0.50943785E+03</pdfrwt>
<totfact> 0.41959670E+00</totfact>
</mgrwt>
</event>
<event>
 4    1  0.1033139E-008  0.1421987E+04  0.7818608E-02  0.8938055E-01
          2   -1    0    0  501    0  0.00000000000E+00  0.00000000000E+00  0.22310788806E+04  0.22310788806E+04  0.25500000000E-02 0. -1.
         -2   -1    0    0    0  501 -0.00000000000E+00 -0.00000000000E+00 -0.11948120919E+04  0.11948120919E+04  0.25500000000E-02 0.  1.
    8880022    1    1    2    0    0 -0.13372971474E+04  0.45857463447E+03  0.13598565285E+04  0.19675507075E+04  0.15294330000E+03 0.  0.
    8880022    1    1    2    0    0  0.13372971474E+04 -0.45857463447E+03 -0.32358973983E+03  0.14583402650E+04  0.15294330000E+03 0.  0.
<mgrwt>
<rscale>  0 0.14219866E+04</rscale>
<asrwt>0</asrwt>
<pdfrwt beam="1">  1        2 0.34324290E+00 0.14219866E+04</pdfrwt>
<pdfrwt beam="2">  1       -2 0.18381725E+00 0.14219866E+04</pdfrwt>
<totfact> 0.80274650E-01</totfact>
</mgrwt>
</event>
<event>
 4    1  0.1033139E-008  0.3642101E+03  0.7818608E-02  0.1056929E+00
         -2   -1    0    0    0  501 -0.00000000000E+00  0.00000000000E+00  0.22058617923E+03  0.22058617925E+03  0.25500000000E-02 0.  1.
          2   -1    0    0  501    0  0.00000000000E+00 -0.00000000000E+00 -0.98459910586E+03  0.98459910586E+03  0.25500000000E-02 0. -1.
    8880022    1    1    2    0    0  0.73424798349E+02 -0.32228273679E+03 -0.60514152787E+01  0.36426039599E+03  0.15294330000E+03 0.  0.
    8880022    1    1    2    0    0 -0.73424798349E+02  0.32228273679E+03 -0.75796151135E+03  0.84092488912E+03  0.15294330000E+03 0.  0.
<mgrwt>
<rscale>  0 0.36421013E+03</rscale>
<asrwt>0</asrwt>
<pdfrwt beam="1">  1        2 0.15147678E+00 0.36421013E+03</pdfrwt>
<pdfrwt beam="2">  1       -2 0.33936336E-01 0.36421013E+03</pdfrwt>
<totfact> 0.21794443E+02</totfact>
</mgrwt>
</event>
<event>
 4    1  0.1033139E-008  0.1095568E+04  0.7818608E-02  0.9209523E-01
          2   -1    0    0  501    0  0.00000000000E+00  0.00000000000E+00  0.21365221519E+04  0.21365221519E+04  0.25500000000E-02 0. -1.
         -2   -1    0    0    0  501 -0.00000000000E+00 -0.00000000000E+00 -0.10382738328E+04  0.10382738328E+04  0.25500000000E-02 0.  1.
    8880022    1    1    2    0    0 -0.81035499740E+01  0.10848092853E+04 -0.52624040585E+03  0.12154001279E+04  0.15294330000E+03 0.  0.
    8880022    1    1    2    0    0  0.81035499740E+01 -0.10848092853E+04  0.16244887250E+04  0.19593958568E+04  0.15294330000E+03 0.  0.
<mgrwt>
<rscale>  0 0.10955677E+04</rscale>
<asrwt>0</asrwt>
<pdfrwt beam="1">  1        2 0.32869571E+00 0.10955677E+04</pdfrwt>
<pdfrwt beam="2">  1       -2 0.15973444E+00 0.10955677E+04</pdfrwt>
<totfact> 0.13991272E+00</totfact>
</mgrwt>
</event>
<event>
 4    1  0.1033139E-008  0.5240764E+03  0.7818608E-02  0.1007679E+00
          2   -1    0    0  501    0  0.00000000000E+00  0.00000000000E+00  0.75024654603E+03  0.75024654603E+03  0.25500000000E-02 0. -1.
         -2   -1    0    0    0  501 -0.00000000000E+00 -0.00000000000E+00 -0.67028045719E+03  0.67028045720E+03  0.25500000000E-02 0.  1.
    8880022    1    1    2    0    0 -0.20400493743E+03 -0.45787163961E+03 -0.43849893313E+03  0.68332819364E+03  0.15294330000E+03 0.  0.
    8880022    1    1    2    0    0  0.20400493743E+03  0.45787163961E+03  0.51846502196E+03  0.73719880959E+03  0.15294330000E+03 0. -1.
<mgrwt>
<rscale>  0 0.52407643E+03</rscale>
<asrwt>0</asrwt>
<pdfrwt beam="1">  1        2 0.11542255E+00 0.52407643E+03</pdfrwt>
<pdfrwt beam="2">  1       -2 0.10312007E+00 0.52407643E+03</pdfrwt>
<totfact> 0.29866500E+01</totfact>
</mgrwt>
</event>
<event>
 4    1  0.1033139E-008  0.5432470E+03  0.7818608E-02  0.1003069E+00
          2   -1    0    0  501    0  0.00000000000E+00  0.00000000000E+00  0.11456713846E+04  0.11456713847E+04  0.25500000000E-02 0. -1.
         -2   -1    0    0    0  501 -0.00000000000E+00 -0.00000000000E+00 -0.40559819287E+03  0.40559819288E+03  0.25500000000E-02 0.  1.
    8880022    1    1    2    0    0 -0.49548866101E+03  0.16191543939E+03 -0.98504087577E+02  0.55210536221E+03  0.15294330000E+03 0.  0.
    8880022    1    1    2    0    0  0.49548866101E+03 -0.16191543939E+03  0.83857727936E+03  0.99916421532E+03  0.15294330000E+03 0.  0.
<mgrwt>
<rscale>  0 0.54324697E+03</rscale>
<asrwt>0</asrwt>
<pdfrwt beam="1">  1        2 0.17625714E+00 0.54324697E+03</pdfrwt>
<pdfrwt beam="2">  1       -2 0.62399722E-01 0.54324697E+03</pdfrwt>
<totfact> 0.50622919E+01</totfact>
</mgrwt>
</event>
<event>
 4    1  0.1033139E-008  0.9608844E+03  0.7818608E-02  0.9352518E-01
         -2   -1    0    0    0  501 -0.00000000000E+00  0.00000000000E+00  0.14210558992E+04  0.14210558992E+04  0.25500000000E-02 0.  1.
          2   -1    0    0  501    0  0.00000000000E+00 -0.00000000000E+00 -0.25620091320E+04  0.25620091320E+04  0.25500000000E-02 0. -1.
    8880022    1    1    2    0    0  0.46015862753E+03 -0.82955478236E+03  0.11500960493E+04  0.14986726377E+04  0.15294330000E+03 0.  0.
    8880022    1    1    2    0    0 -0.46015862753E+03  0.82955478236E+03 -0.22910492820E+04  0.24843923936E+04  0.15294330000E+03 0.  0.
<mgrwt>
<rscale>  0 0.96088436E+03</rscale>
<asrwt>0</asrwt>
<pdfrwt beam="1">  1        2 0.39415525E+00 0.96088436E+03</pdfrwt>
<pdfrwt beam="2">  1       -2 0.21862398E+00 0.96088436E+03</pdfrwt>
<totfact> 0.32840619E-01</totfact>
</mgrwt>
</event>
<event>
 4    1  0.1033139E-008  0.2090644E+03  0.7818608E-02  0.1142309E+00
         -2   -1    0    0    0  501 -0.00000000000E+00  0.00000000000E+00  0.14610495109E+03  0.14610495112E+03  0.25500000000E-02 0.  1.
          2   -1    0    0  501    0  0.00000000000E+00 -0.00000000000E+00 -0.13901955329E+04  0.13901955329E+04  0.25500000000E-02 0. -1.
    8880022    1    1    2    0    0 -0.11523311089E+03  0.83890339788E+02  0.58455800724E+02  0.21708291644E+03  0.15294330000E+03 0.  1.
    8880022    1    1    2    0    0  0.11523311089E+03 -0.83890339788E+02 -0.13025463826E+04  0.13192175676E+04  0.15294330000E+03 0.  0.
<mgrwt>
<rscale>  0 0.20906437E+03</rscale>
<asrwt>0</asrwt>
<pdfrwt beam="1">  1        2 0.21387623E+00 0.20906437E+03</pdfrwt>
<pdfrwt beam="2">  1       -2 0.22477686E-01 0.20906437E+03</pdfrwt>
<totfact> 0.27373225E+02</totfact>
</mgrwt>
</event>
<event>
 4    1  0.1033139E-008  0.3081147E+03  0.7818608E-02  0.1081253E+00
          2   -1    0    0  501    0  0.00000000000E+00  0.00000000000E+00  0.31935805355E+04  0.31935805355E+04  0.25500000000E-02 0. -1.
         -2   -1    0    0    0  501 -0.00000000000E+00 -0.00000000000E+00 -0.64165403086E+03  0.64165403087E+03  0.25500000000E-02 0.  1.
    8880022    1    1    2    0    0  0.26687016980E+03  0.17981527026E+02 -0.59670733751E+03  0.67156110853E+03  0.15294330000E+03 0.  0.
    8880022    1    1    2    0    0 -0.26687016980E+03 -0.17981527026E+02  0.31486338421E+04  0.31636734578E+04  0.15294330000E+03 0.  0.
<mgrwt>
<rscale>  0 0.30811471E+03</rscale>
<asrwt>0</asrwt>
<pdfrwt beam="1">  1        2 0.49132007E+00 0.30811471E+03</pdfrwt>
<pdfrwt beam="2">  1       -2 0.98716007E-01 0.30811471E+03</pdfrwt>
<totfact> 0.14013261E+00</totfact>
</mgrwt>
</event>
<event>
 4    1  0.1033139E-008  0.1279932E+04  0.7818608E-02  0.9045633E-01
          2   -1    0    0  501    0  0.00000000000E+00  0.00000000000E+00  0.20450021217E+04  0.20450021217E+04  0.25500000000E-02 0. -1.
         -2   -1    0    0    0  501 -0.00000000000E+00 -0.00000000000E+00 -0.88730763214E+03  0.88730763214E+03  0.25500000000E-02 0.  1.
    8880022    1    1    2    0    0 -0.58280637754E+03 -0.11292342459E+04  0.12181380243E+03  0.12857151751E+04  0.15294330000E+03 0.  0.
    8880022    1    1    2    0    0  0.58280637754E+03  0.11292342459E+04  0.10358806871E+04  0.16465945788E+04  0.15294330000E+03 0.  0.
<mgrwt>
<rscale>  0 0.12799316E+04</rscale>
<asrwt>0</asrwt>
<pdfrwt beam="1">  1        2 0.31461571E+00 0.12799316E+04</pdfrwt>
<pdfrwt beam="2">  1       -2 0.13650887E+00 0.12799316E+04</pdfrwt>
<totfact> 0.23370713E+00</totfact>
</mgrwt>
</event>
<event>
 4    1  0.1033139E-008  0.1037850E+04  0.7818608E-02  0.9267979E-01
          2   -1    0    0  501    0  0.00000000000E+00  0.00000000000E+00  0.21459919809E+04  0.21459919809E+04  0.25500000000E-02 0. -1.
         -2   -1    0    0    0  501 -0.00000000000E+00 -0.00000000000E+00 -0.52586454454E+03  0.52586454455E+03  0.25500000000E-02 0.  1.
    8880022    1    1    2    0    0 -0.44469449632E+03  0.92519636559E+03  0.10950855909E+04  0.15087563138E+04  0.15294330000E+03 0.  0.
    8880022    1    1    2    0    0  0.44469449632E+03 -0.92519636559E+03  0.52504184554E+03  0.11631002117E+04  0.15294330000E+03 0.  0.
<mgrwt>
<rscale>  0 0.10378503E+04</rscale>
<asrwt>0</asrwt>
<pdfrwt beam="1">  1        2 0.33015261E+00 0.10378503E+04</pdfrwt>
<pdfrwt beam="2">  1       -2 0.80902239E-01 0.10378503E+04</pdfrwt>
<totfact> 0.74610682E+00</totfact>
</mgrwt>
</event>
<event>
 4    1  0.1033139E-008  0.7471192E+03  0.7818608E-02  0.9639881E-01
          2   -1    0    0  501    0  0.00000000000E+00  0.00000000000E+00  0.24374018524E+04  0.24374018524E+04  0.25500000000E-02 0. -1.
         -2   -1    0    0    0  501 -0.00000000000E+00 -0.00000000000E+00 -0.23906619413E+03  0.23906619414E+03  0.25500000000E-02 0.  1.
    8880022    1    1    2    0    0  0.72734267964E+03  0.75948086039E+02  0.82468838421E+03  0.11127884208E+04  0.15294330000E+03 0.  0.
    8880022    1    1    2    0    0 -0.72734267964E+03 -0.75948086039E+02  0.13736472741E+04  0.15636796258E+04  0.15294330000E+03 0.  0.
<mgrwt>
<rscale>  0 0.74711923E+03</rscale>
<asrwt>0</asrwt>
<pdfrwt beam="1">  1        2 0.37498492E+00 0.74711923E+03</pdfrwt>
<pdfrwt beam="2">  1       -2 0.36779412E-01 0.74711923E+03</pdfrwt>
<totfact> 0.27477888E+01</totfact>
</mgrwt>
</event>
<event>
 4    1  0.1033139E-008  0.4577623E+03  0.7818608E-02  0.1025432E+00
          2   -1    0    0  501    0  0.00000000000E+00  0.00000000000E+00  0.97980015175E+03  0.97980015175E+03  0.25500000000E-02 0. -1.
         -2   -1    0    0    0  501 -0.00000000000E+00 -0.00000000000E+00 -0.71920222987E+03  0.71920222988E+03  0.25500000000E-02 0.  1.
    8880022    1    1    2    0    0  0.23009016400E+03 -0.36498386835E+03  0.84237850913E+03  0.95872202092E+03  0.15294330000E+03 0.  0.
    8880022    1    1    2    0    0 -0.23009016400E+03  0.36498386835E+03 -0.58178058726E+03  0.74028036071E+03  0.15294330000E+03 0.  0.
<mgrwt>
<rscale>  0 0.45776234E+03</rscale>
<asrwt>0</asrwt>
<pdfrwt beam="1">  1        2 0.15073848E+00 0.45776234E+03</pdfrwt>
<pdfrwt beam="2">  1       -2 0.11064650E+00 0.45776234E+03</pdfrwt>
<totfact> 0.17785489E+01</totfact>
</mgrwt>
</event>
<event>
 4    1  0.1033139E-008  0.5348219E+03  0.7818608E-02  0.1005069E+00
         -2   -1    0    0    0  501 -0.00000000000E+00  0.00000000000E+00  0.61890987006E+03  0.61890987007E+03  0.25500000000E-02 0.  1.
          2   -1    0    0  501    0  0.00000000000E+00 -0.00000000000E+00 -0.74883531946E+03  0.74883531947E+03  0.25500000000E-02 0. -1.
    8880022    1    1    2    0    0 -0.37302639571E+03  0.35141732693E+03 -0.48809708956E+03  0.72406715947E+03  0.15294330000E+03 0.  0.
    8880022    1    1    2    0    0  0.37302639571E+03 -0.35141732693E+03  0.35817164016E+03  0.64367803007E+03  0.15294330000E+03 0.  0.
<mgrwt>
<rscale>  0 0.53482192E+03</rscale>
<asrwt>0</asrwt>
<pdfrwt beam="1">  1        2 0.11520543E+00 0.53482192E+03</pdfrwt>
<pdfrwt beam="2">  1       -2 0.95216903E-01 0.53482192E+03</pdfrwt>
<totfact> 0.36066115E+01</totfact>
</mgrwt>
</event>
<event>
 4    1  0.1033139E-008  0.5268894E+03  0.7818608E-02  0.1006989E+00
          2   -1    0    0  501    0  0.00000000000E+00  0.00000000000E+00  0.11186600631E+04  0.11186600631E+04  0.25500000000E-02 0. -1.
         -2   -1    0    0    0  501 -0.00000000000E+00 -0.00000000000E+00 -0.42747165140E+03  0.42747165140E+03  0.25500000000E-02 0.  1.
    8880022    1    1    2    0    0 -0.50389893427E+03 -0.17511170162E+02 -0.15508651074E+03  0.54923970711E+03  0.15294330000E+03 0.  0.
    8880022    1    1    2    0    0  0.50389893427E+03  0.17511170162E+02  0.84627492244E+03  0.99689200740E+03  0.15294330000E+03 0.  0.
<mgrwt>
<rscale>  0 0.52688939E+03</rscale>
<asrwt>0</asrwt>
<pdfrwt beam="1">  1        2 0.17210155E+00 0.52688939E+03</pdfrwt>
<pdfrwt beam="2">  1       -2 0.65764869E-01 0.52688939E+03</pdfrwt>
<totfact> 0.47077263E+01</totfact>
</mgrwt>
</event>
<event>
 4    1  0.1033139E-008  0.1007434E+04  0.7818608E-02  0.9300429E-01
         -2   -1    0    0    0  501 -0.00000000000E+00  0.00000000000E+00  0.10901323624E+04  0.10901323624E+04  0.25500000000E-02 0.  1.
          2   -1    0    0  501    0  0.00000000000E+00 -0.00000000000E+00 -0.18637593041E+04  0.18637593041E+04  0.25500000000E-02 0. -1.
    8880022    1    1    2    0    0 -0.95362697832E+03 -0.28657802744E+03  0.65803270371E+03  0.12032996600E+04  0.15294330000E+03 0.  0.
    8880022    1    1    2    0    0  0.95362697832E+03  0.28657802744E+03 -0.14316596455E+04  0.17505920064E+04  0.15294330000E+03 0.  0.
<mgrwt>
<rscale>  0 0.10074339E+04</rscale>
<asrwt>0</asrwt>
<pdfrwt beam="1">  1        2 0.28673220E+00 0.10074339E+04</pdfrwt>
<pdfrwt beam="2">  1       -2 0.16771267E+00 0.10074339E+04</pdfrwt>
<totfact> 0.17512172E+00</totfact>
</mgrwt>
</event>
<event>
 4    1  0.1033139E-008  0.1600553E+03  0.7818608E-02  0.1188634E+00
          2   -1    0    0  501    0  0.00000000000E+00  0.00000000000E+00  0.19157716158E+04  0.19157716158E+04  0.25500000000E-02 0. -1.
         -2   -1    0    0    0  501 -0.00000000000E+00 -0.00000000000E+00 -0.41462854118E+02  0.41462854196E+02  0.25500000000E-02 0.  1.
    8880022    1    1    2    0    0 -0.45095758606E+02  0.13871761533E+02  0.17426546734E+04  0.17499894334E+04  0.15294330000E+03 0. -1.
    8880022    1    1    2    0    0  0.45095758606E+02 -0.13871761533E+02  0.13165408819E+03  0.20724503653E+03  0.15294330000E+03 0.  0.
<mgrwt>
<rscale>  0 0.16005532E+03</rscale>
<asrwt>0</asrwt>
<pdfrwt beam="1">  1        2 0.29473404E+00 0.16005532E+03</pdfrwt>
<pdfrwt beam="2">  1       -2 0.63789018E-02 0.16005532E+03</pdfrwt>
<totfact> 0.11234411E+03</totfact>
</mgrwt>
</event>
<event>
 4    1  0.1033139E-008  0.1559449E+04  0.7818608E-02  0.8845855E-01
          2   -1    0    0  501    0  0.00000000000E+00  0.00000000000E+00  0.35076359946E+04  0.35076359946E+04  0.25500000000E-02 0. -1.
         -2   -1    0    0    0  501 -0.00000000000E+00 -0.00000000000E+00 -0.84571817996E+03  0.84571817996E+03  0.25500000000E-02 0.  1.
    8880022    1    1    2    0    0 -0.12268656616E+04  0.95041628370E+03  0.40693312320E+03  0.16116689126E+04  0.15294330000E+03 0.  0.
    8880022    1    1    2    0    0  0.12268656616E+04 -0.95041628370E+03  0.22549846915E+04  0.27416852620E+04  0.15294330000E+03 0.  0.
<mgrwt>
<rscale>  0 0.15594493E+04</rscale>
<asrwt>0</asrwt>
<pdfrwt beam="1">  1        2 0.53963631E+00 0.15594493E+04</pdfrwt>
<pdfrwt beam="2">  1       -2 0.13011049E+00 0.15594493E+04</pdfrwt>
<totfact> 0.33043305E-01</totfact>
</mgrwt>
</event>
<event>
 4    1  0.1033139E-008  0.8801356E+03  0.7818608E-02  0.9450759E-01
         -2   -1    0    0    0  501 -0.00000000000E+00  0.00000000000E+00  0.10999368444E+04  0.10999368444E+04  0.25500000000E-02 0.  1.
          2   -1    0    0  501    0  0.00000000000E+00 -0.00000000000E+00 -0.15446925037E+04  0.15446925037E+04  0.25500000000E-02 0. -1.
    8880022    1    1    2    0    0  0.51108691502E+03 -0.70002655821E+03 -0.11977399568E+04  0.14863443995E+04  0.15294330000E+03 0. -1.
    8880022    1    1    2    0    0 -0.51108691502E+03  0.70002655821E+03  0.75298429751E+03  0.11582849486E+04  0.15294330000E+03 0.  0.
<mgrwt>
<rscale>  0 0.88013560E+03</rscale>
<asrwt>0</asrwt>
<pdfrwt beam="1">  1        2 0.23764500E+00 0.88013560E+03</pdfrwt>
<pdfrwt beam="2">  1       -2 0.16922105E+00 0.88013560E+03</pdfrwt>
<totfact> 0.26084513E+00</totfact>
</mgrwt>
</event>
<event>
 4    1  0.1033139E-008  0.7514287E+03  0.7818608E-02  0.9633112E-01
         -2   -1    0    0    0  501 -0.00000000000E+00  0.00000000000E+00  0.19485424059E+04  0.19485424059E+04  0.25500000000E-02 0.  1.
          2   -1    0    0  501    0  0.00000000000E+00 -0.00000000000E+00 -0.10044891222E+04  0.10044891222E+04  0.25500000000E-02 0. -1.
    8880022    1    1    2    0    0 -0.51267573887E+03  0.52765231601E+03  0.17174892422E+04  0.18746771268E+04  0.15294330000E+03 0.  0.
    8880022    1    1    2    0    0  0.51267573887E+03 -0.52765231601E+03 -0.77343595844E+03  0.10783544012E+04  0.15294330000E+03 0.  0.
<mgrwt>
<rscale>  0 0.75142866E+03</rscale>
<asrwt>0</asrwt>
<pdfrwt beam="1">  1        2 0.15453679E+00 0.75142866E+03</pdfrwt>
<pdfrwt beam="2">  1       -2 0.29977576E+00 0.75142866E+03</pdfrwt>
<totfact> 0.83460064E-01</totfact>
</mgrwt>
</event>
<event>
 4    1  0.1033139E-008  0.8765478E+03  0.7818608E-02  0.9455382E-01
          2   -1    0    0  501    0  0.00000000000E+00  0.00000000000E+00  0.96455100836E+03  0.96455100837E+03  0.25500000000E-02 0. -1.
         -2   -1    0    0    0  501 -0.00000000000E+00 -0.00000000000E+00 -0.85745180873E+03  0.85745180874E+03  0.25500000000E-02 0.  1.
    8880022    1    1    2    0    0 -0.77930080540E+03  0.37099143418E+03 -0.18919215067E+03  0.89673279878E+03  0.15294330000E+03 0.  0.
    8880022    1    1    2    0    0  0.77930080540E+03 -0.37099143418E+03  0.29629135030E+03  0.92527001832E+03  0.15294330000E+03 0.  0.
<mgrwt>
<rscale>  0 0.87654780E+03</rscale>
<asrwt>0</asrwt>
<pdfrwt beam="1">  1        2 0.14839246E+00 0.87654780E+03</pdfrwt>
<pdfrwt beam="2">  1       -2 0.13191566E+00 0.87654780E+03</pdfrwt>
<totfact> 0.11150866E+01</totfact>
</mgrwt>
</event>
<event>
 4    1  0.1033139E-008  0.5897165E+03  0.7818608E-02  0.9926974E-01
         -2   -1    0    0    0  501 -0.00000000000E+00  0.00000000000E+00  0.53013396072E+03  0.53013396073E+03  0.25500000000E-02 0.  1.
          2   -1    0    0  501    0  0.00000000000E+00 -0.00000000000E+00 -0.93741242253E+03  0.93741242253E+03  0.25500000000E-02 0. -1.
    8880022    1    1    2    0    0 -0.51437928570E+03 -0.24451560593E+03 -0.60568126364E+03  0.84534926346E+03  0.15294330000E+03 0.  0.
    8880022    1    1    2    0    0  0.51437928570E+03  0.24451560593E+03  0.19840280183E+03  0.62219711980E+03  0.15294330000E+03 0.  0.
<mgrwt>
<rscale>  0 0.58971653E+03</rscale>
<asrwt>0</asrwt>
<pdfrwt beam="1">  1        2 0.14421730E+00 0.58971653E+03</pdfrwt>
<pdfrwt beam="2">  1       -2 0.81559071E-01 0.58971653E+03</pdfrwt>
<totfact> 0.37793398E+01</totfact>
</mgrwt>
</event>
<event>
 4    1  0.1033139E-008  0.3920400E+03  0.7818608E-02  0.1046571E+00
          2   -1    0    0  501    0  0.00000000000E+00  0.00000000000E+00  0.20112732060E+04  0.20112732060E+04  0.25500000000E-02 0. -1.
         -2   -1    0    0    0  501 -0.00000000000E+00 -0.00000000000E+00 -0.23237187665E+03  0.23237187666E+03  0.25500000000E-02 0.  1.
    8880022    1    1    2    0    0 -0.32912661530E+03  0.14825437123E+03  0.18084854405E+04  0.18504904564E+04  0.15294330000E+03 0. -1.
    8880022    1    1    2    0    0  0.32912661530E+03 -0.14825437123E+03 -0.29584111229E+02  0.39315462625E+03  0.15294330000E+03 0.  0.
<mgrwt>
<rscale>  0 0.39203997E+03</rscale>
<asrwt>0</asrwt>
<pdfrwt beam="1">  1        2 0.30942666E+00 0.39203997E+03</pdfrwt>
<pdfrwt beam="2">  1       -2 0.35749518E-01 0.39203997E+03</pdfrwt>
<totfact> 0.52929004E+01</totfact>
</mgrwt>
</event>
<event>
 4    1  0.1033139E-008  0.3030747E+03  0.7818608E-02  0.1083714E+00
         -2   -1    0    0    0  501 -0.00000000000E+00  0.00000000000E+00  0.76894025733E+02  0.76894025776E+02  0.25500000000E-02 0.  1.
          2   -1    0    0  501    0  0.00000000000E+00 -0.00000000000E+00 -0.24229683933E+04  0.24229683933E+04  0.25500000000E-02 0. -1.
    8880022    1    1    2    0    0  0.21727186634E+03  0.14579280521E+03 -0.28304899658E+03  0.41469385507E+03  0.15294330000E+03 0.  1.
    8880022    1    1    2    0    0 -0.21727186634E+03 -0.14579280521E+03 -0.20630253710E+04  0.20851685640E+04  0.15294330000E+03 0.  0.
<mgrwt>
<rscale>  0 0.30307468E+03</rscale>
<asrwt>0</asrwt>
<pdfrwt beam="1">  1        2 0.37276431E+00 0.30307468E+03</pdfrwt>
<pdfrwt beam="2">  1       -2 0.11829852E-01 0.30307468E+03</pdfrwt>
<totfact> 0.22243338E+02</totfact>
</mgrwt>
</event>
<event>
 4    1  0.1033139E-008  0.7563036E+03  0.7818608E-02  0.9625513E-01
          2   -1    0    0  501    0  0.00000000000E+00  0.00000000000E+00  0.16840606599E+04  0.16840606599E+04  0.25500000000E-02 0. -1.
         -2   -1    0    0    0  501 -0.00000000000E+00 -0.00000000000E+00 -0.48407818246E+03  0.48407818247E+03  0.25500000000E-02 0.  1.
    8880022    1    1    2    0    0  0.73138794129E+03  0.11694056934E+03  0.11921277763E+04  0.14117944983E+04  0.15294330000E+03 0.  0.
    8880022    1    1    2    0    0 -0.73138794129E+03 -0.11694056934E+03  0.78547011238E+01  0.75634434405E+03  0.15294330000E+03 0.  0.
<mgrwt>
<rscale>  0 0.75630356E+03</rscale>
<asrwt>0</asrwt>
<pdfrwt beam="1">  1        2 0.25908625E+00 0.75630356E+03</pdfrwt>
<pdfrwt beam="2">  1       -2 0.74473568E-01 0.75630356E+03</pdfrwt>
<totfact> 0.16671028E+01</totfact>
</mgrwt>
</event>
<event>
 4    1  0.1033139E-008  0.6405328E+03  0.7818608E-02  0.9824708E-01
         -2   -1    0    0    0  501 -0.00000000000E+00  0.00000000000E+00  0.85954465127E+03  0.85954465128E+03  0.25500000000E-02 0.  1.
          2   -1    0    0  501    0  0.00000000000E+00 -0.00000000000E+00 -0.21337004762E+04  0.21337004762E+04  0.25500000000E-02 0. -1.
    8880022    1    1    2    0    0 -0.47910849478E+03 -0.39666815554E+03 -0.19557139651E+04  0.20579356991E+04  0.15294330000E+03 0.  0.
    8880022    1    1    2    0    0  0.47910849478E+03  0.39666815554E+03  0.68155814016E+03  0.93530942838E+03  0.15294330000E+03 0.  0.
<mgrwt>
<rscale>  0 0.64053277E+03</rscale>
<asrwt>0</asrwt>
<pdfrwt beam="1">  1        2 0.32826161E+00 0.64053277E+03</pdfrwt>
<pdfrwt beam="2">  1       -2 0.13223764E+00 0.64053277E+03</pdfrwt>
<totfact> 0.24884862E+00</totfact>
</mgrwt>
</event>
<event>
 4    1  0.1033139E-008  0.6142426E+03  0.7818608E-02  0.9876290E-01
         -2   -1    0    0    0  501 -0.00000000000E+00  0.00000000000E+00  0.57965867620E+03  0.57965867620E+03  0.25500000000E-02 0.  1.
          2   -1    0    0  501    0  0.00000000000E+00 -0.00000000000E+00 -0.11281402915E+04  0.11281402915E+04  0.25500000000E-02 0. -1.
    8880022    1    1    2    0    0  0.30966989694E+03 -0.50794374935E+03 -0.82963120156E+03  0.10322702559E+04  0.15294330000E+03 0.  0.
    8880022    1    1    2    0    0 -0.30966989694E+03  0.50794374935E+03  0.28114958628E+03  0.67552871180E+03  0.15294330000E+03 0.  0.
<mgrwt>
<rscale>  0 0.61424258E+03</rscale>
<asrwt>0</asrwt>
<pdfrwt beam="1">  1        2 0.17356004E+00 0.61424258E+03</pdfrwt>
<pdfrwt beam="2">  1       -2 0.89178258E-01 0.61424258E+03</pdfrwt>
<totfact> 0.23374715E+01</totfact>
</mgrwt>
</event>
<event>
 4    1  0.1033139E-008  0.1598321E+04  0.7818608E-02  0.8821580E-01
         -2   -1    0    0    0  501 -0.00000000000E+00  0.00000000000E+00  0.86738135377E+03  0.86738135378E+03  0.25500000000E-02 0.  1.
          2   -1    0    0  501    0  0.00000000000E+00 -0.00000000000E+00 -0.30369042901E+04  0.30369042901E+04  0.25500000000E-02 0. -1.
    8880022    1    1    2    0    0 -0.40082437294E+03  0.15396681605E+04 -0.14239497697E+04  0.21406220642E+04  0.15294330000E+03 0.  0.
    8880022    1    1    2    0    0  0.40082437294E+03 -0.15396681605E+04 -0.74557316659E+03  0.17636635796E+04  0.15294330000E+03 0.  0.
<mgrwt>
<rscale>  0 0.15983210E+04</rscale>
<asrwt>0</asrwt>
<pdfrwt beam="1">  1        2 0.46721604E+00 0.15983210E+04</pdfrwt>
<pdfrwt beam="2">  1       -2 0.13344329E+00 0.15983210E+04</pdfrwt>
<totfact> 0.63089456E-01</totfact>
</mgrwt>
</event>
<event>
 4    1  0.1033139E-008  0.7595182E+03  0.7818608E-02  0.9620535E-01
         -2   -1    0    0    0  501 -0.00000000000E+00  0.00000000000E+00  0.86078790818E+03  0.86078790819E+03  0.25500000000E-02 0.  1.
          2   -1    0    0  501    0  0.00000000000E+00 -0.00000000000E+00 -0.28340241376E+04  0.28340241376E+04  0.25500000000E-02 0. -1.
    8880022    1    1    2    0    0  0.12097132249E+03 -0.73405872170E+03 -0.26008848954E+04  0.27095147462E+04  0.15294330000E+03 0.  0.
    8880022    1    1    2    0    0 -0.12097132249E+03  0.73405872170E+03  0.62764866594E+03  0.98529729963E+03  0.15294330000E+03 0.  0.
<mgrwt>
<rscale>  0 0.75951822E+03</rscale>
<asrwt>0</asrwt>
<pdfrwt beam="1">  1        2 0.43600371E+00 0.75951822E+03</pdfrwt>
<pdfrwt beam="2">  1       -2 0.13242891E+00 0.75951822E+03</pdfrwt>
<totfact> 0.96885315E-01</totfact>
</mgrwt>
</event>
<event>
 4    1  0.1033139E-008  0.6189441E+03  0.7818608E-02  0.9866864E-01
          2   -1    0    0  501    0  0.00000000000E+00  0.00000000000E+00  0.93412281164E+03  0.93412281165E+03  0.25500000000E-02 0. -1.
         -2   -1    0    0    0  501 -0.00000000000E+00 -0.00000000000E+00 -0.11474456182E+04  0.11474456182E+04  0.25500000000E-02 0.  1.
    8880022    1    1    2    0    0 -0.51943962278E+03  0.29980423663E+03 -0.94097183507E+03  0.11262858205E+04  0.15294330000E+03 0.  0.
    8880022    1    1    2    0    0  0.51943962278E+03 -0.29980423663E+03  0.72764902852E+03  0.95528260936E+03  0.15294330000E+03 0.  0.
<mgrwt>
<rscale>  0 0.61894406E+03</rscale>
<asrwt>0</asrwt>
<pdfrwt beam="1">  1        2 0.14371120E+00 0.61894406E+03</pdfrwt>
<pdfrwt beam="2">  1       -2 0.17653010E+00 0.61894406E+03</pdfrwt>
<totfact> 0.55447321E+00</totfact>
</mgrwt>
</event>
<event>
 4    1  0.1033139E-008  0.9039652E+03  0.7818608E-02  0.9420638E-01
         -2   -1    0    0    0  501 -0.00000000000E+00  0.00000000000E+00  0.82102494718E+03  0.82102494718E+03  0.25500000000E-02 0.  1.
          2   -1    0    0  501    0  0.00000000000E+00 -0.00000000000E+00 -0.21563778197E+04  0.21563778197E+04  0.25500000000E-02 0. -1.
    8880022    1    1    2    0    0 -0.88201466251E+03  0.12574399445E+03 -0.17600691713E+04  0.19786350239E+04  0.15294330000E+03 0.  0.
    8880022    1    1    2    0    0  0.88201466251E+03 -0.12574399445E+03  0.42471629875E+03  0.99876774301E+03  0.15294330000E+03 0.  0.
<mgrwt>
<rscale>  0 0.90396519E+03</rscale>
<asrwt>0</asrwt>
<pdfrwt beam="1">  1        2 0.33175043E+00 0.90396519E+03</pdfrwt>
<pdfrwt beam="2">  1       -2 0.12631153E+00 0.90396519E+03</pdfrwt>
<totfact> 0.25892733E+00</totfact>
</mgrwt>
</event>
<event>
 4    1  0.1033139E-008  0.5680965E+03  0.7818608E-02  0.9973900E-01
         -2   -1    0    0    0  501 -0.00000000000E+00  0.00000000000E+00  0.16993109884E+04  0.16993109884E+04  0.25500000000E-02 0.  1.
          2   -1    0    0  501    0  0.00000000000E+00 -0.00000000000E+00 -0.11055617184E+04  0.11055617184E+04  0.25500000000E-02 0. -1.
    8880022    1    1    2    0    0  0.35653542107E+03  0.41499936810E+03  0.15731793743E+04  0.16726108271E+04  0.15294330000E+03 0.  0.
    8880022    1    1    2    0    0 -0.35653542107E+03 -0.41499936810E+03 -0.97943010438E+03  0.11322618798E+04  0.15294330000E+03 0.  0.
<mgrwt>
<rscale>  0 0.56809650E+03</rscale>
<asrwt>0</asrwt>
<pdfrwt beam="1">  1        2 0.17008642E+00 0.56809650E+03</pdfrwt>
<pdfrwt beam="2">  1       -2 0.26143246E+00 0.56809650E+03</pdfrwt>
<totfact> 0.12750994E+00</totfact>
</mgrwt>
</event>
<event>
 4    1  0.1033139E-008  0.6911527E+03  0.7818608E-02  0.9732483E-01
          2   -1    0    0  501    0  0.00000000000E+00  0.00000000000E+00  0.31612039989E+04  0.31612039989E+04  0.25500000000E-02 0. -1.
         -2   -1    0    0    0  501 -0.00000000000E+00 -0.00000000000E+00 -0.80145758436E+03  0.80145758436E+03  0.25500000000E-02 0.  1.
    8880022    1    1    2    0    0 -0.51370408970E+03 -0.43635821577E+03  0.29646718168E+04  0.30441700048E+04  0.15294330000E+03 0.  0.
    8880022    1    1    2    0    0  0.51370408970E+03  0.43635821577E+03 -0.60492540226E+03  0.91849157838E+03  0.15294330000E+03 0.  0.
<mgrwt>
<rscale>  0 0.69115269E+03</rscale>
<asrwt>0</asrwt>
<pdfrwt beam="1">  1        2 0.48633909E+00 0.69115269E+03</pdfrwt>
<pdfrwt beam="2">  1       -2 0.12330116E+00 0.69115269E+03</pdfrwt>
<totfact> 0.74366214E-01</totfact>
</mgrwt>
</event>
<event>
 4    1  0.1033139E-008  0.2697531E+03  0.7818608E-02  0.1101421E+00
          2   -1    0    0  501    0  0.00000000000E+00  0.00000000000E+00  0.36834863756E+04  0.36834863756E+04  0.25500000000E-02 0. -1.
         -2   -1    0    0    0  501 -0.00000000000E+00 -0.00000000000E+00 -0.47652271056E+03  0.47652271057E+03  0.25500000000E-02 0.  1.
    8880022    1    1    2    0    0  0.11301074437E+03 -0.19132085313E+03  0.36399154000E+04  0.36498973779E+04  0.15294330000E+03 0. -1.
    8880022    1    1    2    0    0 -0.11301074437E+03  0.19132085313E+03 -0.43295173490E+03  0.51011170831E+03  0.15294330000E+03 0.  0.
<mgrwt>
<rscale>  0 0.26975313E+03</rscale>
<asrwt>0</asrwt>
<pdfrwt beam="1">  1        2 0.56669023E+00 0.26975313E+03</pdfrwt>
<pdfrwt beam="2">  1       -2 0.73311184E-01 0.26975313E+03</pdfrwt>
<totfact> 0.13392876E+00</totfact>
</mgrwt>
</event>
<event>
 4    1  0.1033139E-008  0.8710868E+03  0.7818608E-02  0.9462464E-01
          2   -1    0    0  501    0  0.00000000000E+00  0.00000000000E+00  0.47566908257E+03  0.47566908258E+03  0.25500000000E-02 0. -1.
         -2   -1    0    0    0  501 -0.00000000000E+00 -0.00000000000E+00 -0.19154186352E+04  0.19154186352E+04  0.25500000000E-02 0.  1.
    8880022    1    1    2    0    0 -0.85249400311E+03  0.93029580888E+02 -0.12086959733E+04  0.14898785646E+04  0.15294330000E+03 0.  0.
    8880022    1    1    2    0    0  0.85249400311E+03 -0.93029580888E+02 -0.23105357927E+03  0.90120915317E+03  0.15294330000E+03 0.  0.
<mgrwt>
<rscale>  0 0.87108678E+03</rscale>
<asrwt>0</asrwt>
<pdfrwt beam="1">  1        2 0.73179860E-01 0.87108678E+03</pdfrwt>
<pdfrwt beam="2">  1       -2 0.29467979E+00 0.87108678E+03</pdfrwt>
<totfact> 0.22852215E+00</totfact>
</mgrwt>
</event>
<event>
 4    1  0.1033139E-008  0.1215371E+04  0.7818608E-02  0.9099508E-01
         -2   -1    0    0    0  501 -0.00000000000E+00  0.00000000000E+00  0.44218781623E+03  0.44218781623E+03  0.25500000000E-02 0.  1.
          2   -1    0    0  501    0  0.00000000000E+00 -0.00000000000E+00 -0.39108891462E+04  0.39108891462E+04  0.25500000000E-02 0. -1.
    8880022    1    1    2    0    0  0.88923187408E+03  0.81424950411E+03 -0.90313211363E+03  0.15141911532E+04  0.15294330000E+03 0.  0.
    8880022    1    1    2    0    0 -0.88923187408E+03 -0.81424950411E+03 -0.25655692163E+04  0.28388858092E+04  0.15294330000E+03 0.  0.
<mgrwt>
<rscale>  0 0.12153712E+04</rscale>
<asrwt>0</asrwt>
<pdfrwt beam="1">  1        2 0.60167523E+00 0.12153712E+04</pdfrwt>
<pdfrwt beam="2">  1       -2 0.68028898E-01 0.12153712E+04</pdfrwt>
<totfact> 0.80815319E-01</totfact>
</mgrwt>
</event>
<event>
 4    1  0.1033139E-008  0.6076307E+03  0.7818608E-02  0.9889700E-01
         -2   -1    0    0    0  501 -0.00000000000E+00  0.00000000000E+00  0.12008570762E+04  0.12008570762E+04  0.25500000000E-02 0.  1.
          2   -1    0    0  501    0  0.00000000000E+00 -0.00000000000E+00 -0.66131540323E+03  0.66131540324E+03  0.25500000000E-02 0. -1.
    8880022    1    1    2    0    0  0.24673348510E+02 -0.58754973553E+03 -0.41131007447E+03  0.73375138584E+03  0.15294330000E+03 0.  0.
    8880022    1    1    2    0    0 -0.24673348510E+02  0.58754973553E+03  0.95085174744E+03  0.11284210936E+04  0.15294330000E+03 0.  0.
<mgrwt>
<rscale>  0 0.60763074E+03</rscale>
<asrwt>0</asrwt>
<pdfrwt beam="1">  1        2 0.10174083E+00 0.60763074E+03</pdfrwt>
<pdfrwt beam="2">  1       -2 0.18474724E+00 0.60763074E+03</pdfrwt>
<totfact> 0.76804461E+00</totfact>
</mgrwt>
</event>
<event>
 4    1  0.1033139E-008  0.3491215E+03  0.7818608E-02  0.1062976E+00
         -2   -1    0    0    0  501 -0.00000000000E+00  0.00000000000E+00  0.73035721391E+03  0.73035721392E+03  0.25500000000E-02 0.  1.
          2   -1    0    0  501    0  0.00000000000E+00 -0.00000000000E+00 -0.17012465417E+04  0.17012465417E+04  0.25500000000E-02 0. -1.
    8880022    1    1    2    0    0 -0.97324925355E+02  0.29836555881E+03  0.66918578942E+03  0.75478170457E+03  0.15294330000E+03 0.  1.
    8880022    1    1    2    0    0  0.97324925355E+02 -0.29836555881E+03 -0.16400751172E+04  0.16768220511E+04  0.15294330000E+03 0.  0.
<mgrwt>
<rscale>  0 0.34912147E+03</rscale>
<asrwt>0</asrwt>
<pdfrwt beam="1">  1        2 0.26173024E+00 0.34912147E+03</pdfrwt>
<pdfrwt beam="2">  1       -2 0.11236265E+00 0.34912147E+03</pdfrwt>
<totfact> 0.68689312E+00</totfact>
</mgrwt>
</event>
<event>
 4    1  0.1033139E-008  0.3564822E+03  0.7818608E-02  0.1059986E+00
         -2   -1    0    0    0  501 -0.00000000000E+00  0.00000000000E+00  0.26372181439E+03  0.26372181440E+03  0.25500000000E-02 0.  1.
          2   -1    0    0  501    0  0.00000000000E+00 -0.00000000000E+00 -0.91004043426E+03  0.91004043426E+03  0.25500000000E-02 0. -1.
    8880022    1    1    2    0    0 -0.99283224522E+02  0.30631799120E+03 -0.72571719815E+03  0.80854497408E+03  0.15294330000E+03 0.  0.
    8880022    1    1    2    0    0  0.99283224522E+02 -0.30631799120E+03  0.79398578278E+02  0.36521727458E+03  0.15294330000E+03 0.  0.
<mgrwt>
<rscale>  0 0.35648215E+03</rscale>
<asrwt>0</asrwt>
<pdfrwt beam="1">  1        2 0.14000622E+00 0.35648215E+03</pdfrwt>
<pdfrwt beam="2">  1       -2 0.40572587E-01 0.35648215E+03</pdfrwt>
<totfact> 0.17333695E+02</totfact>
</mgrwt>
</event>
<event>
 4    1  0.1033139E-008  0.6971336E+03  0.7818608E-02  0.9722147E-01
         -2   -1    0    0    0  501 -0.00000000000E+00  0.00000000000E+00  0.13800757105E+04  0.13800757105E+04  0.25500000000E-02 0.  1.
          2   -1    0    0  501    0  0.00000000000E+00 -0.00000000000E+00 -0.82518463512E+03  0.82518463513E+03  0.25500000000E-02 0. -1.
    8880022    1    1    2    0    0  0.65060500341E+03  0.19828464441E+03 -0.55738864555E+03  0.89256788306E+03  0.15294330000E+03 0.  0.
    8880022    1    1    2    0    0 -0.65060500341E+03 -0.19828464441E+03  0.11122797209E+04  0.13126924625E+04  0.15294330000E+03 0.  0.
<mgrwt>
<rscale>  0 0.69713365E+03</rscale>
<asrwt>0</asrwt>
<pdfrwt beam="1">  1        2 0.12695148E+00 0.69713365E+03</pdfrwt>
<pdfrwt beam="2">  1       -2 0.21231934E+00 0.69713365E+03</pdfrwt>
<totfact> 0.37737209E+00</totfact>
</mgrwt>
</event>
<event>
 4    1  0.1033139E-008  0.6321976E+03  0.7818608E-02  0.9840770E-01
          2   -1    0    0  501    0  0.00000000000E+00  0.00000000000E+00  0.38210907212E+03  0.38210907213E+03  0.25500000000E-02 0. -1.
         -2   -1    0    0    0  501 -0.00000000000E+00 -0.00000000000E+00 -0.14383234675E+04  0.14383234675E+04  0.25500000000E-02 0.  1.
    8880022    1    1    2    0    0 -0.48086617170E+03  0.38085407911E+03 -0.10035040659E+04  0.11860413854E+04  0.15294330000E+03 0.  0.
    8880022    1    1    2    0    0  0.48086617170E+03 -0.38085407911E+03 -0.52710329452E+02  0.63439115418E+03  0.15294330000E+03 0.  0.
<mgrwt>
<rscale>  0 0.63219756E+03</rscale>
<asrwt>0</asrwt>
<pdfrwt beam="1">  1        2 0.58786012E-01 0.63219756E+03</pdfrwt>
<pdfrwt beam="2">  1       -2 0.22128053E+00 0.63219756E+03</pdfrwt>
<totfact> 0.84194269E+00</totfact>
</mgrwt>
</event>
<event>
 4    1  0.1033139E-008  0.9326094E+03  0.7818608E-02  0.9385712E-01
          2   -1    0    0  501    0  0.00000000000E+00  0.00000000000E+00  0.20955779197E+04  0.20955779197E+04  0.25500000000E-02 0. -1.
         -2   -1    0    0    0  501 -0.00000000000E+00 -0.00000000000E+00 -0.68631792160E+03  0.68631792161E+03  0.25500000000E-02 0.  1.
    8880022    1    1    2    0    0 -0.66133313773E+03 -0.63953669549E+03  0.15791121639E+04  0.18339453599E+04  0.15294330000E+03 0.  0.
    8880022    1    1    2    0    0  0.66133313773E+03  0.63953669549E+03 -0.16985216581E+03  0.94795048140E+03  0.15294330000E+03 0.  0.
<mgrwt>
<rscale>  0 0.93260943E+03</rscale>
<asrwt>0</asrwt>
<pdfrwt beam="1">  1        2 0.32239660E+00 0.93260943E+03</pdfrwt>
<pdfrwt beam="2">  1       -2 0.10558737E+00 0.93260943E+03</pdfrwt>
<totfact> 0.43300359E+00</totfact>
</mgrwt>
</event>
<event>
 4    1  0.1033139E-008  0.6843665E+03  0.7818608E-02  0.9744348E-01
         -2   -1    0    0    0  501 -0.00000000000E+00  0.00000000000E+00  0.40492643144E+03  0.40492643145E+03  0.25500000000E-02 0.  1.
          2   -1    0    0  501    0  0.00000000000E+00 -0.00000000000E+00 -0.27356963022E+04  0.27356963022E+04  0.25500000000E-02 0. -1.
    8880022    1    1    2    0    0 -0.35924890643E+03 -0.56205519345E+03  0.27639937951E+02  0.68492440199E+03  0.15294330000E+03 0.  0.
    8880022    1    1    2    0    0  0.35924890643E+03  0.56205519345E+03 -0.23584098087E+04  0.24556983316E+04  0.15294330000E+03 0.  0.
<mgrwt>
<rscale>  0 0.68436647E+03</rscale>
<asrwt>0</asrwt>
<pdfrwt beam="1">  1        2 0.42087634E+00 0.68436647E+03</pdfrwt>
<pdfrwt beam="2">  1       -2 0.62296376E-01 0.68436647E+03</pdfrwt>
<totfact> 0.64688433E+00</totfact>
</mgrwt>
</event>
<event>
 4    1  0.1033139E-008  0.1637241E+04  0.7818608E-02  0.8797990E-01
          2   -1    0    0  501    0  0.00000000000E+00  0.00000000000E+00  0.15230937899E+04  0.15230937899E+04  0.25500000000E-02 0. -1.
         -2   -1    0    0    0  501 -0.00000000000E+00 -0.00000000000E+00 -0.25093146517E+04  0.25093146517E+04  0.25500000000E-02 0.  1.
    8880022    1    1    2    0    0 -0.13483657451E+04  0.91601166969E+03  0.60869626048E+03  0.17467313337E+04  0.15294330000E+03 0.  0.
    8880022    1    1    2    0    0  0.13483657451E+04 -0.91601166969E+03 -0.15949171224E+04  0.22856771079E+04  0.15294330000E+03 0.  0.
<mgrwt>
<rscale>  0 0.16372413E+04</rscale>
<asrwt>0</asrwt>
<pdfrwt beam="1">  1        2 0.23432212E+00 0.16372413E+04</pdfrwt>
<pdfrwt beam="2">  1       -2 0.38604841E+00 0.16372413E+04</pdfrwt>
<totfact> 0.10453759E-01</totfact>
</mgrwt>
</event>
<event>
 4    1  0.1033139E-008  0.9244948E+03  0.7818608E-02  0.9395469E-01
         -2   -1    0    0    0  501 -0.00000000000E+00  0.00000000000E+00  0.36870335408E+03  0.36870335409E+03  0.25500000000E-02 0.  1.
          2   -1    0    0  501    0  0.00000000000E+00 -0.00000000000E+00 -0.52830063525E+04  0.52830063525E+04  0.25500000000E-02 0. -1.
    8880022    1    1    2    0    0  0.49048772469E+03 -0.76858361442E+03 -0.45741224391E+04  0.46666140532E+04  0.15294330000E+03 0.  0.
    8880022    1    1    2    0    0 -0.49048772469E+03  0.76858361442E+03 -0.34018055933E+03  0.98509565342E+03  0.15294330000E+03 0.  0.
<mgrwt>
<rscale>  0 0.92449480E+03</rscale>
<asrwt>0</asrwt>
<pdfrwt beam="1">  1        2 0.81277016E+00 0.92449480E+03</pdfrwt>
<pdfrwt beam="2">  1       -2 0.56723597E-01 0.92449480E+03</pdfrwt>
<totfact> 0.46439763E-02</totfact>
</mgrwt>
</event>
<event>
 4    1  0.1033139E-008  0.7470857E+03  0.7818608E-02  0.9639934E-01
          2   -1    0    0  501    0  0.00000000000E+00  0.00000000000E+00  0.76606243225E+03  0.76606243225E+03  0.25500000000E-02 0. -1.
         -2   -1    0    0    0  501 -0.00000000000E+00 -0.00000000000E+00 -0.10607324951E+04  0.10607324951E+04  0.25500000000E-02 0.  1.
    8880022    1    1    2    0    0 -0.65833465951E+03  0.31834075279E+03 -0.65845902513E+03  0.99584401369E+03  0.15294330000E+03 0.  0.
    8880022    1    1    2    0    0  0.65833465951E+03 -0.31834075279E+03  0.36378896230E+03  0.83095091365E+03  0.15294330000E+03 0.  0.
<mgrwt>
<rscale>  0 0.74708568E+03</rscale>
<asrwt>0</asrwt>
<pdfrwt beam="1">  1        2 0.11785576E+00 0.74708568E+03</pdfrwt>
<pdfrwt beam="2">  1       -2 0.16318961E+00 0.74708568E+03</pdfrwt>
<totfact> 0.88558472E+00</totfact>
</mgrwt>
</event>
<event>
 4    1  0.1033139E-008  0.1000705E+04  0.7818608E-02  0.9307772E-01
          2   -1    0    0  501    0  0.00000000000E+00  0.00000000000E+00  0.26728571775E+04  0.26728571775E+04  0.25500000000E-02 0. -1.
         -2   -1    0    0    0  501 -0.00000000000E+00 -0.00000000000E+00 -0.46314261692E+03  0.46314261693E+03  0.25500000000E-02 0.  1.
    8880022    1    1    2    0    0 -0.90539043982E+03  0.39785317173E+03  0.41949611324E+03  0.10850749452E+04  0.15294330000E+03 0.  0.
    8880022    1    1    2    0    0  0.90539043982E+03 -0.39785317173E+03  0.17902184473E+04  0.20509248491E+04  0.15294330000E+03 0.  0.
<mgrwt>
<rscale>  0 0.10007051E+04</rscale>
<asrwt>0</asrwt>
<pdfrwt beam="1">  1        2 0.41120879E+00 0.10007051E+04</pdfrwt>
<pdfrwt beam="2">  1       -2 0.71252711E-01 0.10007051E+04</pdfrwt>
<totfact> 0.49989106E+00</totfact>
</mgrwt>
</event>
<event>
 4    1  0.1033139E-008  0.8395379E+03  0.7818608E-02  0.9504487E-01
         -2   -1    0    0    0  501 -0.00000000000E+00  0.00000000000E+00  0.73483779550E+03  0.73483779551E+03  0.25500000000E-02 0.  1.
          2   -1    0    0  501    0  0.00000000000E+00 -0.00000000000E+00 -0.21302335754E+04  0.21302335754E+04  0.25500000000E-02 0. -1.
    8880022    1    1    2    0    0 -0.13968592271E+03  0.81358467513E+03  0.36444936581E+03  0.91523066703E+03  0.15294330000E+03 0.  0.
    8880022    1    1    2    0    0  0.13968592271E+03 -0.81358467513E+03 -0.17598451457E+04  0.19498407038E+04  0.15294330000E+03 0.  0.
<mgrwt>
<rscale>  0 0.83953787E+03</rscale>
<asrwt>0</asrwt>
<pdfrwt beam="1">  1        2 0.32772824E+00 0.83953787E+03</pdfrwt>
<pdfrwt beam="2">  1       -2 0.11305197E+00 0.83953787E+03</pdfrwt>
<totfact> 0.35589974E+00</totfact>
</mgrwt>
</event>
<event>
 4    1  0.1033139E-008  0.7901930E+03  0.7818608E-02  0.9574322E-01
          2   -1    0    0  501    0  0.00000000000E+00  0.00000000000E+00  0.36082145260E+04  0.36082145260E+04  0.25500000000E-02 0. -1.
         -2   -1    0    0    0  501 -0.00000000000E+00 -0.00000000000E+00 -0.85554309197E+03  0.85554309197E+03  0.25500000000E-02 0.  1.
    8880022    1    1    2    0    0 -0.69346227943E+03  0.34658829615E+03  0.33697542184E+04  0.34611628863E+04  0.15294330000E+03 0.  0.
    8880022    1    1    2    0    0  0.69346227943E+03 -0.34658829615E+03 -0.61708278443E+03  0.10025947316E+04  0.15294330000E+03 0.  0.
<mgrwt>
<rscale>  0 0.79019304E+03</rscale>
<asrwt>0</asrwt>
<pdfrwt beam="1">  1        2 0.55510991E+00 0.79019304E+03</pdfrwt>
<pdfrwt beam="2">  1       -2 0.13162202E+00 0.79019304E+03</pdfrwt>
<totfact> 0.31060271E-01</totfact>
</mgrwt>
</event>
<event>
 4    1  0.1033139E-008  0.1014081E+04  0.7818608E-02  0.9293234E-01
          2   -1    0    0  501    0  0.00000000000E+00  0.00000000000E+00  0.17683595588E+04  0.17683595588E+04  0.25500000000E-02 0. -1.
         -2   -1    0    0    0  501 -0.00000000000E+00 -0.00000000000E+00 -0.75786211675E+03  0.75786211675E+03  0.25500000000E-02 0.  1.
    8880022    1    1    2    0    0  0.93165411943E+02 -0.99814272891E+03  0.11145158406E+04  0.15068198012E+04  0.15294330000E+03 0.  0.
    8880022    1    1    2    0    0 -0.93165411943E+02  0.99814272891E+03 -0.10401839853E+03  0.10194018744E+04  0.15294330000E+03 0.  0.
<mgrwt>
<rscale>  0 0.10140810E+04</rscale>
<asrwt>0</asrwt>
<pdfrwt beam="1">  1        2 0.27205532E+00 0.10140810E+04</pdfrwt>
<pdfrwt beam="2">  1       -2 0.11659417E+00 0.10140810E+04</pdfrwt>
<totfact> 0.50964246E+00</totfact>
</mgrwt>
</event>
<event>
 4    1  0.1033139E-008  0.9172178E+03  0.7818608E-02  0.9404311E-01
          2   -1    0    0  501    0  0.00000000000E+00  0.00000000000E+00  0.19268415747E+04  0.19268415748E+04  0.25500000000E-02 0. -1.
         -2   -1    0    0    0  501 -0.00000000000E+00 -0.00000000000E+00 -0.52695594903E+03  0.52695594903E+03  0.25500000000E-02 0.  1.
    8880022    1    1    2    0    0 -0.72899059448E+03 -0.53522846168E+03  0.19194334426E+03  0.93708627855E+03  0.15294330000E+03 0.  0.
    8880022    1    1    2    0    0  0.72899059448E+03  0.53522846168E+03  0.12079422815E+04  0.15167112452E+04  0.15294330000E+03 0.  0.
<mgrwt>
<rscale>  0 0.91721777E+03</rscale>
<asrwt>0</asrwt>
<pdfrwt beam="1">  1        2 0.29643717E+00 0.91721777E+03</pdfrwt>
<pdfrwt beam="2">  1       -2 0.81070145E-01 0.91721777E+03</pdfrwt>
<totfact> 0.99486571E+00</totfact>
</mgrwt>
</event>
<event>
 4    1  0.1033139E-008  0.8572647E+03  0.7818608E-02  0.9480638E-01
          2   -1    0    0  501    0  0.00000000000E+00  0.00000000000E+00  0.21421131626E+04  0.21421131626E+04  0.25500000000E-02 0. -1.
         -2   -1    0    0    0  501 -0.00000000000E+00 -0.00000000000E+00 -0.54422516376E+03  0.54422516376E+03  0.25500000000E-02 0.  1.
    8880022    1    1    2    0    0 -0.57807873770E+03  0.61427694299E+03  0.16155318689E+04  0.18288920313E+04  0.15294330000E+03 0.  0.
    8880022    1    1    2    0    0  0.57807873770E+03 -0.61427694299E+03 -0.17643870116E+02  0.85744629502E+03  0.15294330000E+03 0.  0.
<mgrwt>
<rscale>  0 0.85726474E+03</rscale>
<asrwt>0</asrwt>
<pdfrwt beam="1">  1        2 0.32955588E+00 0.85726474E+03</pdfrwt>
<pdfrwt beam="2">  1       -2 0.83726947E-01 0.85726474E+03</pdfrwt>
<totfact> 0.70968085E+00</totfact>
</mgrwt>
</event>
<event>
 4    1  0.1033139E-008  0.8194252E+03  0.7818608E-02  0.9532318E-01
         -2   -1    0    0    0  501 -0.00000000000E+00  0.00000000000E+00  0.57841050221E+03  0.57841050222E+03  0.25500000000E-02 0.  1.
          2   -1    0    0  501    0  0.00000000000E+00 -0.00000000000E+00 -0.17412292964E+04  0.17412292964E+04  0.25500000000E-02 0. -1.
    8880022    1    1    2    0    0 -0.78790195166E+03  0.16515591086E+03  0.88185601758E+02  0.82415672884E+03  0.15294330000E+03 0.  0.
    8880022    1    1    2    0    0  0.78790195166E+03 -0.16515591086E+03 -0.12510043960E+04  0.14954830698E+04  0.15294330000E+03 0.  0.
<mgrwt>
<rscale>  0 0.81942517E+03</rscale>
<asrwt>0</asrwt>
<pdfrwt beam="1">  1        2 0.26788143E+00 0.81942517E+03</pdfrwt>
<pdfrwt beam="2">  1       -2 0.88986232E-01 0.81942517E+03</pdfrwt>
<totfact> 0.10290549E+01</totfact>
</mgrwt>
</event>
<event>
 4    1  0.1033139E-008  0.1116739E+04  0.7818608E-02  0.9189029E-01
         -2   -1    0    0    0  501 -0.00000000000E+00  0.00000000000E+00  0.12396235113E+04  0.12396235113E+04  0.25500000000E-02 0.  1.
          2   -1    0    0  501    0  0.00000000000E+00 -0.00000000000E+00 -0.22923229162E+04  0.22923229162E+04  0.25500000000E-02 0. -1.
    8880022    1    1    2    0    0 -0.93315456819E+03 -0.59408534939E+03 -0.18492132669E+04  0.21602537374E+04  0.15294330000E+03 0.  0.
    8880022    1    1    2    0    0  0.93315456819E+03  0.59408534939E+03  0.79651386202E+03  0.13716926900E+04  0.15294330000E+03 0.  0.
<mgrwt>
<rscale>  0 0.11167392E+04</rscale>
<asrwt>0</asrwt>
<pdfrwt beam="1">  1        2 0.35266506E+00 0.11167392E+04</pdfrwt>
<pdfrwt beam="2">  1       -2 0.19071131E+00 0.11167392E+04</pdfrwt>
<totfact> 0.69145898E-01</totfact>
</mgrwt>
</event>
<event>
 4    1  0.1033139E-008  0.6767101E+03  0.7818608E-02  0.9757911E-01
          2   -1    0    0  501    0  0.00000000000E+00  0.00000000000E+00  0.99178030650E+03  0.99178030650E+03  0.25500000000E-02 0. -1.
         -2   -1    0    0    0  501 -0.00000000000E+00 -0.00000000000E+00 -0.22625600914E+04  0.22625600914E+04  0.25500000000E-02 0.  1.
    8880022    1    1    2    0    0 -0.65243857892E+03  0.94174279253E+02  0.81628400527E+03  0.10603094475E+04  0.15294330000E+03 0.  0.
    8880022    1    1    2    0    0  0.65243857892E+03 -0.94174279253E+02 -0.20870637902E+04  0.21940309504E+04  0.15294330000E+03 0.  0.
<mgrwt>
<rscale>  0 0.67671009E+03</rscale>
<asrwt>0</asrwt>
<pdfrwt beam="1">  1        2 0.15258159E+00 0.67671009E+03</pdfrwt>
<pdfrwt beam="2">  1       -2 0.34808617E+00 0.67671009E+03</pdfrwt>
<totfact> 0.43894880E-01</totfact>
</mgrwt>
</event>
<event>
 4    1  0.1033139E-008  0.1596755E+03  0.7818608E-02  0.1189064E+00
         -2   -1    0    0    0  501 -0.00000000000E+00  0.00000000000E+00  0.22466763297E+03  0.22466763299E+03  0.25500000000E-02 0.  1.
          2   -1    0    0  501    0  0.00000000000E+00 -0.00000000000E+00 -0.13609723025E+04  0.13609723025E+04  0.25500000000E-02 0. -1.
    8880022    1    1    2    0    0  0.44895969260E+02  0.94323411875E+01 -0.13271983569E+04  0.13367691456E+04  0.15294330000E+03 0. -1.
    8880022    1    1    2    0    0 -0.44895969260E+02 -0.94323411875E+01  0.19089368742E+03  0.24887078982E+03  0.15294330000E+03 0.  0.
<mgrwt>
<rscale>  0 0.15967552E+03</rscale>
<asrwt>0</asrwt>
<pdfrwt beam="1">  1        2 0.20938035E+00 0.15967552E+03</pdfrwt>
<pdfrwt beam="2">  1       -2 0.34564252E-01 0.15967552E+03</pdfrwt>
<totfact> 0.13327704E+02</totfact>
</mgrwt>
</event>
<event>
 4    1  0.1033139E-008  0.8471720E+03  0.7818608E-02  0.9494140E-01
          2   -1    0    0  501    0  0.00000000000E+00  0.00000000000E+00  0.26204794133E+04  0.26204794133E+04  0.25500000000E-02 0. -1.
         -2   -1    0    0    0  501 -0.00000000000E+00 -0.00000000000E+00 -0.11121383138E+04  0.11121383138E+04  0.25500000000E-02 0.  1.
    8880022    1    1    2    0    0  0.82701983946E+03  0.10171988992E+03  0.23744603787E+04  0.25210637623E+04  0.15294330000E+03 0.  0.
    8880022    1    1    2    0    0 -0.82701983946E+03 -0.10171988992E+03 -0.86611927916E+03  0.12115539648E+04  0.15294330000E+03 0.  0.
<mgrwt>
<rscale>  0 0.84717200E+03</rscale>
<asrwt>0</asrwt>
<pdfrwt beam="1">  1        2 0.40315067E+00 0.84717200E+03</pdfrwt>
<pdfrwt beam="2">  1       -2 0.17109820E+00 0.84717200E+03</pdfrwt>
<totfact> 0.64228690E-01</totfact>
</mgrwt>
</event>
<event>
 4    1  0.1033139E-008  0.4281973E+03  0.7818608E-02  0.1034431E+00
         -2   -1    0    0    0  501 -0.00000000000E+00  0.00000000000E+00  0.40872003440E+03  0.40872003440E+03  0.25500000000E-02 0.  1.
          2   -1    0    0  501    0  0.00000000000E+00 -0.00000000000E+00 -0.20249824227E+04  0.20249824227E+04  0.25500000000E-02 0. -1.
    8880022    1    1    2    0    0 -0.25670179019E+03  0.30670087682E+03  0.26550534390E+03  0.50383129873E+03  0.15294330000E+03 0.  0.
    8880022    1    1    2    0    0  0.25670179019E+03 -0.30670087682E+03 -0.18817677322E+04  0.19298711583E+04  0.15294330000E+03 0. -1.
<mgrwt>
<rscale>  0 0.42819726E+03</rscale>
<asrwt>0</asrwt>
<pdfrwt beam="1">  1        2 0.31153575E+00 0.42819726E+03</pdfrwt>
<pdfrwt beam="2">  1       -2 0.62880006E-01 0.42819726E+03</pdfrwt>
<totfact> 0.16692833E+01</totfact>
</mgrwt>
</event>
<event>
 4    1  0.1033139E-008  0.6688270E+03  0.7818608E-02  0.9772079E-01
          2   -1    0    0  501    0  0.00000000000E+00  0.00000000000E+00  0.49284871594E+03  0.49284871595E+03  0.25500000000E-02 0. -1.
         -2   -1    0    0    0  501 -0.00000000000E+00 -0.00000000000E+00 -0.10213403131E+04  0.10213403131E+04  0.25500000000E-02 0.  1.
    8880022    1    1    2    0    0 -0.60736458883E+03  0.23461925762E+03 -0.11639483475E+02  0.66892829990E+03  0.15294330000E+03 0.  0.
    8880022    1    1    2    0    0  0.60736458883E+03 -0.23461925762E+03 -0.51685211366E+03  0.84526072914E+03  0.15294330000E+03 0.  0.
<mgrwt>
<rscale>  0 0.66882703E+03</rscale>
<asrwt>0</asrwt>
<pdfrwt beam="1">  1        2 0.75822879E-01 0.66882703E+03</pdfrwt>
<pdfrwt beam="2">  1       -2 0.15712928E+00 0.66882703E+03</pdfrwt>
<totfact> 0.16935411E+01</totfact>
</mgrwt>
</event>
<event>
 4    1  0.1033139E-008  0.6066424E+03  0.7818608E-02  0.9891720E-01
         -2   -1    0    0    0  501 -0.00000000000E+00  0.00000000000E+00  0.16494283349E+03  0.16494283351E+03  0.25500000000E-02 0.  1.
          2   -1    0    0  501    0  0.00000000000E+00 -0.00000000000E+00 -0.28419761190E+04  0.28419761190E+04  0.25500000000E-02 0. -1.
    8880022    1    1    2    0    0  0.31566497532E+03 -0.49495346215E+03 -0.20355192030E+04  0.21239946764E+04  0.15294330000E+03 0.  0.
    8880022    1    1    2    0    0 -0.31566497532E+03  0.49495346215E+03 -0.64151408244E+03  0.88292427610E+03  0.15294330000E+03 0.  0.
<mgrwt>
<rscale>  0 0.60664237E+03</rscale>
<asrwt>0</asrwt>
<pdfrwt beam="1">  1        2 0.43722706E+00 0.60664237E+03</pdfrwt>
<pdfrwt beam="2">  1       -2 0.25375823E-01 0.60664237E+03</pdfrwt>
<totfact> 0.32789822E+01</totfact>
</mgrwt>
</event>
<event>
 4    1  0.1033139E-008  0.6457529E+03  0.7818608E-02  0.9814781E-01
         -2   -1    0    0    0  501 -0.00000000000E+00  0.00000000000E+00  0.11599627079E+04  0.11599627079E+04  0.25500000000E-02 0.  1.
          2   -1    0    0  501    0  0.00000000000E+00 -0.00000000000E+00 -0.24134155070E+04  0.24134155070E+04  0.25500000000E-02 0. -1.
    8880022    1    1    2    0    0 -0.21078114477E+03  0.59091158369E+03 -0.22749841093E+04  0.23648571926E+04  0.15294330000E+03 0.  0.
    8880022    1    1    2    0    0  0.21078114477E+03 -0.59091158369E+03  0.10215313102E+04  0.12085210223E+04  0.15294330000E+03 0.  0.
<mgrwt>
<rscale>  0 0.64575293E+03</rscale>
<asrwt>0</asrwt>
<pdfrwt beam="1">  1        2 0.37129469E+00 0.64575293E+03</pdfrwt>
<pdfrwt beam="2">  1       -2 0.17845580E+00 0.64575293E+03</pdfrwt>
<totfact> 0.78317522E-01</totfact>
</mgrwt>
</event>
<event>
 4    1  0.1033139E-008  0.1805105E+04  0.7818608E-02  0.8703590E-01
         -2   -1    0    0    0  501 -0.00000000000E+00  0.00000000000E+00  0.17197142138E+04  0.17197142138E+04  0.25500000000E-02 0.  1.
          2   -1    0    0  501    0  0.00000000000E+00 -0.00000000000E+00 -0.41795565884E+04  0.41795565884E+04  0.25500000000E-02 0. -1.
    8880022    1    1    2    0    0 -0.74644038493E+03 -0.16364101686E+04 -0.34107890620E+04  0.38590005399E+04  0.15294330000E+03 0.  0.
    8880022    1    1    2    0    0  0.74644038493E+03  0.16364101686E+04  0.95094668737E+03  0.20402702623E+04  0.15294330000E+03 0.  0.
<mgrwt>
<rscale>  0 0.18051047E+04</rscale>
<asrwt>0</asrwt>
<pdfrwt beam="1">  1        2 0.64300871E+00 0.18051047E+04</pdfrwt>
<pdfrwt beam="2">  1       -2 0.26457142E+00 0.18051047E+04</pdfrwt>
<totfact> 0.11574341E-02</totfact>
</mgrwt>
</event>
<event>
 4    1  0.1033139E-008  0.1376735E+04  0.7818608E-02  0.8970834E-01
          2   -1    0    0  501    0  0.00000000000E+00  0.00000000000E+00  0.10574108225E+04  0.10574108226E+04  0.25500000000E-02 0. -1.
         -2   -1    0    0    0  501 -0.00000000000E+00 -0.00000000000E+00 -0.20413386989E+04  0.20413386989E+04  0.25500000000E-02 0.  1.
    8880022    1    1    2    0    0 -0.90968126060E+03  0.10220011474E+04  0.48998241196E+02  0.13776061926E+04  0.15294330000E+03 0.  0.
    8880022    1    1    2    0    0  0.90968126060E+03 -0.10220011474E+04 -0.10329261175E+04  0.17211433288E+04  0.15294330000E+03 0.  0.
<mgrwt>
<rscale>  0 0.13767345E+04</rscale>
<asrwt>0</asrwt>
<pdfrwt beam="1">  1        2 0.16267859E+00 0.13767345E+04</pdfrwt>
<pdfrwt beam="2">  1       -2 0.31405211E+00 0.13767345E+04</pdfrwt>
<totfact> 0.57883412E-01</totfact>
</mgrwt>
</event>
<event>
 4    1  0.1033139E-008  0.4949285E+03  0.7818608E-02  0.1015111E+00
         -2   -1    0    0    0  501 -0.00000000000E+00  0.00000000000E+00  0.53431083243E+03  0.53431083244E+03  0.25500000000E-02 0.  1.
          2   -1    0    0  501    0  0.00000000000E+00 -0.00000000000E+00 -0.14649522174E+04  0.14649522174E+04  0.25500000000E-02 0. -1.
    8880022    1    1    2    0    0 -0.47026686571E+03 -0.20288443719E+02 -0.12939033235E+04  0.13853302889E+04  0.15294330000E+03 0.  0.
    8880022    1    1    2    0    0  0.47026686571E+03  0.20288443719E+02  0.36326193850E+03  0.61393276091E+03  0.15294330000E+03 0.  1.
<mgrwt>
<rscale>  0 0.49492848E+03</rscale>
<asrwt>0</asrwt>
<pdfrwt beam="1">  1        2 0.22537726E+00 0.49492848E+03</pdfrwt>
<pdfrwt beam="2">  1       -2 0.82201667E-01 0.49492848E+03</pdfrwt>
<totfact> 0.18378989E+01</totfact>
</mgrwt>
</event>
<event>
 4    1  0.1033139E-008  0.2231891E+04  0.7818608E-02  0.8505271E-01
         -2   -1    0    0    0  501 -0.00000000000E+00  0.00000000000E+00  0.22844612942E+04  0.22844612942E+04  0.25500000000E-02 0.  1.
          2   -1    0    0  501    0  0.00000000000E+00 -0.00000000000E+00 -0.29775112485E+04  0.29775112485E+04  0.25500000000E-02 0. -1.
    8880022    1    1    2    0    0  0.21350837853E+04  0.63195061224E+03  0.10146563232E+04  0.24517062332E+04  0.15294330000E+03 0.  0.
    8880022    1    1    2    0    0 -0.21350837853E+04 -0.63195061224E+03 -0.17077062775E+04  0.28102663095E+04  0.15294330000E+03 0.  0.
<mgrwt>
<rscale>  0 0.22318907E+04</rscale>
<asrwt>0</asrwt>
<pdfrwt beam="1">  1        2 0.45807866E+00 0.22318907E+04</pdfrwt>
<pdfrwt beam="2">  1       -2 0.35145558E+00 0.22318907E+04</pdfrwt>
<totfact> 0.23573681E-02</totfact>
</mgrwt>
</event>
<event>
 4    1  0.1033139E-008  0.8183656E+03  0.7818608E-02  0.9533808E-01
         -2   -1    0    0    0  501 -0.00000000000E+00  0.00000000000E+00  0.15204925955E+04  0.15204925955E+04  0.25500000000E-02 0.  1.
          2   -1    0    0  501    0  0.00000000000E+00 -0.00000000000E+00 -0.72272397348E+03  0.72272397348E+03  0.25500000000E-02 0. -1.
    8880022    1    1    2    0    0  0.52739032654E+03 -0.60678664539E+03  0.10998223517E+04  0.13708871025E+04  0.15294330000E+03 0.  0.
    8880022    1    1    2    0    0 -0.52739032654E+03  0.60678664539E+03 -0.30205372962E+03  0.87232946651E+03  0.15294330000E+03 0.  0.
<mgrwt>
<rscale>  0 0.81836559E+03</rscale>
<asrwt>0</asrwt>
<pdfrwt beam="1">  1        2 0.11118831E+00 0.81836559E+03</pdfrwt>
<pdfrwt beam="2">  1       -2 0.23392193E+00 0.81836559E+03</pdfrwt>
<totfact> 0.32353976E+00</totfact>
</mgrwt>
</event>
<event>
 4    1  0.1070375E-008  0.1831041E+04  0.7818608E-02  0.8689964E-01
         -2   -1    0    0    0  501 -0.00000000000E+00  0.00000000000E+00  0.31814920464E+04  0.31814920464E+04  0.25500000000E-02 0.  1.
          2   -1    0    0  501    0  0.00000000000E+00 -0.00000000000E+00 -0.18419733932E+04  0.18419733932E+04  0.25500000000E-02 0. -1.
    8880022    1    1    2    0    0 -0.53944271924E+03 -0.17430784395E+04  0.23127600800E+04  0.29498426626E+04  0.15294330000E+03 0.  0.
    8880022    1    1    2    0    0  0.53944271924E+03  0.17430784395E+04 -0.97324142669E+03  0.20736227770E+04  0.15294330000E+03 0.  0.
<mgrwt>
<rscale>  0 0.18310414E+04</rscale>
<asrwt>0</asrwt>
<pdfrwt beam="1">  1        2 0.28338052E+00 0.18310414E+04</pdfrwt>
<pdfrwt beam="2">  1       -2 0.48946031E+00 0.18310414E+04</pdfrwt>
<totfact> 0.14072333E-02</totfact>
</mgrwt>
</event>
<event>
 4    1  0.1033139E-008  0.1573250E+04  0.7818608E-02  0.8837152E-01
         -2   -1    0    0    0  501 -0.00000000000E+00  0.00000000000E+00  0.10156872871E+04  0.10156872871E+04  0.25500000000E-02 0.  1.
          2   -1    0    0  501    0  0.00000000000E+00 -0.00000000000E+00 -0.36798978432E+04  0.36798978432E+04  0.25500000000E-02 0. -1.
    8880022    1    1    2    0    0  0.76467954020E+03 -0.13663783611E+04  0.32412208503E+02  0.15735840712E+04  0.15294330000E+03 0.  0.
    8880022    1    1    2    0    0 -0.76467954020E+03  0.13663783611E+04 -0.26966227646E+04  0.31220010590E+04  0.15294330000E+03 0.  0.
<mgrwt>
<rscale>  0 0.15732502E+04</rscale>
<asrwt>0</asrwt>
<pdfrwt beam="1">  1        2 0.56613812E+00 0.15732502E+04</pdfrwt>
<pdfrwt beam="2">  1       -2 0.15625958E+00 0.15732502E+04</pdfrwt>
<totfact> 0.15343277E-01</totfact>
</mgrwt>
</event>
<event>
 4    1  0.1033139E-008  0.3312249E+03  0.7818608E-02  0.1070596E+00
          2   -1    0    0  501    0  0.00000000000E+00  0.00000000000E+00  0.54299931707E+03  0.54299931707E+03  0.25500000000E-02 0. -1.
         -2   -1    0    0    0  501 -0.00000000000E+00 -0.00000000000E+00 -0.28974015972E+03  0.28974015973E+03  0.25500000000E-02 0.  1.
    8880022    1    1    2    0    0  0.25267493890E+03  0.14991215168E+03 -0.10243835112E+03  0.34670383148E+03  0.15294330000E+03 0.  0.
    8880022    1    1    2    0    0 -0.25267493890E+03 -0.14991215168E+03  0.35569750847E+03  0.48603564532E+03  0.15294330000E+03 0.  0.
<mgrwt>
<rscale>  0 0.33122489E+03</rscale>
<asrwt>0</asrwt>
<pdfrwt beam="1">  1        2 0.83538356E-01 0.33122489E+03</pdfrwt>
<pdfrwt beam="2">  1       -2 0.44575409E-01 0.33122489E+03</pdfrwt>
<totfact> 0.27447667E+02</totfact>
</mgrwt>
</event>
<event>
 4    1  0.1033139E-008  0.4140516E+03  0.7818608E-02  0.1039020E+00
         -2   -1    0    0    0  501 -0.00000000000E+00  0.00000000000E+00  0.31267433575E+03  0.31267433576E+03  0.25500000000E-02 0.  1.
          2   -1    0    0  501    0  0.00000000000E+00 -0.00000000000E+00 -0.93829489760E+03  0.93829489760E+03  0.25500000000E-02 0. -1.
    8880022    1    1    2    0    0 -0.35457427326E+03 -0.14941285182E+03  0.90442557297E+02  0.42381437533E+03  0.15294330000E+03 0.  0.
    8880022    1    1    2    0    0  0.35457427326E+03  0.14941285182E+03 -0.71606311915E+03  0.82715485803E+03  0.15294330000E+03 0. -1.
<mgrwt>
<rscale>  0 0.41405165E+03</rscale>
<asrwt>0</asrwt>
<pdfrwt beam="1">  1        2 0.14435306E+00 0.41405165E+03</pdfrwt>
<pdfrwt beam="2">  1       -2 0.48103744E-01 0.41405165E+03</pdfrwt>
<totfact> 0.11808337E+02</totfact>
</mgrwt>
</event>
<event>
 4    1  0.1033139E-008  0.1092537E+04  0.7818608E-02  0.9212497E-01
         -2   -1    0    0    0  501 -0.00000000000E+00  0.00000000000E+00  0.55327805190E+03  0.55327805190E+03  0.25500000000E-02 0.  1.
          2   -1    0    0  501    0  0.00000000000E+00 -0.00000000000E+00 -0.30540465540E+04  0.30540465540E+04  0.25500000000E-02 0. -1.
    8880022    1    1    2    0    0 -0.16196300278E+03  0.10695853991E+04 -0.22276899715E+04  0.24811769793E+04  0.15294330000E+03 0.  0.
    8880022    1    1    2    0    0  0.16196300278E+03 -0.10695853991E+04 -0.27307853059E+03  0.11261476267E+04  0.15294330000E+03 0.  0.
<mgrwt>
<rscale>  0 0.10925368E+04</rscale>
<asrwt>0</asrwt>
<pdfrwt beam="1">  1        2 0.46985331E+00 0.10925368E+04</pdfrwt>
<pdfrwt beam="2">  1       -2 0.85119702E-01 0.10925368E+04</pdfrwt>
<totfact> 0.19491771E+00</totfact>
</mgrwt>
</event>
<event>
 4    1  0.1033139E-008  0.8736574E+03  0.7818608E-02  0.9459123E-01
          2   -1    0    0  501    0  0.00000000000E+00  0.00000000000E+00  0.42744924545E+04  0.42744924545E+04  0.25500000000E-02 0. -1.
         -2   -1    0    0    0  501 -0.00000000000E+00 -0.00000000000E+00 -0.50358057357E+03  0.50358057357E+03  0.25500000000E-02 0.  1.
    8880022    1    1    2    0    0 -0.64194635566E+03 -0.57252996255E+03 -0.33831336667E+02  0.87431224052E+03  0.15294330000E+03 0.  0.
    8880022    1    1    2    0    0  0.64194635566E+03  0.57252996255E+03  0.38047432176E+04  0.39037607876E+04  0.15294330000E+03 0.  0.
<mgrwt>
<rscale>  0 0.87365745E+03</rscale>
<asrwt>0</asrwt>
<pdfrwt beam="1">  1        2 0.65761421E+00 0.87365745E+03</pdfrwt>
<pdfrwt beam="2">  1       -2 0.77473936E-01 0.87365745E+03</pdfrwt>
<totfact> 0.32499801E-01</totfact>
</mgrwt>
</event>
<event>
 4    1  0.1033139E-008  0.7069126E+03  0.7818608E-02  0.9705483E-01
          2   -1    0    0  501    0  0.00000000000E+00  0.00000000000E+00  0.25248026094E+04  0.25248026094E+04  0.25500000000E-02 0. -1.
         -2   -1    0    0    0  501 -0.00000000000E+00 -0.00000000000E+00 -0.74637556516E+03  0.74637556516E+03  0.25500000000E-02 0.  1.
    8880022    1    1    2    0    0 -0.49514896174E+03  0.48079235357E+03  0.22912639484E+04  0.23978356732E+04  0.15294330000E+03 0.  0.
    8880022    1    1    2    0    0  0.49514896174E+03 -0.48079235357E+03 -0.51283690408E+03  0.87334250141E+03  0.15294330000E+03 0.  0.
<mgrwt>
<rscale>  0 0.70691261E+03</rscale>
<asrwt>0</asrwt>
<pdfrwt beam="1">  1        2 0.38843118E+00 0.70691261E+03</pdfrwt>
<pdfrwt beam="2">  1       -2 0.11482701E+00 0.70691261E+03</pdfrwt>
<totfact> 0.21140200E+00</totfact>
</mgrwt>
</event>
<event>
 4    1  0.1033139E-008  0.1759365E+04  0.7818608E-02  0.8728212E-01
         -2   -1    0    0    0  501 -0.00000000000E+00  0.00000000000E+00  0.16160060480E+04  0.16160060480E+04  0.25500000000E-02 0.  1.
          2   -1    0    0  501    0  0.00000000000E+00 -0.00000000000E+00 -0.28042971260E+04  0.28042971260E+04  0.25500000000E-02 0. -1.
    8880022    1    1    2    0    0  0.17496244505E+04 -0.10387212612E+03 -0.18384463888E+04  0.25446516291E+04  0.15294330000E+03 0.  0.
    8880022    1    1    2    0    0 -0.17496244505E+04  0.10387212612E+03  0.65015531081E+03  0.18756515448E+04  0.15294330000E+03 0.  0.
<mgrwt>
<rscale>  0 0.17593655E+04</rscale>
<asrwt>0</asrwt>
<pdfrwt beam="1">  1        2 0.43143033E+00 0.17593655E+04</pdfrwt>
<pdfrwt beam="2">  1       -2 0.24861632E+00 0.17593655E+04</pdfrwt>
<totfact> 0.13720489E-01</totfact>
</mgrwt>
</event>
<event>
 4    1  0.1033139E-008  0.1355045E+04  0.7818608E-02  0.8987018E-01
          2   -1    0    0  501    0  0.00000000000E+00  0.00000000000E+00  0.22304855816E+04  0.22304855816E+04  0.25500000000E-02 0. -1.
         -2   -1    0    0    0  501 -0.00000000000E+00 -0.00000000000E+00 -0.12215707958E+04  0.12215707958E+04  0.25500000000E-02 0.  1.
    8880022    1    1    2    0    0 -0.12154788711E+04  0.57910754036E+03  0.14901234023E+04  0.20141037303E+04  0.15294330000E+03 0.  0.
    8880022    1    1    2    0    0  0.12154788711E+04 -0.57910754036E+03 -0.48120861652E+03  0.14379526470E+04  0.15294330000E+03 0.  0.
<mgrwt>
<rscale>  0 0.13550447E+04</rscale>
<asrwt>0</asrwt>
<pdfrwt beam="1">  1        2 0.34315163E+00 0.13550447E+04</pdfrwt>
<pdfrwt beam="2">  1       -2 0.18793397E+00 0.13550447E+04</pdfrwt>
<totfact> 0.75864498E-01</totfact>
</mgrwt>
</event>
<event>
 4    1  0.1033139E-008  0.3406270E+03  0.7818608E-02  0.1066529E+00
         -2   -1    0    0    0  501 -0.00000000000E+00  0.00000000000E+00  0.27272112467E+03  0.27272112469E+03  0.25500000000E-02 0.  1.
          2   -1    0    0  501    0  0.00000000000E+00 -0.00000000000E+00 -0.70094818342E+03  0.70094818343E+03  0.25500000000E-02 0. -1.
    8880022    1    1    2    0    0 -0.87906577284E+02  0.29138893915E+03 -0.51932793920E+03  0.62107023889E+03  0.15294330000E+03 0.  0.
    8880022    1    1    2    0    0  0.87906577284E+02 -0.29138893915E+03  0.91100880447E+02  0.35259906923E+03  0.15294330000E+03 0.  0.
<mgrwt>
<rscale>  0 0.34062697E+03</rscale>
<asrwt>0</asrwt>
<pdfrwt beam="1">  1        2 0.10783818E+00 0.34062697E+03</pdfrwt>
<pdfrwt beam="2">  1       -2 0.41957097E-01 0.34062697E+03</pdfrwt>
<totfact> 0.22800318E+02</totfact>
</mgrwt>
</event>
<event>
 4    1  0.1033139E-008  0.3577978E+03  0.7818608E-02  0.1059459E+00
          2   -1    0    0  501    0  0.00000000000E+00  0.00000000000E+00  0.55954978636E+03  0.55954978637E+03  0.25500000000E-02 0. -1.
         -2   -1    0    0    0  501 -0.00000000000E+00 -0.00000000000E+00 -0.58480906978E+03  0.58480906978E+03  0.25500000000E-02 0.  1.
    8880022    1    1    2    0    0 -0.31288819535E+03 -0.82028025379E+02 -0.45906846426E+03  0.58203361383E+03  0.15294330000E+03 0.  0.
    8880022    1    1    2    0    0  0.31288819535E+03  0.82028025379E+02  0.43380918085E+03  0.56232524231E+03  0.15294330000E+03 0.  0.
<mgrwt>
<rscale>  0 0.35779781E+03</rscale>
<asrwt>0</asrwt>
<pdfrwt beam="1">  1        2 0.86084582E-01 0.35779781E+03</pdfrwt>
<pdfrwt beam="2">  1       -2 0.89970627E-01 0.35779781E+03</pdfrwt>
<totfact> 0.59853018E+01</totfact>
</mgrwt>
</event>
<event>
 4    1  0.1062623E-008  0.1016031E+04  0.7818608E-02  0.9291135E-01
          2   -1    0    0  501    0  0.00000000000E+00  0.00000000000E+00  0.16656437733E+04  0.16656437733E+04  0.25500000000E-02 0. -1.
         -2   -1    0    0    0  501 -0.00000000000E+00 -0.00000000000E+00 -0.31535408276E+04  0.31535408276E+04  0.25500000000E-02 0.  1.
    8880022    1    1    2    0    0  0.99906861839E+03 -0.10386977633E+03  0.14159227419E+04  0.17427437846E+04  0.15294330000E+03 0.  0.
    8880022    1    1    2    0    0 -0.99906861839E+03  0.10386977633E+03 -0.29038197962E+04  0.30764408164E+04  0.15294330000E+03 0.  0.
<mgrwt>
<rscale>  0 0.10160308E+04</rscale>
<asrwt>0</asrwt>
<pdfrwt beam="1">  1        2 0.25625289E+00 0.10160308E+04</pdfrwt>
<pdfrwt beam="2">  1       -2 0.48516013E+00 0.10160308E+04</pdfrwt>
<totfact> 0.21229290E-02</totfact>
</mgrwt>
</event>
<event>
 4    1  0.1033139E-008  0.4680210E+03  0.7818608E-02  0.1022480E+00
          2   -1    0    0  501    0  0.00000000000E+00  0.00000000000E+00  0.18333597905E+04  0.18333597905E+04  0.25500000000E-02 0. -1.
         -2   -1    0    0    0  501 -0.00000000000E+00 -0.00000000000E+00 -0.22817036675E+03  0.22817036676E+03  0.25500000000E-02 0.  1.
    8880022    1    1    2    0    0 -0.93169457123E+02 -0.43240195964E+03  0.15140249653E+04  0.15847129869E+04  0.15294330000E+03 0.  0.
    8880022    1    1    2    0    0  0.93169457123E+02  0.43240195964E+03  0.91164458506E+02  0.47681717036E+03  0.15294330000E+03 0.  0.
<mgrwt>
<rscale>  0 0.46802100E+03</rscale>
<asrwt>0</asrwt>
<pdfrwt beam="1">  1        2 0.28205536E+00 0.46802100E+03</pdfrwt>
<pdfrwt beam="2">  1       -2 0.35103132E-01 0.46802100E+03</pdfrwt>
<totfact> 0.67159349E+01</totfact>
</mgrwt>
</event>
<event>
 4    1  0.1033139E-008  0.5133935E+03  0.7818608E-02  0.1010341E+00
         -2   -1    0    0    0  501 -0.00000000000E+00  0.00000000000E+00  0.18727667550E+03  0.18727667551E+03  0.25500000000E-02 0.  1.
          2   -1    0    0  501    0  0.00000000000E+00 -0.00000000000E+00 -0.25933372439E+04  0.25933372439E+04  0.25500000000E-02 0. -1.
    8880022    1    1    2    0    0  0.18299710837E+03  0.45463532531E+03 -0.26284734835E+03  0.57676823962E+03  0.15294330000E+03 0.  1.
    8880022    1    1    2    0    0 -0.18299710837E+03 -0.45463532531E+03 -0.21432132200E+04  0.22038456798E+04  0.15294330000E+03 0. -1.
<mgrwt>
<rscale>  0 0.51339349E+03</rscale>
<asrwt>0</asrwt>
<pdfrwt beam="1">  1        2 0.39897493E+00 0.51339349E+03</pdfrwt>
<pdfrwt beam="2">  1       -2 0.28811798E-01 0.51339349E+03</pdfrwt>
<totfact> 0.36941448E+01</totfact>
</mgrwt>
</event>
<event>
 4    1  0.1033139E-008  0.9222407E+03  0.7818608E-02  0.9398199E-01
         -2   -1    0    0    0  501 -0.00000000000E+00  0.00000000000E+00  0.47821906637E+03  0.47821906638E+03  0.25500000000E-02 0.  1.
          2   -1    0    0  501    0  0.00000000000E+00 -0.00000000000E+00 -0.42448020161E+04  0.42448020161E+04  0.25500000000E-02 0. -1.
    8880022    1    1    2    0    0 -0.34582349382E+03  0.84115536264E+03 -0.36833286956E+04  0.37970301771E+04  0.15294330000E+03 0.  0.
    8880022    1    1    2    0    0  0.34582349382E+03 -0.84115536264E+03 -0.83254254110E+02  0.92599090536E+03  0.15294330000E+03 0.  0.
<mgrwt>
<rscale>  0 0.92224069E+03</rscale>
<asrwt>0</asrwt>
<pdfrwt beam="1">  1        2 0.65304644E+00 0.92224069E+03</pdfrwt>
<pdfrwt beam="2">  1       -2 0.73572167E-01 0.92224069E+03</pdfrwt>
<totfact> 0.38268127E-01</totfact>
</mgrwt>
</event>
<event>
 4    1  0.1033139E-008  0.1678839E+04  0.7818608E-02  0.8773526E-01
          2   -1    0    0  501    0  0.00000000000E+00  0.00000000000E+00  0.22737681280E+04  0.22737681280E+04  0.25500000000E-02 0. -1.
         -2   -1    0    0    0  501 -0.00000000000E+00 -0.00000000000E+00 -0.12754849050E+04  0.12754849050E+04  0.25500000000E-02 0.  1.
    8880022    1    1    2    0    0  0.97844101784E+03  0.13556412210E+04  0.20136644440E+03  0.16908725686E+04  0.15294330000E+03 0.  0.
    8880022    1    1    2    0    0 -0.97844101784E+03 -0.13556412210E+04  0.79691677858E+03  0.18583804644E+04  0.15294330000E+03 0.  0.
<mgrwt>
<rscale>  0 0.16788394E+04</rscale>
<asrwt>0</asrwt>
<pdfrwt beam="1">  1        2 0.34981048E+00 0.16788394E+04</pdfrwt>
<pdfrwt beam="2">  1       -2 0.19622845E+00 0.16788394E+04</pdfrwt>
<totfact> 0.60991838E-01</totfact>
</mgrwt>
</event>
<event>
 4    1  0.1033139E-008  0.5004847E+03  0.7818608E-02  0.1013652E+00
         -2   -1    0    0    0  501 -0.00000000000E+00  0.00000000000E+00  0.49718002552E+03  0.49718002553E+03  0.25500000000E-02 0.  1.
          2   -1    0    0  501    0  0.00000000000E+00 -0.00000000000E+00 -0.13905789995E+04  0.13905789995E+04  0.25500000000E-02 0. -1.
    8880022    1    1    2    0    0  0.46569536496E+03  0.10109930753E+03 -0.12004431407E+04  0.13005954905E+04  0.15294330000E+03 0.  0.
    8880022    1    1    2    0    0 -0.46569536496E+03 -0.10109930753E+03  0.30704416671E+03  0.58716353451E+03  0.15294330000E+03 0.  0.
<mgrwt>
<rscale>  0 0.50048466E+03</rscale>
<asrwt>0</asrwt>
<pdfrwt beam="1">  1        2 0.21393523E+00 0.50048466E+03</pdfrwt>
<pdfrwt beam="2">  1       -2 0.76489235E-01 0.50048466E+03</pdfrwt>
<totfact> 0.23709275E+01</totfact>
</mgrwt>
</event>
<event>
 4    1  0.1033139E-008  0.4220353E+03  0.7818608E-02  0.1036406E+00
          2   -1    0    0  501    0  0.00000000000E+00  0.00000000000E+00  0.31999291922E+04  0.31999291922E+04  0.25500000000E-02 0. -1.
         -2   -1    0    0    0  501 -0.00000000000E+00 -0.00000000000E+00 -0.13291164820E+03  0.13291164822E+03  0.25500000000E-02 0.  1.
    8880022    1    1    2    0    0  0.31221746188E+03 -0.23925378360E+03  0.26307532915E+03  0.49731519009E+03  0.15294330000E+03 0.  0.
    8880022    1    1    2    0    0 -0.31221746188E+03  0.23925378360E+03  0.28039422148E+04  0.28355256503E+04  0.15294330000E+03 0.  0.
<mgrwt>
<rscale>  0 0.42203527E+03</rscale>
<asrwt>0</asrwt>
<pdfrwt beam="1">  1        2 0.49229675E+00 0.42203527E+03</pdfrwt>
<pdfrwt beam="2">  1       -2 0.20447948E-01 0.42203527E+03</pdfrwt>
<totfact> 0.30405566E+01</totfact>
</mgrwt>
</event>
<event>
 4    1  0.1033139E-008  0.4535899E+03  0.7818608E-02  0.1026657E+00
         -2   -1    0    0    0  501 -0.00000000000E+00  0.00000000000E+00  0.44005698665E+03  0.44005698666E+03  0.25500000000E-02 0.  1.
          2   -1    0    0  501    0  0.00000000000E+00 -0.00000000000E+00 -0.20007260571E+04  0.20007260571E+04  0.25500000000E-02 0. -1.
    8880022    1    1    2    0    0 -0.21295663253E+03 -0.37013724089E+03 -0.18486584608E+04  0.19034920179E+04  0.15294330000E+03 0.  0.
    8880022    1    1    2    0    0  0.21295663253E+03  0.37013724089E+03  0.28798939041E+03  0.53729102583E+03  0.15294330000E+03 0.  0.
<mgrwt>
<rscale>  0 0.45358986E+03</rscale>
<asrwt>0</asrwt>
<pdfrwt beam="1">  1        2 0.30780400E+00 0.45358986E+03</pdfrwt>
<pdfrwt beam="2">  1       -2 0.67701076E-01 0.45358986E+03</pdfrwt>
<totfact> 0.14599415E+01</totfact>
</mgrwt>
</event>
<event>
 4    1  0.1033139E-008  0.7239082E+03  0.7818608E-02  0.9677198E-01
          2   -1    0    0  501    0  0.00000000000E+00  0.00000000000E+00  0.18539406464E+04  0.18539406464E+04  0.25500000000E-02 0. -1.
         -2   -1    0    0    0  501 -0.00000000000E+00 -0.00000000000E+00 -0.46460347813E+03  0.46460347813E+03  0.25500000000E-02 0.  1.
    8880022    1    1    2    0    0 -0.70423752963E+03  0.68563299298E+02  0.14201179406E+04  0.15939818200E+04  0.15294330000E+03 0.  0.
    8880022    1    1    2    0    0  0.70423752963E+03 -0.68563299298E+02 -0.30780772384E+02  0.72456230451E+03  0.15294330000E+03 0.  0.
<mgrwt>
<rscale>  0 0.72390820E+03</rscale>
<asrwt>0</asrwt>
<pdfrwt beam="1">  1        2 0.28522164E+00 0.72390820E+03</pdfrwt>
<pdfrwt beam="2">  1       -2 0.71477459E-01 0.72390820E+03</pdfrwt>
<totfact> 0.14806408E+01</totfact>
</mgrwt>
</event>
<event>
 4    1  0.1033139E-008  0.1007863E+04  0.7818608E-02  0.9299962E-01
          2   -1    0    0  501    0  0.00000000000E+00  0.00000000000E+00  0.21004070874E+04  0.21004070874E+04  0.25500000000E-02 0. -1.
         -2   -1    0    0    0  501 -0.00000000000E+00 -0.00000000000E+00 -0.17498006623E+04  0.17498006623E+04  0.25500000000E-02 0.  1.
    8880022    1    1    2    0    0  0.64576926301E+03  0.75853747642E+03 -0.14622995006E+04  0.17759810040E+04  0.15294330000E+03 0.  0.
    8880022    1    1    2    0    0 -0.64576926301E+03 -0.75853747642E+03  0.18129059257E+04  0.20742267457E+04  0.15294330000E+03 0.  0.
<mgrwt>
<rscale>  0 0.10078634E+04</rscale>
<asrwt>0</asrwt>
<pdfrwt beam="1">  1        2 0.32313955E+00 0.10078634E+04</pdfrwt>
<pdfrwt beam="2">  1       -2 0.26920010E+00 0.10078634E+04</pdfrwt>
<totfact> 0.28952653E-01</totfact>
</mgrwt>
</event>
<event>
 4    1  0.1033139E-008  0.2037224E+04  0.7818608E-02  0.8589412E-01
         -2   -1    0    0    0  501 -0.00000000000E+00  0.00000000000E+00  0.16391557067E+04  0.16391557067E+04  0.25500000000E-02 0.  1.
          2   -1    0    0  501    0  0.00000000000E+00 -0.00000000000E+00 -0.31256162619E+04  0.31256162619E+04  0.25500000000E-02 0. -1.
    8880022    1    1    2    0    0 -0.97258180801E+03 -0.17835286210E+04 -0.17815014061E+04  0.27062942612E+04  0.15294330000E+03 0.  0.
    8880022    1    1    2    0    0  0.97258180801E+03  0.17835286210E+04  0.29504085082E+03  0.20584777074E+04  0.15294330000E+03 0.  0.
<mgrwt>
<rscale>  0 0.20372239E+04</rscale>
<asrwt>0</asrwt>
<pdfrwt beam="1">  1        2 0.48086404E+00 0.20372239E+04</pdfrwt>
<pdfrwt beam="2">  1       -2 0.25217780E+00 0.20372239E+04</pdfrwt>
<totfact> 0.79856859E-02</totfact>
</mgrwt>
</event>
<event>
 4    1  0.1033139E-008  0.4863510E+03  0.7818608E-02  0.1017404E+00
          2   -1    0    0  501    0  0.00000000000E+00  0.00000000000E+00  0.23620274338E+04  0.23620274338E+04  0.25500000000E-02 0. -1.
         -2   -1    0    0    0  501 -0.00000000000E+00 -0.00000000000E+00 -0.31837430508E+03  0.31837430509E+03  0.25500000000E-02 0.  1.
    8880022    1    1    2    0    0  0.11818380832E+03  0.44629391302E+03 -0.87758901699E+02  0.49420536945E+03  0.15294330000E+03 0.  1.
    8880022    1    1    2    0    0 -0.11818380832E+03 -0.44629391302E+03  0.21314120304E+04  0.21861963694E+04  0.15294330000E+03 0.  0.
<mgrwt>
<rscale>  0 0.48635103E+03</rscale>
<asrwt>0</asrwt>
<pdfrwt beam="1">  1        2 0.36338885E+00 0.48635103E+03</pdfrwt>
<pdfrwt beam="2">  1       -2 0.48980661E-01 0.48635103E+03</pdfrwt>
<totfact> 0.18083135E+01</totfact>
</mgrwt>
</event>
<event>
 4    1  0.1033139E-008  0.4116973E+03  0.7818608E-02  0.1039803E+00
          2   -1    0    0  501    0  0.00000000000E+00  0.00000000000E+00  0.16059785308E+04  0.16059785308E+04  0.25500000000E-02 0. -1.
         -2   -1    0    0    0  501 -0.00000000000E+00 -0.00000000000E+00 -0.14654506318E+04  0.14654506318E+04  0.25500000000E-02 0.  1.
    8880022    1    1    2    0    0  0.13641742198E+03 -0.35706202449E+03  0.15496452601E+04  0.16034011000E+04  0.15294330000E+03 0.  0.
    8880022    1    1    2    0    0 -0.13641742198E+03  0.35706202449E+03 -0.14091173611E+04  0.14680280626E+04  0.15294330000E+03 0.  1.
<mgrwt>
<rscale>  0 0.41169729E+03</rscale>
<asrwt>0</asrwt>
<pdfrwt beam="1">  1        2 0.24707362E+00 0.41169729E+03</pdfrwt>
<pdfrwt beam="2">  1       -2 0.22545394E+00 0.41169729E+03</pdfrwt>
<totfact> 0.11487871E+00</totfact>
</mgrwt>
</event>
<event>
 4    1  0.1033139E-008  0.1106712E+04  0.7818608E-02  0.9198675E-01
          2   -1    0    0  501    0  0.00000000000E+00  0.00000000000E+00  0.15423378739E+04  0.15423378739E+04  0.25500000000E-02 0. -1.
         -2   -1    0    0    0  501 -0.00000000000E+00 -0.00000000000E+00 -0.98329785210E+03  0.98329785210E+03  0.25500000000E-02 0.  1.
    8880022    1    1    2    0    0  0.68373692709E+03 -0.85669309992E+03  0.83341343133E+03  0.13854201000E+04  0.15294330000E+03 0.  0.
    8880022    1    1    2    0    0 -0.68373692709E+03  0.85669309992E+03 -0.27437340954E+03  0.11402156260E+04  0.15294330000E+03 0.  0.
<mgrwt>
<rscale>  0 0.11067118E+04</rscale>
<asrwt>0</asrwt>
<pdfrwt beam="1">  1        2 0.23728275E+00 0.11067118E+04</pdfrwt>
<pdfrwt beam="2">  1       -2 0.15127659E+00 0.11067118E+04</pdfrwt>
<totfact> 0.34534809E+00</totfact>
</mgrwt>
</event>
<event>
 4    1  0.1033139E-008  0.8826968E+03  0.7818608E-02  0.9447474E-01
          2   -1    0    0  501    0  0.00000000000E+00  0.00000000000E+00  0.19757141497E+04  0.19757141497E+04  0.25500000000E-02 0. -1.
         -2   -1    0    0    0  501 -0.00000000000E+00 -0.00000000000E+00 -0.50479227396E+03  0.50479227397E+03  0.25500000000E-02 0.  1.
    8880022    1    1    2    0    0  0.27400421374E+03  0.82503554178E+03  0.13155452157E+04  0.15842388778E+04  0.15294330000E+03 0.  0.
    8880022    1    1    2    0    0 -0.27400421374E+03 -0.82503554178E+03  0.15537666007E+03  0.89626754591E+03  0.15294330000E+03 0.  0.
<mgrwt>
<rscale>  0 0.88269678E+03</rscale>
<asrwt>0</asrwt>
<pdfrwt beam="1">  1        2 0.30395601E+00 0.88269678E+03</pdfrwt>
<pdfrwt beam="2">  1       -2 0.77660352E-01 0.88269678E+03</pdfrwt>
<totfact> 0.10346494E+01</totfact>
</mgrwt>
</event>
<event>
 4    1  0.1033139E-008  0.1407675E+04  0.7818608E-02  0.8948282E-01
          2   -1    0    0  501    0  0.00000000000E+00  0.00000000000E+00  0.37941780537E+04  0.37941780537E+04  0.25500000000E-02 0. -1.
         -2   -1    0    0    0  501 -0.00000000000E+00 -0.00000000000E+00 -0.63042318493E+03  0.63042318493E+03  0.25500000000E-02 0.  1.
    8880022    1    1    2    0    0 -0.80737668379E+03 -0.11429349139E+04  0.24982392121E+04  0.28675334594E+04  0.15294330000E+03 0.  0.
    8880022    1    1    2    0    0  0.80737668379E+03  0.11429349139E+04  0.66551565672E+03  0.15570677793E+04  0.15294330000E+03 0.  0.
<mgrwt>
<rscale>  0 0.14076750E+04</rscale>
<asrwt>0</asrwt>
<pdfrwt beam="1">  1        2 0.58371970E+00 0.14076750E+04</pdfrwt>
<pdfrwt beam="2">  1       -2 0.96988183E-01 0.14076750E+04</pdfrwt>
<totfact> 0.43106213E-01</totfact>
</mgrwt>
</event>
<event>
 4    1  0.1033139E-008  0.8575859E+03  0.7818608E-02  0.9480212E-01
          2   -1    0    0  501    0  0.00000000000E+00  0.00000000000E+00  0.22133625050E+04  0.22133625050E+04  0.25500000000E-02 0. -1.
         -2   -1    0    0    0  501 -0.00000000000E+00 -0.00000000000E+00 -0.13187265495E+04  0.13187265495E+04  0.25500000000E-02 0.  1.
    8880022    1    1    2    0    0  0.42239650028E+03 -0.73050880149E+03  0.19747479372E+04  0.21529242860E+04  0.15294330000E+03 0.  0.
    8880022    1    1    2    0    0 -0.42239650028E+03  0.73050880149E+03 -0.10801119818E+04  0.13791647685E+04  0.15294330000E+03 0.  0.
<mgrwt>
<rscale>  0 0.85758589E+03</rscale>
<asrwt>0</asrwt>
<pdfrwt beam="1">  1        2 0.34051731E+00 0.85758589E+03</pdfrwt>
<pdfrwt beam="2">  1       -2 0.20288101E+00 0.85758589E+03</pdfrwt>
<totfact> 0.66386156E-01</totfact>
</mgrwt>
</event>
<event>
 4    1  0.1033139E-008  0.3768454E+03  0.7818608E-02  0.1052106E+00
         -2   -1    0    0    0  501 -0.00000000000E+00  0.00000000000E+00  0.23411126403E+03  0.23411126404E+03  0.25500000000E-02 0.  1.
          2   -1    0    0  501    0  0.00000000000E+00 -0.00000000000E+00 -0.74611324930E+03  0.74611324931E+03  0.25500000000E-02 0. -1.
    8880022    1    1    2    0    0 -0.33679648730E+03  0.72034115183E+02 -0.44068633854E+02  0.37941334335E+03  0.15294330000E+03 0.  0.
    8880022    1    1    2    0    0  0.33679648730E+03 -0.72034115183E+02 -0.46793335142E+03  0.60081117000E+03  0.15294330000E+03 0.  0.
<mgrwt>
<rscale>  0 0.37684538E+03</rscale>
<asrwt>0</asrwt>
<pdfrwt beam="1">  1        2 0.11478665E+00 0.37684538E+03</pdfrwt>
<pdfrwt beam="2">  1       -2 0.36017118E-01 0.37684538E+03</pdfrwt>
<totfact> 0.28178999E+02</totfact>
</mgrwt>
</event>
<event>
 4    1  0.1033139E-008  0.1011267E+04  0.7818608E-02  0.9296273E-01
          2   -1    0    0  501    0  0.00000000000E+00  0.00000000000E+00  0.11569296392E+04  0.11569296392E+04  0.25500000000E-02 0. -1.
         -2   -1    0    0    0  501 -0.00000000000E+00 -0.00000000000E+00 -0.16931794109E+04  0.16931794109E+04  0.25500000000E-02 0.  1.
    8880022    1    1    2    0    0  0.96368434187E+02 -0.99497815920E+03 -0.12533095690E+04  0.16104176295E+04  0.15294330000E+03 0.  0.
    8880022    1    1    2    0    0 -0.96368434187E+02  0.99497815920E+03  0.71705979741E+03  0.12396914207E+04  0.15294330000E+03 0.  0.
<mgrwt>
<rscale>  0 0.10112666E+04</rscale>
<asrwt>0</asrwt>
<pdfrwt beam="1">  1        2 0.17798918E+00 0.10112666E+04</pdfrwt>
<pdfrwt beam="2">  1       -2 0.26048914E+00 0.10112666E+04</pdfrwt>
<totfact> 0.11103603E+00</totfact>
</mgrwt>
</event>
<event>
 4    1  0.1033139E-008  0.9460216E+03  0.7818608E-02  0.9369813E-01
          2   -1    0    0  501    0  0.00000000000E+00  0.00000000000E+00  0.20240684938E+04  0.20240684938E+04  0.25500000000E-02 0. -1.
         -2   -1    0    0    0  501 -0.00000000000E+00 -0.00000000000E+00 -0.52778709343E+03  0.52778709344E+03  0.25500000000E-02 0.  1.
    8880022    1    1    2    0    0  0.65167864008E+03  0.66849101846E+03  0.23420497631E+03  0.97458140535E+03  0.15294330000E+03 0.  0.
    8880022    1    1    2    0    0 -0.65167864008E+03 -0.66849101846E+03  0.12620764241E+04  0.15772741819E+04  0.15294330000E+03 0.  0.
<mgrwt>
<rscale>  0 0.94602164E+03</rscale>
<asrwt>0</asrwt>
<pdfrwt beam="1">  1        2 0.31139515E+00 0.94602164E+03</pdfrwt>
<pdfrwt beam="2">  1       -2 0.81198016E-01 0.94602164E+03</pdfrwt>
<totfact> 0.87356101E+00</totfact>
</mgrwt>
</event>
<event>
 4    1  0.1033139E-008  0.9282484E+03  0.7818608E-02  0.9390943E-01
         -2   -1    0    0    0  501 -0.00000000000E+00  0.00000000000E+00  0.52514858139E+03  0.52514858139E+03  0.25500000000E-02 0.  1.
          2   -1    0    0  501    0  0.00000000000E+00 -0.00000000000E+00 -0.20156677906E+04  0.20156677906E+04  0.25500000000E-02 0. -1.
    8880022    1    1    2    0    0  0.60340457747E+03 -0.68859010302E+03 -0.19736941691E+03  0.94899934343E+03  0.15294330000E+03 0.  0.
    8880022    1    1    2    0    0 -0.60340457747E+03  0.68859010302E+03 -0.12931497923E+04  0.15918170286E+04  0.15294330000E+03 0.  0.
<mgrwt>
<rscale>  0 0.92824839E+03</rscale>
<asrwt>0</asrwt>
<pdfrwt beam="1">  1        2 0.31010273E+00 0.92824839E+03</pdfrwt>
<pdfrwt beam="2">  1       -2 0.80792090E-01 0.92824839E+03</pdfrwt>
<totfact> 0.89490653E+00</totfact>
</mgrwt>
</event>
<event>
 4    1  0.1033139E-008  0.5107754E+03  0.7818608E-02  0.1011004E+00
         -2   -1    0    0    0  501 -0.00000000000E+00  0.00000000000E+00  0.17557160952E+03  0.17557160954E+03  0.25500000000E-02 0.  1.
          2   -1    0    0  501    0  0.00000000000E+00 -0.00000000000E+00 -0.28300726547E+04  0.28300726547E+04  0.25500000000E-02 0. -1.
    8880022    1    1    2    0    0 -0.22521245959E+03  0.43217960852E+03 -0.23629349000E+04  0.24175096402E+04  0.15294330000E+03 0.  0.
    8880022    1    1    2    0    0  0.22521245959E+03 -0.43217960852E+03 -0.29156614524E+03  0.58813462408E+03  0.15294330000E+03 0.  0.
<mgrwt>
<rscale>  0 0.51077541E+03</rscale>
<asrwt>0</asrwt>
<pdfrwt beam="1">  1        2 0.43539576E+00 0.51077541E+03</pdfrwt>
<pdfrwt beam="2">  1       -2 0.27011019E-01 0.51077541E+03</pdfrwt>
<totfact> 0.30365179E+01</totfact>
</mgrwt>
</event>
<event>
 4    1  0.1033139E-008  0.1671787E+04  0.7818608E-02  0.8777621E-01
         -2   -1    0    0    0  501 -0.00000000000E+00  0.00000000000E+00  0.87207929356E+03  0.87207929356E+03  0.25500000000E-02 0.  1.
          2   -1    0    0  501    0  0.00000000000E+00 -0.00000000000E+00 -0.44078940074E+04  0.44078940074E+04  0.25500000000E-02 0. -1.
    8880022    1    1    2    0    0 -0.16644982106E+04  0.30429504562E+02 -0.38870090315E+03  0.17163799967E+04  0.15294330000E+03 0.  0.
    8880022    1    1    2    0    0  0.16644982106E+04 -0.30429504562E+02 -0.31471138107E+04  0.35635933043E+04  0.15294330000E+03 0.  0.
<mgrwt>
<rscale>  0 0.16717870E+04</rscale>
<asrwt>0</asrwt>
<pdfrwt beam="1">  1        2 0.67813753E+00 0.16717870E+04</pdfrwt>
<pdfrwt beam="2">  1       -2 0.13416605E+00 0.16717870E+04</pdfrwt>
<totfact> 0.57365063E-02</totfact>
</mgrwt>
</event>
<event>
 4    1  0.1033139E-008  0.1103524E+04  0.7818608E-02  0.9201764E-01
          2   -1    0    0  501    0  0.00000000000E+00  0.00000000000E+00  0.12606581755E+04  0.12606581755E+04  0.25500000000E-02 0. -1.
         -2   -1    0    0    0  501 -0.00000000000E+00 -0.00000000000E+00 -0.16163427095E+04  0.16163427095E+04  0.25500000000E-02 0.  1.
    8880022    1    1    2    0    0 -0.10916597507E+04 -0.51501909646E+02 -0.10903205583E+04  0.15513104238E+04  0.15294330000E+03 0.  0.
    8880022    1    1    2    0    0  0.10916597507E+04  0.51501909646E+02  0.73463602428E+03  0.13256904613E+04  0.15294330000E+03 0.  0.
<mgrwt>
<rscale>  0 0.11035240E+04</rscale>
<asrwt>0</asrwt>
<pdfrwt beam="1">  1        2 0.19394741E+00 0.11035240E+04</pdfrwt>
<pdfrwt beam="2">  1       -2 0.24866811E+00 0.11035240E+04</pdfrwt>
<totfact> 0.11228245E+00</totfact>
</mgrwt>
</event>
<event>
 4    1  0.1033139E-008  0.3696174E+03  0.7818608E-02  0.1054839E+00
          2   -1    0    0  501    0  0.00000000000E+00  0.00000000000E+00  0.80525436595E+03  0.80525436595E+03  0.25500000000E-02 0. -1.
         -2   -1    0    0    0  501 -0.00000000000E+00 -0.00000000000E+00 -0.89326627573E+03  0.89326627573E+03  0.25500000000E-02 0.  1.
    8880022    1    1    2    0    0  0.23799126242E+03  0.23787711993E+03  0.72036193606E+03  0.80965322028E+03  0.15294330000E+03 0. -1.
    8880022    1    1    2    0    0 -0.23799126242E+03 -0.23787711993E+03 -0.80837384584E+03  0.88886742140E+03  0.15294330000E+03 0.  0.
<mgrwt>
<rscale>  0 0.36961739E+03</rscale>
<asrwt>0</asrwt>
<pdfrwt beam="1">  1        2 0.12388529E+00 0.36961739E+03</pdfrwt>
<pdfrwt beam="2">  1       -2 0.13742558E+00 0.36961739E+03</pdfrwt>
<totfact> 0.13834096E+01</totfact>
</mgrwt>
</event>
<event>
 4    1  0.1033139E-008  0.6274707E+03  0.7818608E-02  0.9849997E-01
         -2   -1    0    0    0  501 -0.00000000000E+00  0.00000000000E+00  0.55675740609E+03  0.55675740610E+03  0.25500000000E-02 0.  1.
          2   -1    0    0  501    0  0.00000000000E+00 -0.00000000000E+00 -0.23611141926E+04  0.23611141926E+04  0.25500000000E-02 0. -1.
    8880022    1    1    2    0    0  0.59313533140E+03  0.13608218215E+03 -0.21232432277E+04  0.22140192725E+04  0.15294330000E+03 0.  0.
    8880022    1    1    2    0    0 -0.59313533140E+03 -0.13608218215E+03  0.31888644127E+03  0.70385232620E+03  0.15294330000E+03 0.  0.
<mgrwt>
<rscale>  0 0.62747074E+03</rscale>
<asrwt>0</asrwt>
<pdfrwt beam="1">  1        2 0.36324833E+00 0.62747074E+03</pdfrwt>
<pdfrwt beam="2">  1       -2 0.85654987E-01 0.62747074E+03</pdfrwt>
<totfact> 0.53042820E+00</totfact>
</mgrwt>
</event>
<event>
 4    1  0.1033139E-008  0.6673719E+03  0.7818608E-02  0.9774717E-01
         -2   -1    0    0    0  501 -0.00000000000E+00  0.00000000000E+00  0.12020313955E+04  0.12020313955E+04  0.25500000000E-02 0.  1.
          2   -1    0    0  501    0  0.00000000000E+00 -0.00000000000E+00 -0.13328952595E+04  0.13328952595E+04  0.25500000000E-02 0. -1.
    8880022    1    1    2    0    0 -0.45623129417E+03  0.46243557341E+03 -0.11424128163E+04  0.13230617329E+04  0.15294330000E+03 0.  0.
    8880022    1    1    2    0    0  0.45623129417E+03 -0.46243557341E+03  0.10115489523E+04  0.12118649221E+04  0.15294330000E+03 0.  0.
<mgrwt>
<rscale>  0 0.66737194E+03</rscale>
<asrwt>0</asrwt>
<pdfrwt beam="1">  1        2 0.20506081E+00 0.66737194E+03</pdfrwt>
<pdfrwt beam="2">  1       -2 0.18492791E+00 0.66737194E+03</pdfrwt>
<totfact> 0.27643863E+00</totfact>
</mgrwt>
</event>
<event>
 4    1  0.1033139E-008  0.4891897E+03  0.7818608E-02  0.1016640E+00
          2   -1    0    0  501    0  0.00000000000E+00  0.00000000000E+00  0.11882096369E+04  0.11882096369E+04  0.25500000000E-02 0. -1.
         -2   -1    0    0    0  501 -0.00000000000E+00 -0.00000000000E+00 -0.76168663931E+03  0.76168663932E+03  0.25500000000E-02 0.  1.
    8880022    1    1    2    0    0  0.30034028932E+03 -0.35455694107E+03  0.10494382814E+04  0.11578545994E+04  0.15294330000E+03 0.  0.
    8880022    1    1    2    0    0 -0.30034028932E+03  0.35455694107E+03 -0.62291528387E+03  0.79204167677E+03  0.15294330000E+03 0.  0.
<mgrwt>
<rscale>  0 0.48918970E+03</rscale>
<asrwt>0</asrwt>
<pdfrwt beam="1">  1        2 0.18280148E+00 0.48918970E+03</pdfrwt>
<pdfrwt beam="2">  1       -2 0.11718256E+00 0.48918970E+03</pdfrwt>
<totfact> 0.11501427E+01</totfact>
</mgrwt>
</event>
<event>
 4    1  0.1033139E-008  0.1154017E+04  0.7818608E-02  0.9154086E-01
          2   -1    0    0  501    0  0.00000000000E+00  0.00000000000E+00  0.13708288858E+04  0.13708288858E+04  0.25500000000E-02 0. -1.
         -2   -1    0    0    0  501 -0.00000000000E+00 -0.00000000000E+00 -0.16811384835E+04  0.16811384835E+04  0.25500000000E-02 0.  1.
    8880022    1    1    2    0    0  0.11225771699E+04  0.21950946777E+03  0.83628825459E+03  0.14251784473E+04  0.15294330000E+03 0.  0.
    8880022    1    1    2    0    0 -0.11225771699E+04 -0.21950946777E+03 -0.11465978523E+04  0.16267889220E+04  0.15294330000E+03 0.  0.
<mgrwt>
<rscale>  0 0.11540171E+04</rscale>
<asrwt>0</asrwt>
<pdfrwt beam="1">  1        2 0.21089675E+00 0.11540171E+04</pdfrwt>
<pdfrwt beam="2">  1       -2 0.25863669E+00 0.11540171E+04</pdfrwt>
<totfact> 0.83660673E-01</totfact>
</mgrwt>
</event>
<event>
 4    1  0.1033139E-008  0.1056586E+04  0.7818608E-02  0.9248571E-01
          2   -1    0    0  501    0  0.00000000000E+00  0.00000000000E+00  0.10012485694E+04  0.10012485694E+04  0.25500000000E-02 0. -1.
         -2   -1    0    0    0  501 -0.00000000000E+00 -0.00000000000E+00 -0.19920441041E+04  0.19920441041E+04  0.25500000000E-02 0.  1.
    8880022    1    1    2    0    0  0.54356856726E+03 -0.89303684619E+03  0.49768421833E+03  0.11679310040E+04  0.15294330000E+03 0.  0.
    8880022    1    1    2    0    0 -0.54356856726E+03  0.89303684619E+03 -0.14884797531E+04  0.18253616695E+04  0.15294330000E+03 0.  0.
<mgrwt>
<rscale>  0 0.10565857E+04</rscale>
<asrwt>0</asrwt>
<pdfrwt beam="1">  1        2 0.15403824E+00 0.10565857E+04</pdfrwt>
<pdfrwt beam="2">  1       -2 0.30646832E+00 0.10565857E+04</pdfrwt>
<totfact> 0.72703373E-01</totfact>
</mgrwt>
</event>
<event>
 4    1  0.1033139E-008  0.9480177E+03  0.7818608E-02  0.9367471E-01
          2   -1    0    0  501    0  0.00000000000E+00  0.00000000000E+00  0.20485573247E+04  0.20485573247E+04  0.25500000000E-02 0. -1.
         -2   -1    0    0    0  501 -0.00000000000E+00 -0.00000000000E+00 -0.63127333846E+03  0.63127333846E+03  0.25500000000E-02 0.  1.
    8880022    1    1    2    0    0 -0.93265388443E+03 -0.74179595014E+02 -0.31384395660E+02  0.94853703869E+03  0.15294330000E+03 0.  0.
    8880022    1    1    2    0    0  0.93265388443E+03  0.74179595014E+02  0.14486683819E+04  0.17312936245E+04  0.15294330000E+03 0.  0.
<mgrwt>
<rscale>  0 0.94801769E+03</rscale>
<asrwt>0</asrwt>
<pdfrwt beam="1">  1        2 0.31516267E+00 0.94801769E+03</pdfrwt>
<pdfrwt beam="2">  1       -2 0.97118974E-01 0.94801769E+03</pdfrwt>
<totfact> 0.55998259E+00</totfact>
</mgrwt>
</event>
<event>
 4    1  0.1033139E-008  0.4076183E+03  0.7818608E-02  0.1041173E+00
          2   -1    0    0  501    0  0.00000000000E+00  0.00000000000E+00  0.25793864939E+04  0.25793864939E+04  0.25500000000E-02 0. -1.
         -2   -1    0    0    0  501 -0.00000000000E+00 -0.00000000000E+00 -0.47203095919E+03  0.47203095920E+03  0.25500000000E-02 0.  1.
    8880022    1    1    2    0    0  0.36932695011E+03 -0.79741097357E+02 -0.36411144012E+03  0.54656182864E+03  0.15294330000E+03 0.  0.
    8880022    1    1    2    0    0 -0.36932695011E+03  0.79741097357E+02  0.24714669748E+04  0.25048556244E+04  0.15294330000E+03 0.  0.
<mgrwt>
<rscale>  0 0.40761832E+03</rscale>
<asrwt>0</asrwt>
<pdfrwt beam="1">  1        2 0.39682870E+00 0.40761832E+03</pdfrwt>
<pdfrwt beam="2">  1       -2 0.72620145E-01 0.40761832E+03</pdfrwt>
<totfact> 0.61377345E+00</totfact>
</mgrwt>
</event>
<event>
 4    1  0.1033139E-008  0.9323744E+03  0.7818608E-02  0.9385993E-01
         -2   -1    0    0    0  501 -0.00000000000E+00  0.00000000000E+00  0.57153549938E+03  0.57153549938E+03  0.25500000000E-02 0.  1.
          2   -1    0    0  501    0  0.00000000000E+00 -0.00000000000E+00 -0.16940682580E+04  0.16940682580E+04  0.25500000000E-02 0. -1.
    8880022    1    1    2    0    0 -0.59567293723E+03  0.70078826019E+03 -0.92330990983E+03  0.13121826383E+04  0.15294330000E+03 0.  0.
    8880022    1    1    2    0    0  0.59567293723E+03 -0.70078826019E+03 -0.19922284882E+03  0.95342111906E+03  0.15294330000E+03 0.  0.
<mgrwt>
<rscale>  0 0.93237443E+03</rscale>
<asrwt>0</asrwt>
<pdfrwt beam="1">  1        2 0.26062588E+00 0.93237443E+03</pdfrwt>
<pdfrwt beam="2">  1       -2 0.87928539E-01 0.93237443E+03</pdfrwt>
<totfact> 0.11077018E+01</totfact>
</mgrwt>
</event>
<event>
 4    1  0.1033139E-008  0.1572093E+04  0.7818608E-02  0.8837878E-01
          2   -1    0    0  501    0  0.00000000000E+00  0.00000000000E+00  0.15129656518E+04  0.15129656518E+04  0.25500000000E-02 0. -1.
         -2   -1    0    0    0  501 -0.00000000000E+00 -0.00000000000E+00 -0.20118621046E+04  0.20118621046E+04  0.25500000000E-02 0.  1.
    8880022    1    1    2    0    0 -0.13078728117E+04 -0.85880919019E+03 -0.10137148084E+04  0.18705865076E+04  0.15294330000E+03 0.  0.
    8880022    1    1    2    0    0  0.13078728117E+04  0.85880919019E+03  0.51481835570E+03  0.16542412488E+04  0.15294330000E+03 0.  0.
<mgrwt>
<rscale>  0 0.15720929E+04</rscale>
<asrwt>0</asrwt>
<pdfrwt beam="1">  1        2 0.23276395E+00 0.15720929E+04</pdfrwt>
<pdfrwt beam="2">  1       -2 0.30951724E+00 0.15720929E+04</pdfrwt>
<totfact> 0.32383748E-01</totfact>
</mgrwt>
</event>
<event>
 4    1  0.1033139E-008  0.1154286E+04  0.7818608E-02  0.9153839E-01
         -2   -1    0    0    0  501 -0.00000000000E+00  0.00000000000E+00  0.87781958114E+03  0.87781958115E+03  0.25500000000E-02 0.  1.
          2   -1    0    0  501    0  0.00000000000E+00 -0.00000000000E+00 -0.33398326701E+04  0.33398326701E+04  0.25500000000E-02 0. -1.
    8880022    1    1    2    0    0  0.19124790382E+03  0.11280106782E+04 -0.27885983562E+04  0.30180550519E+04  0.15294330000E+03 0.  0.
    8880022    1    1    2    0    0 -0.19124790382E+03 -0.11280106782E+04  0.32658526725E+03  0.11995971994E+04  0.15294330000E+03 0.  0.
<mgrwt>
<rscale>  0 0.11542857E+04</rscale>
<asrwt>0</asrwt>
<pdfrwt beam="1">  1        2 0.51382040E+00 0.11542857E+04</pdfrwt>
<pdfrwt beam="2">  1       -2 0.13504917E+00 0.11542857E+04</pdfrwt>
<totfact> 0.41271417E-01</totfact>
</mgrwt>
</event>
<event>
 4    1  0.1063423E-008  0.1172104E+04  0.7818608E-02  0.9137630E-01
         -2   -1    0    0    0  501 -0.00000000000E+00  0.00000000000E+00  0.18739342200E+04  0.18739342200E+04  0.25500000000E-02 0.  1.
          2   -1    0    0  501    0  0.00000000000E+00 -0.00000000000E+00 -0.15954585256E+04  0.15954585256E+04  0.25500000000E-02 0. -1.
    8880022    1    1    2    0    0 -0.70229675977E+03 -0.92585927599E+03  0.14145555193E+04  0.18370615417E+04  0.15294330000E+03 0.  0.
    8880022    1    1    2    0    0  0.70229675977E+03  0.92585927599E+03 -0.11360798249E+04  0.16323312039E+04  0.15294330000E+03 0.  0.
<mgrwt>
<rscale>  0 0.11721040E+04</rscale>
<asrwt>0</asrwt>
<pdfrwt beam="1">  1        2 0.24545516E+00 0.11721040E+04</pdfrwt>
<pdfrwt beam="2">  1       -2 0.28829757E+00 0.11721040E+04</pdfrwt>
<totfact> 0.41128568E-01</totfact>
</mgrwt>
</event>
<event>
 4    1  0.1033139E-008  0.6657702E+03  0.7818608E-02  0.9777629E-01
          2   -1    0    0  501    0  0.00000000000E+00  0.00000000000E+00  0.13823997105E+04  0.13823997105E+04  0.25500000000E-02 0. -1.
         -2   -1    0    0    0  501 -0.00000000000E+00 -0.00000000000E+00 -0.74187285434E+03  0.74187285435E+03  0.25500000000E-02 0.  1.
    8880022    1    1    2    0    0  0.64772052623E+03 -0.17788004419E+02  0.11206091514E+04  0.13034626256E+04  0.15294330000E+03 0.  0.
    8880022    1    1    2    0    0 -0.64772052623E+03  0.17788004419E+02 -0.48008229520E+03  0.82080993926E+03  0.15294330000E+03 0.  0.
<mgrwt>
<rscale>  0 0.66577019E+03</rscale>
<asrwt>0</asrwt>
<pdfrwt beam="1">  1        2 0.21267688E+00 0.66577019E+03</pdfrwt>
<pdfrwt beam="2">  1       -2 0.11413429E+00 0.66577019E+03</pdfrwt>
<totfact> 0.92080521E+00</totfact>
</mgrwt>
</event>
<event>
 4    1  0.1033139E-008  0.1728512E+03  0.7818608E-02  0.1174907E+00
          2   -1    0    0  501    0  0.00000000000E+00  0.00000000000E+00  0.17860996105E+04  0.17860996105E+04  0.25500000000E-02 0. -1.
         -2   -1    0    0    0  501 -0.00000000000E+00 -0.00000000000E+00 -0.29552520191E+03  0.29552520192E+03  0.25500000000E-02 0.  1.
    8880022    1    1    2    0    0  0.43323554580E+02  0.67889366730E+02 -0.26563921374E+03  0.31692545084E+03  0.15294330000E+03 0.  0.
    8880022    1    1    2    0    0 -0.43323554580E+02 -0.67889366730E+02  0.17562136224E+04  0.17646993616E+04  0.15294330000E+03 0. -1.
<mgrwt>
<rscale>  0 0.17285124E+03</rscale>
<asrwt>0</asrwt>
<pdfrwt beam="1">  1        2 0.27478455E+00 0.17285124E+03</pdfrwt>
<pdfrwt beam="2">  1       -2 0.45465416E-01 0.17285124E+03</pdfrwt>
<totfact> 0.47202791E+01</totfact>
</mgrwt>
</event>
<event>
 4    1  0.1033139E-008  0.5474883E+03  0.7818608E-02  0.1002077E+00
         -2   -1    0    0    0  501 -0.00000000000E+00  0.00000000000E+00  0.56515392911E+03  0.56515392911E+03  0.25500000000E-02 0.  1.
          2   -1    0    0  501    0  0.00000000000E+00 -0.00000000000E+00 -0.25981974596E+04  0.25981974596E+04  0.25500000000E-02 0. -1.
    8880022    1    1    2    0    0 -0.29440082316E+03  0.43552265564E+03 -0.24275574409E+04  0.24885294071E+04  0.15294330000E+03 0.  0.
    8880022    1    1    2    0    0  0.29440082316E+03 -0.43552265564E+03  0.39451391043E+03  0.67482198156E+03  0.15294330000E+03 0.  0.
<mgrwt>
<rscale>  0 0.54748834E+03</rscale>
<asrwt>0</asrwt>
<pdfrwt beam="1">  1        2 0.39972268E+00 0.54748834E+03</pdfrwt>
<pdfrwt beam="2">  1       -2 0.86946760E-01 0.54748834E+03</pdfrwt>
<totfact> 0.38450553E+00</totfact>
</mgrwt>
</event>
<event>
 4    1  0.1033139E-008  0.2906821E+03  0.7818608E-02  0.1089994E+00
          2   -1    0    0  501    0  0.00000000000E+00  0.00000000000E+00  0.64863333958E+03  0.64863333959E+03  0.25500000000E-02 0. -1.
         -2   -1    0    0    0  501 -0.00000000000E+00 -0.00000000000E+00 -0.23640446784E+03  0.23640446785E+03  0.25500000000E-02 0.  1.
    8880022    1    1    2    0    0  0.12527473707E+03 -0.21309777716E+03 -0.90393686547E+02  0.30441270335E+03  0.15294330000E+03 0.  1.
    8880022    1    1    2    0    0 -0.12527473707E+03  0.21309777716E+03  0.50262255829E+03  0.58062510409E+03  0.15294330000E+03 0.  0.
<mgrwt>
<rscale>  0 0.29068209E+03</rscale>
<asrwt>0</asrwt>
<pdfrwt beam="1">  1        2 0.99789745E-01 0.29068209E+03</pdfrwt>
<pdfrwt beam="2">  1       -2 0.36369918E-01 0.29068209E+03</pdfrwt>
<totfact> 0.33067667E+02</totfact>
</mgrwt>
</event>
<event>
 4    1  0.1033139E-008  0.4984317E+03  0.7818608E-02  0.1014189E+00
         -2   -1    0    0    0  501 -0.00000000000E+00  0.00000000000E+00  0.45806228067E+03  0.45806228068E+03  0.25500000000E-02 0.  1.
          2   -1    0    0  501    0  0.00000000000E+00 -0.00000000000E+00 -0.11874266339E+04  0.11874266339E+04  0.25500000000E-02 0. -1.
    8880022    1    1    2    0    0  0.38253603315E+03 -0.28055060994E+03  0.24172490093E+03  0.55395400724E+03  0.15294330000E+03 0.  0.
    8880022    1    1    2    0    0 -0.38253603315E+03  0.28055060994E+03 -0.97108925418E+03  0.10915349074E+04  0.15294330000E+03 0. -1.
<mgrwt>
<rscale>  0 0.49843165E+03</rscale>
<asrwt>0</asrwt>
<pdfrwt beam="1">  1        2 0.18268102E+00 0.49843165E+03</pdfrwt>
<pdfrwt beam="2">  1       -2 0.70471121E-01 0.49843165E+03</pdfrwt>
<totfact> 0.37070620E+01</totfact>
</mgrwt>
</event>
<event>
 4    1  0.1033139E-008  0.7496054E+03  0.7818608E-02  0.9635970E-01
          2   -1    0    0  501    0  0.00000000000E+00  0.00000000000E+00  0.15771480232E+04  0.15771480232E+04  0.25500000000E-02 0. -1.
         -2   -1    0    0    0  501 -0.00000000000E+00 -0.00000000000E+00 -0.14093388949E+04  0.14093388949E+04  0.25500000000E-02 0.  1.
    8880022    1    1    2    0    0  0.58712732350E+03 -0.44022511088E+03  0.13746748865E+04  0.15657711642E+04  0.15294330000E+03 0.  0.
    8880022    1    1    2    0    0 -0.58712732350E+03  0.44022511088E+03 -0.12068657581E+04  0.14207157539E+04  0.15294330000E+03 0.  0.
<mgrwt>
<rscale>  0 0.74960543E+03</rscale>
<asrwt>0</asrwt>
<pdfrwt beam="1">  1        2 0.24263816E+00 0.74960543E+03</pdfrwt>
<pdfrwt beam="2">  1       -2 0.21682137E+00 0.74960543E+03</pdfrwt>
<totfact> 0.12331987E+00</totfact>
</mgrwt>
</event>
<event>
 4    1  0.1033139E-008  0.2984487E+03  0.7818608E-02  0.1086019E+00
          2   -1    0    0  501    0  0.00000000000E+00  0.00000000000E+00  0.39484469110E+04  0.39484469110E+04  0.25500000000E-02 0. -1.
         -2   -1    0    0    0  501 -0.00000000000E+00 -0.00000000000E+00 -0.10499082167E+03  0.10499082171E+03  0.25500000000E-02 0.  1.
    8880022    1    1    2    0    0 -0.99411628199E+02  0.23621457192E+03  0.37175620975E+04  0.37295227037E+04  0.15294330000E+03 0.  0.
    8880022    1    1    2    0    0  0.99411628199E+02 -0.23621457192E+03  0.12589399182E+03  0.32391502898E+03  0.15294330000E+03 0.  0.
<mgrwt>
<rscale>  0 0.29844874E+03</rscale>
<asrwt>0</asrwt>
<pdfrwt beam="1">  1        2 0.60745336E+00 0.29844874E+03</pdfrwt>
<pdfrwt beam="2">  1       -2 0.16152434E-01 0.29844874E+03</pdfrwt>
<totfact> 0.14674051E+01</totfact>
</mgrwt>
</event>
<event>
 4    1  0.1033139E-008  0.5032131E+03  0.7818608E-02  0.1012944E+00
          2   -1    0    0  501    0  0.00000000000E+00  0.00000000000E+00  0.11099659084E+04  0.11099659084E+04  0.25500000000E-02 0. -1.
         -2   -1    0    0    0  501 -0.00000000000E+00 -0.00000000000E+00 -0.26083376964E+03  0.26083376965E+03  0.25500000000E-02 0.  1.
    8880022    1    1    2    0    0  0.19270444429E+03  0.43897241281E+03  0.18189408429E+03  0.53507839890E+03  0.15294330000E+03 0.  0.
    8880022    1    1    2    0    0 -0.19270444429E+03 -0.43897241281E+03  0.66723805443E+03  0.83572127911E+03  0.15294330000E+03 0.  0.
<mgrwt>
<rscale>  0 0.50321311E+03</rscale>
<asrwt>0</asrwt>
<pdfrwt beam="1">  1        2 0.17076399E+00 0.50321311E+03</pdfrwt>
<pdfrwt beam="2">  1       -2 0.40128272E-01 0.50321311E+03</pdfrwt>
<totfact> 0.13068535E+02</totfact>
</mgrwt>
</event>
<event>
 4    1  0.1033139E-008  0.1112291E+04  0.7818608E-02  0.9193294E-01
         -2   -1    0    0    0  501 -0.00000000000E+00  0.00000000000E+00  0.96480531552E+03  0.96480531552E+03  0.25500000000E-02 0.  1.
          2   -1    0    0  501    0  0.00000000000E+00 -0.00000000000E+00 -0.18946502871E+04  0.18946502871E+04  0.25500000000E-02 0. -1.
    8880022    1    1    2    0    0  0.20154467998E+03 -0.10831344318E+04 -0.12777167237E+04  0.16940342778E+04  0.15294330000E+03 0.  0.
    8880022    1    1    2    0    0 -0.20154467998E+03  0.10831344318E+04  0.34787175214E+03  0.11654213248E+04  0.15294330000E+03 0.  0.
<mgrwt>
<rscale>  0 0.11122914E+04</rscale>
<asrwt>0</asrwt>
<pdfrwt beam="1">  1        2 0.29148466E+00 0.11122914E+04</pdfrwt>
<pdfrwt beam="2">  1       -2 0.14843159E+00 0.11122914E+04</pdfrwt>
<totfact> 0.23145157E+00</totfact>
</mgrwt>
</event>
<event>
 4    1  0.1033139E-008  0.6146876E+03  0.7818608E-02  0.9875394E-01
         -2   -1    0    0    0  501 -0.00000000000E+00  0.00000000000E+00  0.95782729217E+03  0.95782729217E+03  0.25500000000E-02 0.  1.
          2   -1    0    0  501    0  0.00000000000E+00 -0.00000000000E+00 -0.51718304759E+03  0.51718304760E+03  0.25500000000E-02 0. -1.
    8880022    1    1    2    0    0 -0.57505715450E+03  0.15413770971E+03  0.57955489293E+03  0.84482228393E+03  0.15294330000E+03 0.  0.
    8880022    1    1    2    0    0  0.57505715450E+03 -0.15413770971E+03 -0.13891064835E+03  0.63018805585E+03  0.15294330000E+03 0.  0.
<mgrwt>
<rscale>  0 0.61468758E+03</rscale>
<asrwt>0</asrwt>
<pdfrwt beam="1">  1        2 0.79566623E-01 0.61468758E+03</pdfrwt>
<pdfrwt beam="2">  1       -2 0.14735804E+00 0.61468758E+03</pdfrwt>
<totfact> 0.19094447E+01</totfact>
</mgrwt>
</event>
<event>
 4    1  0.1033139E-008  0.6320984E+03  0.7818608E-02  0.9840963E-01
         -2   -1    0    0    0  501 -0.00000000000E+00  0.00000000000E+00  0.57771000480E+03  0.57771000480E+03  0.25500000000E-02 0.  1.
          2   -1    0    0  501    0  0.00000000000E+00 -0.00000000000E+00 -0.10270606218E+04  0.10270606218E+04  0.25500000000E-02 0. -1.
    8880022    1    1    2    0    0  0.23015002997E+03  0.56849594499E+03  0.23388992293E+03  0.67398280752E+03  0.15294330000E+03 0.  0.
    8880022    1    1    2    0    0 -0.23015002997E+03 -0.56849594499E+03 -0.68324053996E+03  0.93078781912E+03  0.15294330000E+03 0.  0.
<mgrwt>
<rscale>  0 0.63209835E+03</rscale>
<asrwt>0</asrwt>
<pdfrwt beam="1">  1        2 0.15800933E+00 0.63209835E+03</pdfrwt>
<pdfrwt beam="2">  1       -2 0.88878462E-01 0.63209835E+03</pdfrwt>
<totfact> 0.27111556E+01</totfact>
</mgrwt>
</event>
<event>
 4    1  0.1033139E-008  0.1002703E+04  0.7818608E-02  0.9305585E-01
         -2   -1    0    0    0  501 -0.00000000000E+00  0.00000000000E+00  0.10519979597E+04  0.10519979597E+04  0.25500000000E-02 0.  1.
          2   -1    0    0  501    0  0.00000000000E+00 -0.00000000000E+00 -0.15968296920E+04  0.15968296920E+04  0.25500000000E-02 0. -1.
    8880022    1    1    2    0    0 -0.89873463413E+03  0.41748967752E+03 -0.11116078100E+04  0.14970254339E+04  0.15294330000E+03 0.  0.
    8880022    1    1    2    0    0  0.89873463413E+03 -0.41748967752E+03  0.56677607778E+03  0.11518022177E+04  0.15294330000E+03 0.  0.
<mgrwt>
<rscale>  0 0.10027030E+04</rscale>
<asrwt>0</asrwt>
<pdfrwt beam="1">  1        2 0.24566611E+00 0.10027030E+04</pdfrwt>
<pdfrwt beam="2">  1       -2 0.16184584E+00 0.10027030E+04</pdfrwt>
<totfact> 0.27142962E+00</totfact>
</mgrwt>
</event>
<event>
 4    1  0.1033139E-008  0.2377881E+04  0.7818608E-02  0.8447831E-01
          2   -1    0    0  501    0  0.00000000000E+00  0.00000000000E+00  0.23618845780E+04  0.23618845780E+04  0.25500000000E-02 0. -1.
         -2   -1    0    0    0  501 -0.00000000000E+00 -0.00000000000E+00 -0.32072142855E+04  0.32072142855E+04  0.25500000000E-02 0.  1.
    8880022    1    1    2    0    0 -0.87196010236E+03  0.22069460438E+04  0.97949449891E+03  0.25717166226E+04  0.15294330000E+03 0.  0.
    8880022    1    1    2    0    0  0.87196010236E+03 -0.22069460438E+04 -0.18248242064E+04  0.29973822409E+04  0.15294330000E+03 0.  0.
<mgrwt>
<rscale>  0 0.23778808E+04</rscale>
<asrwt>0</asrwt>
<pdfrwt beam="1">  1        2 0.36336686E+00 0.23778808E+04</pdfrwt>
<pdfrwt beam="2">  1       -2 0.49341758E+00 0.23778808E+04</pdfrwt>
<totfact> 0.63785320E-03</totfact>
</mgrwt>
</event>
<event>
 4    1  0.1033139E-008  0.3075369E+03  0.7818608E-02  0.1081533E+00
          2   -1    0    0  501    0  0.00000000000E+00  0.00000000000E+00  0.22020703204E+04  0.22020703204E+04  0.25500000000E-02 0. -1.
         -2   -1    0    0    0  501 -0.00000000000E+00 -0.00000000000E+00 -0.11459221154E+03  0.11459221157E+03  0.25500000000E-02 0.  1.
    8880022    1    1    2    0    0 -0.24539591978E+02  0.26567862293E+03  0.12785679945E+03  0.33305605600E+03  0.15294330000E+03 0.  0.
    8880022    1    1    2    0    0  0.24539591978E+02 -0.26567862293E+03  0.19596213094E+04  0.19836064759E+04  0.15294330000E+03 0.  0.
<mgrwt>
<rscale>  0 0.30753695E+03</rscale>
<asrwt>0</asrwt>
<pdfrwt beam="1">  1        2 0.33878001E+00 0.30753695E+03</pdfrwt>
<pdfrwt beam="2">  1       -2 0.17629573E-01 0.30753695E+03</pdfrwt>
<totfact> 0.15094073E+02</totfact>
</mgrwt>
</event>
<event>
 4    1  0.1033139E-008  0.8168568E+03  0.7818608E-02  0.9535933E-01
         -2   -1    0    0    0  501 -0.00000000000E+00  0.00000000000E+00  0.55266677733E+03  0.55266677734E+03  0.25500000000E-02 0.  1.
          2   -1    0    0  501    0  0.00000000000E+00 -0.00000000000E+00 -0.22575597498E+04  0.22575597498E+04  0.25500000000E-02 0. -1.
    8880022    1    1    2    0    0  0.22693047439E+03 -0.76965315213E+03 -0.18108147207E+04  0.19865309009E+04  0.15294330000E+03 0.  0.
    8880022    1    1    2    0    0 -0.22693047439E+03  0.76965315213E+03  0.10592174824E+03  0.82369562616E+03  0.15294330000E+03 0.  0.
<mgrwt>
<rscale>  0 0.81685682E+03</rscale>
<asrwt>0</asrwt>
<pdfrwt beam="1">  1        2 0.34731688E+00 0.81685682E+03</pdfrwt>
<pdfrwt beam="2">  1       -2 0.85025659E-01 0.81685682E+03</pdfrwt>
<totfact> 0.59509871E+00</totfact>
</mgrwt>
</event>
<event>
 4    1  0.1033139E-008  0.1390705E+04  0.7818608E-02  0.8960574E-01
         -2   -1    0    0    0  501 -0.00000000000E+00  0.00000000000E+00  0.95989004267E+03  0.95989004267E+03  0.25500000000E-02 0.  1.
          2   -1    0    0  501    0  0.00000000000E+00 -0.00000000000E+00 -0.40860486740E+04  0.40860486740E+04  0.25500000000E-02 0. -1.
    8880022    1    1    2    0    0  0.13719637402E+04  0.16847546794E+03  0.23317689226E+03  0.14101175851E+04  0.15294330000E+03 0.  0.
    8880022    1    1    2    0    0 -0.13719637402E+04 -0.16847546794E+03 -0.33593355236E+04  0.36358211316E+04  0.15294330000E+03 0. -1.
<mgrwt>
<rscale>  0 0.13907049E+04</rscale>
<asrwt>0</asrwt>
<pdfrwt beam="1">  1        2 0.62862286E+00 0.13907049E+04</pdfrwt>
<pdfrwt beam="2">  1       -2 0.14767539E+00 0.13907049E+04</pdfrwt>
<totfact> 0.88861703E-02</totfact>
</mgrwt>
</event>
<event>
 4    1  0.1033139E-008  0.6595695E+03  0.7818608E-02  0.9788987E-01
         -2   -1    0    0    0  501 -0.00000000000E+00  0.00000000000E+00  0.13034153942E+04  0.13034153942E+04  0.25500000000E-02 0.  1.
          2   -1    0    0  501    0  0.00000000000E+00 -0.00000000000E+00 -0.40770597172E+03  0.40770597173E+03  0.25500000000E-02 0. -1.
    8880022    1    1    2    0    0  0.37936769956E+03 -0.51741710115E+03  0.83499116823E+02  0.66483386162E+03  0.15294330000E+03 0.  0.
    8880022    1    1    2    0    0 -0.37936769956E+03  0.51741710115E+03  0.81221030563E+03  0.10462875043E+04  0.15294330000E+03 0.  0.
<mgrwt>
<rscale>  0 0.65956953E+03</rscale>
<asrwt>0</asrwt>
<pdfrwt beam="1">  1        2 0.62723996E-01 0.65956953E+03</pdfrwt>
<pdfrwt beam="2">  1       -2 0.20052544E+00 0.65956953E+03</pdfrwt>
<totfact> 0.10564248E+01</totfact>
</mgrwt>
</event>
<event>
 4    1  0.1033139E-008  0.1752115E+03  0.7818608E-02  0.1172520E+00
         -2   -1    0    0    0  501 -0.00000000000E+00  0.00000000000E+00  0.33826327790E+03  0.33826327791E+03  0.25500000000E-02 0.  1.
          2   -1    0    0  501    0  0.00000000000E+00 -0.00000000000E+00 -0.20121362726E+04  0.20121362726E+04  0.25500000000E-02 0. -1.
    8880022    1    1    2    0    0 -0.13247897052E+02  0.84450556311E+02  0.31145452991E+03  0.35735553788E+03  0.15294330000E+03 0.  1.
    8880022    1    1    2    0    0  0.13247897052E+02 -0.84450556311E+02 -0.19853275246E+04  0.19930440126E+04  0.15294330000E+03 0.  0.
<mgrwt>
<rscale>  0 0.17521146E+03</rscale>
<asrwt>0</asrwt>
<pdfrwt beam="1">  1        2 0.30955942E+00 0.17521146E+03</pdfrwt>
<pdfrwt beam="2">  1       -2 0.52040505E-01 0.17521146E+03</pdfrwt>
<totfact> 0.27590062E+01</totfact>
</mgrwt>
</event>
<event>
 4    1  0.1033139E-008  0.1124205E+04  0.7818608E-02  0.9181916E-01
         -2   -1    0    0    0  501 -0.00000000000E+00  0.00000000000E+00  0.45492296088E+03  0.45492296089E+03  0.25500000000E-02 0.  1.
          2   -1    0    0  501    0  0.00000000000E+00 -0.00000000000E+00 -0.31738011140E+04  0.31738011140E+04  0.25500000000E-02 0. -1.
    8880022    1    1    2    0    0  0.95174043347E+03  0.57847730155E+03 -0.20000560060E+04  0.22943542711E+04  0.15294330000E+03 0.  0.
    8880022    1    1    2    0    0 -0.95174043347E+03 -0.57847730155E+03 -0.71882214713E+03  0.13343698038E+04  0.15294330000E+03 0.  0.
<mgrwt>
<rscale>  0 0.11242053E+04</rscale>
<asrwt>0</asrwt>
<pdfrwt beam="1">  1        2 0.48827708E+00 0.11242053E+04</pdfrwt>
<pdfrwt beam="2">  1       -2 0.69988150E-01 0.11242053E+04</pdfrwt>
<totfact> 0.25287441E+00</totfact>
</mgrwt>
</event>
<event>
 4    1  0.1033139E-008  0.5097907E+03  0.7818608E-02  0.1011255E+00
          2   -1    0    0  501    0  0.00000000000E+00  0.00000000000E+00  0.28742425488E+04  0.28742425488E+04  0.25500000000E-02 0. -1.
         -2   -1    0    0    0  501 -0.00000000000E+00 -0.00000000000E+00 -0.18385886892E+03  0.18385886893E+03  0.25500000000E-02 0.  1.
    8880022    1    1    2    0    0 -0.43522752723E+03 -0.21696068100E+03  0.25514454888E+03  0.57007484719E+03  0.15294330000E+03 0.  0.
    8880022    1    1    2    0    0  0.43522752723E+03  0.21696068100E+03  0.24352391310E+04  0.24880265706E+04  0.15294330000E+03 0.  0.
<mgrwt>
<rscale>  0 0.50979073E+03</rscale>
<asrwt>0</asrwt>
<pdfrwt beam="1">  1        2 0.44219115E+00 0.50979073E+03</pdfrwt>
<pdfrwt beam="2">  1       -2 0.28285980E-01 0.50979073E+03</pdfrwt>
<totfact> 0.26301588E+01</totfact>
</mgrwt>
</event>
<event>
 4    1  0.1033139E-008  0.5794145E+03  0.7818608E-02  0.9949059E-01
         -2   -1    0    0    0  501 -0.00000000000E+00  0.00000000000E+00  0.28962978432E+03  0.28962978433E+03  0.25500000000E-02 0.  1.
          2   -1    0    0  501    0  0.00000000000E+00 -0.00000000000E+00 -0.22285718307E+04  0.22285718307E+04  0.25500000000E-02 0. -1.
    8880022    1    1    2    0    0  0.54930409190E+03 -0.10292978247E+03 -0.97255241615E+02  0.58752000862E+03  0.15294330000E+03 0.  0.
    8880022    1    1    2    0    0 -0.54930409190E+03  0.10292978247E+03 -0.18416868047E+04  0.19306816064E+04  0.15294330000E+03 0.  0.
<mgrwt>
<rscale>  0 0.57941451E+03</rscale>
<asrwt>0</asrwt>
<pdfrwt beam="1">  1        2 0.34285719E+00 0.57941451E+03</pdfrwt>
<pdfrwt beam="2">  1       -2 0.44558430E-01 0.57941451E+03</pdfrwt>
<totfact> 0.25362706E+01</totfact>
</mgrwt>
</event>
<event>
 4    1  0.1033139E-008  0.1481947E+04  0.7818608E-02  0.8896547E-01
         -2   -1    0    0    0  501 -0.00000000000E+00  0.00000000000E+00  0.11307075930E+04  0.11307075930E+04  0.25500000000E-02 0.  1.
          2   -1    0    0  501    0  0.00000000000E+00 -0.00000000000E+00 -0.29876007951E+04  0.29876007951E+04  0.25500000000E-02 0. -1.
    8880022    1    1    2    0    0 -0.59746984428E+03  0.13475182270E+04  0.28955918104E+03  0.15099707810E+04  0.15294330000E+03 0.  0.
    8880022    1    1    2    0    0  0.59746984428E+03 -0.13475182270E+04 -0.21464523831E+04  0.26083376072E+04  0.15294330000E+03 0.  0.
<mgrwt>
<rscale>  0 0.14819471E+04</rscale>
<asrwt>0</asrwt>
<pdfrwt beam="1">  1        2 0.45963089E+00 0.14819471E+04</pdfrwt>
<pdfrwt beam="2">  1       -2 0.17395502E+00 0.14819471E+04</pdfrwt>
<totfact> 0.33536589E-01</totfact>
</mgrwt>
</event>
<event>
 4    1  0.1033139E-008  0.2129000E+03  0.7818608E-02  0.1139290E+00
         -2   -1    0    0    0  501 -0.00000000000E+00  0.00000000000E+00  0.42639545318E+03  0.42639545319E+03  0.25500000000E-02 0.  1.
          2   -1    0    0  501    0  0.00000000000E+00 -0.00000000000E+00 -0.34042810031E+04  0.34042810031E+04  0.25500000000E-02 0. -1.
    8880022    1    1    2    0    0 -0.46249952287E+02 -0.14069717793E+03 -0.33741398747E+04  0.33808499376E+04  0.15294330000E+03 0. -1.
    8880022    1    1    2    0    0  0.46249952287E+02  0.14069717793E+03  0.39625432477E+03  0.44982651864E+03  0.15294330000E+03 0.  0.
<mgrwt>
<rscale>  0 0.21289999E+03</rscale>
<asrwt>0</asrwt>
<pdfrwt beam="1">  1        2 0.52373552E+00 0.21289999E+03</pdfrwt>
<pdfrwt beam="2">  1       -2 0.65599303E-01 0.21289999E+03</pdfrwt>
<totfact> 0.27285706E+00</totfact>
</mgrwt>
</event>
<event>
 4    1  0.1033139E-008  0.8591326E+03  0.7818608E-02  0.9478161E-01
         -2   -1    0    0    0  501 -0.00000000000E+00  0.00000000000E+00  0.96523894745E+03  0.96523894746E+03  0.25500000000E-02 0.  1.
          2   -1    0    0  501    0  0.00000000000E+00 -0.00000000000E+00 -0.99632214976E+03  0.99632214977E+03  0.25500000000E-02 0. -1.
    8880022    1    1    2    0    0 -0.78843153665E+03  0.30511125932E+03 -0.48844357495E+03  0.98827422686E+03  0.15294330000E+03 0.  0.
    8880022    1    1    2    0    0  0.78843153665E+03 -0.30511125932E+03  0.45736037264E+03  0.97328687037E+03  0.15294330000E+03 0.  0.
<mgrwt>
<rscale>  0 0.85913260E+03</rscale>
<asrwt>0</asrwt>
<pdfrwt beam="1">  1        2 0.15328033E+00 0.85913260E+03</pdfrwt>
<pdfrwt beam="2">  1       -2 0.14849830E+00 0.85913260E+03</pdfrwt>
<totfact> 0.78355747E+00</totfact>
</mgrwt>
</event>
<event>
 4    1  0.1033139E-008  0.1479027E+04  0.7818608E-02  0.8898521E-01
          2   -1    0    0  501    0  0.00000000000E+00  0.00000000000E+00  0.21913582839E+04  0.21913582839E+04  0.25500000000E-02 0. -1.
         -2   -1    0    0    0  501 -0.00000000000E+00 -0.00000000000E+00 -0.10480700699E+04  0.10480700699E+04  0.25500000000E-02 0.  1.
    8880022    1    1    2    0    0  0.60158762821E+03  0.13424687586E+04  0.21850257665E+03  0.14950802893E+04  0.15294330000E+03 0.  0.
    8880022    1    1    2    0    0 -0.60158762821E+03 -0.13424687586E+04  0.92478563732E+03  0.17443480646E+04  0.15294330000E+03 0.  0.
<mgrwt>
<rscale>  0 0.14790273E+04</rscale>
<asrwt>0</asrwt>
<pdfrwt beam="1">  1        2 0.33713204E+00 0.14790273E+04</pdfrwt>
<pdfrwt beam="2">  1       -2 0.16124155E+00 0.14790273E+04</pdfrwt>
<totfact> 0.12168232E+00</totfact>
</mgrwt>
</event>
<event>
 4    1  0.1033139E-008  0.1314211E+04  0.7818608E-02  0.9018371E-01
          2   -1    0    0  501    0  0.00000000000E+00  0.00000000000E+00  0.40344898435E+04  0.40344898435E+04  0.25500000000E-02 0. -1.
         -2   -1    0    0    0  501 -0.00000000000E+00 -0.00000000000E+00 -0.93940412139E+03  0.93940412140E+03  0.25500000000E-02 0.  1.
    8880022    1    1    2    0    0  0.10303906785E+04 -0.80128317322E+03  0.33823118582E+04  0.36286615760E+04  0.15294330000E+03 0.  0.
    8880022    1    1    2    0    0 -0.10303906785E+04  0.80128317322E+03 -0.28722613604E+03  0.13452323889E+04  0.15294330000E+03 0.  0.
<mgrwt>
<rscale>  0 0.13142113E+04</rscale>
<asrwt>0</asrwt>
<pdfrwt beam="1">  1        2 0.62069074E+00 0.13142113E+04</pdfrwt>
<pdfrwt beam="2">  1       -2 0.14452371E+00 0.13142113E+04</pdfrwt>
<totfact> 0.10492003E-01</totfact>
</mgrwt>
</event>
<event>
 4    1  0.1033139E-008  0.9512753E+03  0.7818608E-02  0.9363661E-01
          2   -1    0    0  501    0  0.00000000000E+00  0.00000000000E+00  0.43257933083E+04  0.43257933083E+04  0.25500000000E-02 0. -1.
         -2   -1    0    0    0  501 -0.00000000000E+00 -0.00000000000E+00 -0.31418436438E+03  0.31418436439E+03  0.25500000000E-02 0.  1.
    8880022    1    1    2    0    0 -0.51682463060E+03  0.78385287224E+03  0.66467446404E+03  0.11604812882E+04  0.15294330000E+03 0.  0.
    8880022    1    1    2    0    0  0.51682463060E+03 -0.78385287224E+03  0.33469344799E+04  0.34794963845E+04  0.15294330000E+03 0.  0.
<mgrwt>
<rscale>  0 0.95127529E+03</rscale>
<asrwt>0</asrwt>
<pdfrwt beam="1">  1        2 0.66550666E+00 0.95127529E+03</pdfrwt>
<pdfrwt beam="2">  1       -2 0.48336056E-01 0.95127529E+03</pdfrwt>
<totfact> 0.78616711E-01</totfact>
</mgrwt>
</event>
<event>
 4    1  0.1033139E-008  0.7916651E+03  0.7818608E-02  0.9572161E-01
          2   -1    0    0  501    0  0.00000000000E+00  0.00000000000E+00  0.21545790632E+04  0.21545790632E+04  0.25500000000E-02 0. -1.
         -2   -1    0    0    0  501 -0.00000000000E+00 -0.00000000000E+00 -0.51216748032E+03  0.51216748032E+03  0.25500000000E-02 0.  1.
    8880022    1    1    2    0    0  0.74181254567E+03  0.23033909674E+03 -0.55229330947E+02  0.79358924161E+03  0.15294330000E+03 0.  0.
    8880022    1    1    2    0    0 -0.74181254567E+03 -0.23033909674E+03  0.16976409139E+04  0.18731573019E+04  0.15294330000E+03 0.  0.
<mgrwt>
<rscale>  0 0.79166508E+03</rscale>
<asrwt>0</asrwt>
<pdfrwt beam="1">  1        2 0.33147370E+00 0.79166508E+03</pdfrwt>
<pdfrwt beam="2">  1       -2 0.78794997E-01 0.79166508E+03</pdfrwt>
<totfact> 0.80898567E+00</totfact>
</mgrwt>
</event>
<event>
 4    1  0.1033139E-008  0.6964748E+03  0.7818608E-02  0.9723280E-01
          2   -1    0    0  501    0  0.00000000000E+00  0.00000000000E+00  0.13731913190E+04  0.13731913190E+04  0.25500000000E-02 0. -1.
         -2   -1    0    0    0  501 -0.00000000000E+00 -0.00000000000E+00 -0.61460557811E+03  0.61460557812E+03  0.25500000000E-02 0.  1.
    8880022    1    1    2    0    0  0.28172757544E+03  0.61831633159E+03  0.10274215881E+04  0.12412382065E+04  0.15294330000E+03 0.  0.
    8880022    1    1    2    0    0 -0.28172757544E+03 -0.61831633159E+03 -0.26883584723E+03  0.74655869056E+03  0.15294330000E+03 0.  0.
<mgrwt>
<rscale>  0 0.69647481E+03</rscale>
<asrwt>0</asrwt>
<pdfrwt beam="1">  1        2 0.21126020E+00 0.69647481E+03</pdfrwt>
<pdfrwt beam="2">  1       -2 0.94554705E-01 0.69647481E+03</pdfrwt>
<totfact> 0.14540159E+01</totfact>
</mgrwt>
</event>
<event>
 4    1  0.1033139E-008  0.1524716E+04  0.7818608E-02  0.8868181E-01
          2   -1    0    0  501    0  0.00000000000E+00  0.00000000000E+00  0.25301587479E+04  0.25301587479E+04  0.25500000000E-02 0. -1.
         -2   -1    0    0    0  501 -0.00000000000E+00 -0.00000000000E+00 -0.10327667822E+04  0.10327667822E+04  0.25500000000E-02 0.  1.
    8880022    1    1    2    0    0  0.41348547710E+03 -0.14595883085E+04  0.15696125687E+03  0.15327742036E+04  0.15294330000E+03 0.  0.
    8880022    1    1    2    0    0 -0.41348547710E+03  0.14595883085E+04  0.13404307088E+04  0.20301513265E+04  0.15294330000E+03 0.  0.
<mgrwt>
<rscale>  0 0.15247163E+04</rscale>
<asrwt>0</asrwt>
<pdfrwt beam="1">  1        2 0.38925519E+00 0.15247163E+04</pdfrwt>
<pdfrwt beam="2">  1       -2 0.15888720E+00 0.15247163E+04</pdfrwt>
<totfact> 0.80799174E-01</totfact>
</mgrwt>
</event>
<event>
 4    1  0.1033139E-008  0.4670115E+03  0.7818608E-02  0.1022767E+00
         -2   -1    0    0    0  501 -0.00000000000E+00  0.00000000000E+00  0.27419170592E+03  0.27419170594E+03  0.25500000000E-02 0.  1.
          2   -1    0    0  501    0  0.00000000000E+00 -0.00000000000E+00 -0.12933045702E+04  0.12933045702E+04  0.25500000000E-02 0. -1.
    8880022    1    1    2    0    0 -0.29235729016E+03 -0.33050760557E+03 -0.23275733721E+02  0.46759114111E+03  0.15294330000E+03 0.  0.
    8880022    1    1    2    0    0  0.29235729016E+03  0.33050760557E+03 -0.99583713056E+03  0.10999051350E+04  0.15294330000E+03 0.  0.
<mgrwt>
<rscale>  0 0.46701147E+03</rscale>
<asrwt>0</asrwt>
<pdfrwt beam="1">  1        2 0.19896993E+00 0.46701147E+03</pdfrwt>
<pdfrwt beam="2">  1       -2 0.42183340E-01 0.46701147E+03</pdfrwt>
<totfact> 0.93106021E+01</totfact>
</mgrwt>
</event>
<event>
 4    1  0.1033139E-008  0.7928607E+03  0.7818608E-02  0.9570409E-01
          2   -1    0    0  501    0  0.00000000000E+00  0.00000000000E+00  0.42361070659E+03  0.42361070660E+03  0.25500000000E-02 0. -1.
         -2   -1    0    0    0  501 -0.00000000000E+00 -0.00000000000E+00 -0.21345952932E+04  0.21345952932E+04  0.25500000000E-02 0.  1.
    8880022    1    1    2    0    0 -0.48726743451E+03 -0.60647084331E+03 -0.15616655038E+04  0.17514072157E+04  0.15294330000E+03 0.  0.
    8880022    1    1    2    0    0  0.48726743451E+03  0.60647084331E+03 -0.14931908285E+03  0.80679878411E+03  0.15294330000E+03 0.  0.
<mgrwt>
<rscale>  0 0.79286070E+03</rscale>
<asrwt>0</asrwt>
<pdfrwt beam="1">  1        2 0.65170879E-01 0.79286070E+03</pdfrwt>
<pdfrwt beam="2">  1       -2 0.32839927E+00 0.79286070E+03</pdfrwt>
<totfact> 0.16477663E+00</totfact>
</mgrwt>
</event>
<event>
 4    1  0.1033139E-008  0.7155819E+03  0.7818608E-02  0.9690950E-01
          2   -1    0    0  501    0  0.00000000000E+00  0.00000000000E+00  0.19427958570E+04  0.19427958570E+04  0.25500000000E-02 0. -1.
         -2   -1    0    0    0  501 -0.00000000000E+00 -0.00000000000E+00 -0.40005078149E+03  0.40005078150E+03  0.25500000000E-02 0.  1.
    8880022    1    1    2    0    0  0.69498725782E+03 -0.75223562459E+02  0.14555933726E+04  0.16219770628E+04  0.15294330000E+03 0.  0.
    8880022    1    1    2    0    0 -0.69498725782E+03  0.75223562459E+02  0.87151702941E+02  0.72086957574E+03  0.15294330000E+03 0.  0.
<mgrwt>
<rscale>  0 0.71558195E+03</rscale>
<asrwt>0</asrwt>
<pdfrwt beam="1">  1        2 0.29889167E+00 0.71558195E+03</pdfrwt>
<pdfrwt beam="2">  1       -2 0.61546274E-01 0.71558195E+03</pdfrwt>
<totfact> 0.18311136E+01</totfact>
</mgrwt>
</event>
<event>
 4    1  0.1033139E-008  0.4871100E+03  0.7818608E-02  0.1017199E+00
         -2   -1    0    0    0  501 -0.00000000000E+00  0.00000000000E+00  0.94074939893E+03  0.94074939894E+03  0.25500000000E-02 0.  1.
          2   -1    0    0  501    0  0.00000000000E+00 -0.00000000000E+00 -0.22727857896E+04  0.22727857896E+04  0.25500000000E-02 0. -1.
    8880022    1    1    2    0    0  0.34253202015E+03  0.31073505944E+03  0.84897357912E+03  0.97879122036E+03  0.15294330000E+03 0.  0.
    8880022    1    1    2    0    0 -0.34253202015E+03 -0.31073505944E+03 -0.21810099698E+04  0.22347439682E+04  0.15294330000E+03 0.  0.
<mgrwt>
<rscale>  0 0.48710996E+03</rscale>
<asrwt>0</asrwt>
<pdfrwt beam="1">  1        2 0.34965935E+00 0.48710996E+03</pdfrwt>
<pdfrwt beam="2">  1       -2 0.14473068E+00 0.48710996E+03</pdfrwt>
<totfact> 0.17245949E+00</totfact>
</mgrwt>
</event>
<event>
 4    1  0.1033139E-008  0.1388117E+04  0.7818608E-02  0.8962465E-01
         -2   -1    0    0    0  501 -0.00000000000E+00  0.00000000000E+00  0.23254172698E+04  0.23254172698E+04  0.25500000000E-02 0.  1.
          2   -1    0    0  501    0  0.00000000000E+00 -0.00000000000E+00 -0.20902231424E+04  0.20902231424E+04  0.25500000000E-02 0. -1.
    8880022    1    1    2    0    0  0.13796546431E+04  0.55876076122E+01  0.18328574209E+04  0.22991816226E+04  0.15294330000E+03 0.  0.
    8880022    1    1    2    0    0 -0.13796546431E+04 -0.55876076122E+01 -0.15976632934E+04  0.21164587895E+04  0.15294330000E+03 0.  0.
<mgrwt>
<rscale>  0 0.13881174E+04</rscale>
<asrwt>0</asrwt>
<pdfrwt beam="1">  1        2 0.32157279E+00 0.13881174E+04</pdfrwt>
<pdfrwt beam="2">  1       -2 0.35775650E+00 0.13881174E+04</pdfrwt>
<totfact> 0.78894854E-02</totfact>
</mgrwt>
</event>
<event>
 4    1  0.1033139E-008  0.1212389E+04  0.7818608E-02  0.9102081E-01
          2   -1    0    0  501    0  0.00000000000E+00  0.00000000000E+00  0.14971553161E+04  0.14971553161E+04  0.25500000000E-02 0. -1.
         -2   -1    0    0    0  501 -0.00000000000E+00 -0.00000000000E+00 -0.14704105642E+04  0.14704105642E+04  0.25500000000E-02 0.  1.
    8880022    1    1    2    0    0  0.10444890735E+04  0.59626936540E+03 -0.84196742903E+03  0.14760743157E+04  0.15294330000E+03 0.  0.
    8880022    1    1    2    0    0 -0.10444890735E+04 -0.59626936540E+03  0.86871218097E+03  0.14914915646E+04  0.15294330000E+03 0.  0.
<mgrwt>
<rscale>  0 0.12123886E+04</rscale>
<asrwt>0</asrwt>
<pdfrwt beam="1">  1        2 0.23033159E+00 0.12123886E+04</pdfrwt>
<pdfrwt beam="2">  1       -2 0.22621701E+00 0.12123886E+04</pdfrwt>
<totfact> 0.11149933E+00</totfact>
</mgrwt>
</event>
<event>
 4    1  0.1033139E-008  0.9291737E+03  0.7818608E-02  0.9389830E-01
          2   -1    0    0  501    0  0.00000000000E+00  0.00000000000E+00  0.28072207844E+04  0.28072207844E+04  0.25500000000E-02 0. -1.
         -2   -1    0    0    0  501 -0.00000000000E+00 -0.00000000000E+00 -0.52866256594E+03  0.52866256594E+03  0.25500000000E-02 0.  1.
    8880022    1    1    2    0    0 -0.31838614028E+03 -0.85941975218E+03  0.60587595430E+02  0.93114690274E+03  0.15294330000E+03 0.  0.
    8880022    1    1    2    0    0  0.31838614028E+03  0.85941975218E+03  0.22179706230E+04  0.24047364476E+04  0.15294330000E+03 0.  0.
<mgrwt>
<rscale>  0 0.92917366E+03</rscale>
<asrwt>0</asrwt>
<pdfrwt beam="1">  1        2 0.43188013E+00 0.92917366E+03</pdfrwt>
<pdfrwt beam="2">  1       -2 0.81332701E-01 0.92917366E+03</pdfrwt>
<totfact> 0.31324305E+00</totfact>
</mgrwt>
</event>
<event>
 4    1  0.1033139E-008  0.4532921E+03  0.7818608E-02  0.1026745E+00
         -2   -1    0    0    0  501 -0.00000000000E+00  0.00000000000E+00  0.67485158660E+03  0.67485158661E+03  0.25500000000E-02 0.  1.
          2   -1    0    0  501    0  0.00000000000E+00 -0.00000000000E+00 -0.79021704260E+03  0.79021704261E+03  0.25500000000E-02 0. -1.
    8880022    1    1    2    0    0  0.19097480676E+03  0.38158968259E+03  0.51664365233E+03  0.68730952211E+03  0.15294330000E+03 0.  0.
    8880022    1    1    2    0    0 -0.19097480676E+03 -0.38158968259E+03 -0.63200910832E+03  0.77775910711E+03  0.15294330000E+03 0.  0.
<mgrwt>
<rscale>  0 0.45329209E+03</rscale>
<asrwt>0</asrwt>
<pdfrwt beam="1">  1        2 0.12157185E+00 0.45329209E+03</pdfrwt>
<pdfrwt beam="2">  1       -2 0.10382332E+00 0.45329209E+03</pdfrwt>
<totfact> 0.27756470E+01</totfact>
</mgrwt>
</event>
<event>
 4    1  0.1033139E-008  0.6177367E+03  0.7818608E-02  0.9869276E-01
         -2   -1    0    0    0  501 -0.00000000000E+00  0.00000000000E+00  0.67999733961E+03  0.67999733961E+03  0.25500000000E-02 0.  1.
          2   -1    0    0  501    0  0.00000000000E+00 -0.00000000000E+00 -0.10230555948E+04  0.10230555948E+04  0.25500000000E-02 0. -1.
    8880022    1    1    2    0    0  0.24255203479E+03 -0.54715216479E+03  0.40062444352E+03  0.73627344022E+03  0.15294330000E+03 0.  0.
    8880022    1    1    2    0    0 -0.24255203479E+03  0.54715216479E+03 -0.74368269871E+03  0.96677949419E+03  0.15294330000E+03 0.  0.
<mgrwt>
<rscale>  0 0.61773670E+03</rscale>
<asrwt>0</asrwt>
<pdfrwt beam="1">  1        2 0.15739317E+00 0.61773670E+03</pdfrwt>
<pdfrwt beam="2">  1       -2 0.10461498E+00 0.61773670E+03</pdfrwt>
<totfact> 0.18649418E+01</totfact>
</mgrwt>
</event>
<event>
 4    1  0.1033139E-008  0.7685439E+03  0.7818608E-02  0.9606699E-01
         -2   -1    0    0    0  501 -0.00000000000E+00  0.00000000000E+00  0.13433721866E+04  0.13433721866E+04  0.25500000000E-02 0.  1.
          2   -1    0    0  501    0  0.00000000000E+00 -0.00000000000E+00 -0.25630731855E+04  0.25630731855E+04  0.25500000000E-02 0. -1.
    8880022    1    1    2    0    0  0.74596842766E+03 -0.10391896589E+03  0.11679622775E+04  0.13981400435E+04  0.15294330000E+03 0.  0.
    8880022    1    1    2    0    0 -0.74596842766E+03  0.10391896589E+03 -0.23876632765E+04  0.25083053286E+04  0.15294330000E+03 0.  0.
<mgrwt>
<rscale>  0 0.76854388E+03</rscale>
<asrwt>0</asrwt>
<pdfrwt beam="1">  1        2 0.39431895E+00 0.76854388E+03</pdfrwt>
<pdfrwt beam="2">  1       -2 0.20667264E+00 0.76854388E+03</pdfrwt>
<totfact> 0.40674953E-01</totfact>
</mgrwt>
</event>
<event>
 4    1  0.1033139E-008  0.4812851E+03  0.7818608E-02  0.1018783E+00
          2   -1    0    0  501    0  0.00000000000E+00  0.00000000000E+00  0.26591229273E+04  0.26591229273E+04  0.25500000000E-02 0. -1.
         -2   -1    0    0    0  501 -0.00000000000E+00 -0.00000000000E+00 -0.28634359819E+03  0.28634359820E+03  0.25500000000E-02 0.  1.
    8880022    1    1    2    0    0 -0.44375415862E+03  0.10642352353E+03 -0.42073063485E+02  0.48312060124E+03  0.15294330000E+03 0.  1.
    8880022    1    1    2    0    0  0.44375415862E+03 -0.10642352353E+03  0.24148523926E+04  0.24623459242E+04  0.15294330000E+03 0.  0.
<mgrwt>
<rscale>  0 0.48128513E+03</rscale>
<asrwt>0</asrwt>
<pdfrwt beam="1">  1        2 0.40909585E+00 0.48128513E+03</pdfrwt>
<pdfrwt beam="2">  1       -2 0.44052860E-01 0.48128513E+03</pdfrwt>
<totfact> 0.15246117E+01</totfact>
</mgrwt>
</event>
<event>
 4    1  0.1033139E-008  0.7082740E+03  0.7818608E-02  0.9703186E-01
         -2   -1    0    0    0  501 -0.00000000000E+00  0.00000000000E+00  0.64672740629E+03  0.64672740629E+03  0.25500000000E-02 0.  1.
          2   -1    0    0  501    0  0.00000000000E+00 -0.00000000000E+00 -0.19530746303E+04  0.19530746303E+04  0.25500000000E-02 0. -1.
    8880022    1    1    2    0    0 -0.42645899488E+03 -0.54441993836E+03  0.35610791148E+03  0.79275774435E+03  0.15294330000E+03 0.  1.
    8880022    1    1    2    0    0  0.42645899488E+03  0.54441993836E+03 -0.16624551355E+04  0.18070442923E+04  0.15294330000E+03 0.  0.
<mgrwt>
<rscale>  0 0.70827396E+03</rscale>
<asrwt>0</asrwt>
<pdfrwt beam="1">  1        2 0.30047302E+00 0.70827396E+03</pdfrwt>
<pdfrwt beam="2">  1       -2 0.99496525E-01 0.70827396E+03</pdfrwt>
<totfact> 0.61793335E+00</totfact>
</mgrwt>
</event>
<event>
 4    1  0.1033139E-008  0.3102830E+03  0.7818608E-02  0.1080210E+00
          2   -1    0    0  501    0  0.00000000000E+00  0.00000000000E+00  0.19227298782E+04  0.19227298782E+04  0.25500000000E-02 0. -1.
         -2   -1    0    0    0  501 -0.00000000000E+00 -0.00000000000E+00 -0.14090524956E+03  0.14090524958E+03  0.25500000000E-02 0.  1.
    8880022    1    1    2    0    0 -0.26429435360E+03 -0.55067254083E+02  0.17193521454E+04  0.17471254565E+04  0.15294330000E+03 0.  0.
    8880022    1    1    2    0    0  0.26429435360E+03  0.55067254083E+02  0.62472483194E+02  0.31650967124E+03  0.15294330000E+03 0.  1.
<mgrwt>
<rscale>  0 0.31028303E+03</rscale>
<asrwt>0</asrwt>
<pdfrwt beam="1">  1        2 0.29580461E+00 0.31028303E+03</pdfrwt>
<pdfrwt beam="2">  1       -2 0.21677730E-01 0.31028303E+03</pdfrwt>
<totfact> 0.14881579E+02</totfact>
</mgrwt>
</event>
<event>
 4    1  0.1033139E-008  0.7166294E+03  0.7818608E-02  0.9689209E-01
          2   -1    0    0  501    0  0.00000000000E+00  0.00000000000E+00  0.11001779788E+04  0.11001779788E+04  0.25500000000E-02 0. -1.
         -2   -1    0    0    0  501 -0.00000000000E+00 -0.00000000000E+00 -0.10220178978E+04  0.10220178978E+04  0.25500000000E-02 0.  1.
    8880022    1    1    2    0    0  0.69070916349E+03  0.11439819263E+03  0.82117564371E+03  0.10899023745E+04  0.15294330000E+03 0.  0.
    8880022    1    1    2    0    0 -0.69070916349E+03 -0.11439819263E+03 -0.74301556269E+03  0.10322935021E+04  0.15294330000E+03 0.  0.
<mgrwt>
<rscale>  0 0.71662944E+03</rscale>
<asrwt>0</asrwt>
<pdfrwt beam="1">  1        2 0.16925815E+00 0.71662944E+03</pdfrwt>
<pdfrwt beam="2">  1       -2 0.15723352E+00 0.71662944E+03</pdfrwt>
<totfact> 0.58969185E+00</totfact>
</mgrwt>
</event>
<event>
 4    1  0.1033139E-008  0.4135883E+03  0.7818608E-02  0.1039174E+00
         -2   -1    0    0    0  501 -0.00000000000E+00  0.00000000000E+00  0.11052549840E+04  0.11052549840E+04  0.25500000000E-02 0.  1.
          2   -1    0    0  501    0  0.00000000000E+00 -0.00000000000E+00 -0.23133259982E+03  0.23133259984E+03  0.25500000000E-02 0. -1.
    8880022    1    1    2    0    0 -0.37449449948E+03  0.86124688710E+02  0.82143817911E+03  0.91968251438E+03  0.15294330000E+03 0.  0.
    8880022    1    1    2    0    0  0.37449449948E+03 -0.86124688710E+02  0.52484205072E+02  0.41690506946E+03  0.15294330000E+03 0.  0.
<mgrwt>
<rscale>  0 0.41358826E+03</rscale>
<asrwt>0</asrwt>
<pdfrwt beam="1">  1        2 0.35589630E-01 0.41358826E+03</pdfrwt>
<pdfrwt beam="2">  1       -2 0.17003923E+00 0.41358826E+03</pdfrwt>
<totfact> 0.32621445E+01</totfact>
</mgrwt>
</event>
<event>
 4    1  0.1033139E-008  0.7440347E+03  0.7818608E-02  0.9644756E-01
         -2   -1    0    0    0  501 -0.00000000000E+00  0.00000000000E+00  0.38797019863E+03  0.38797019864E+03  0.25500000000E-02 0.  1.
          2   -1    0    0  501    0  0.00000000000E+00 -0.00000000000E+00 -0.24088755352E+04  0.24088755352E+04  0.25500000000E-02 0. -1.
    8880022    1    1    2    0    0  0.72812593476E+03 -0.53537174387E+01 -0.11758797228E+03  0.75326929010E+03  0.15294330000E+03 0.  0.
    8880022    1    1    2    0    0 -0.72812593476E+03  0.53537174387E+01 -0.19033173643E+04  0.20435764438E+04  0.15294330000E+03 0.  0.
<mgrwt>
<rscale>  0 0.74403474E+03</rscale>
<asrwt>0</asrwt>
<pdfrwt beam="1">  1        2 0.37059623E+00 0.74403474E+03</pdfrwt>
<pdfrwt beam="2">  1       -2 0.59687724E-01 0.74403474E+03</pdfrwt>
<totfact> 0.10771124E+01</totfact>
</mgrwt>
</event>
<event>
 4    1  0.1033139E-008  0.1171213E+04  0.7818608E-02  0.9138434E-01
         -2   -1    0    0    0  501 -0.00000000000E+00  0.00000000000E+00  0.13571639233E+04  0.13571639233E+04  0.25500000000E-02 0.  1.
          2   -1    0    0  501    0  0.00000000000E+00 -0.00000000000E+00 -0.13629660075E+04  0.13629660075E+04  0.25500000000E-02 0. -1.
    8880022    1    1    2    0    0 -0.96131996153E+03 -0.65131510031E+03 -0.69429918184E+03  0.13615397296E+04  0.15294330000E+03 0.  0.
    8880022    1    1    2    0    0  0.96131996153E+03  0.65131510031E+03  0.68849709761E+03  0.13585902012E+04  0.15294330000E+03 0.  0.
<mgrwt>
<rscale>  0 0.11712127E+04</rscale>
<asrwt>0</asrwt>
<pdfrwt beam="1">  1        2 0.20968708E+00 0.11712127E+04</pdfrwt>
<pdfrwt beam="2">  1       -2 0.20879445E+00 0.11712127E+04</pdfrwt>
<totfact> 0.17246014E+00</totfact>
</mgrwt>
</event>
<event>
 4    1  0.1043964E-008  0.1132380E+04  0.7818608E-02  0.9174194E-01
         -2   -1    0    0    0  501 -0.00000000000E+00  0.00000000000E+00  0.15372031229E+04  0.15372031229E+04  0.25500000000E-02 0.  1.
          2   -1    0    0  501    0  0.00000000000E+00 -0.00000000000E+00 -0.27498242239E+04  0.27498242239E+04  0.25500000000E-02 0. -1.
    8880022    1    1    2    0    0  0.27764254458E+03  0.10871097215E+04 -0.23954024858E+04  0.26495731073E+04  0.15294330000E+03 0.  0.
    8880022    1    1    2    0    0 -0.27764254458E+03 -0.10871097215E+04  0.11827813848E+04  0.16374542395E+04  0.15294330000E+03 0.  0.
<mgrwt>
<rscale>  0 0.11323801E+04</rscale>
<asrwt>0</asrwt>
<pdfrwt beam="1">  1        2 0.42304988E+00 0.11323801E+04</pdfrwt>
<pdfrwt beam="2">  1       -2 0.23649279E+00 0.11323801E+04</pdfrwt>
<totfact> 0.19134004E-01</totfact>
</mgrwt>
</event>
<event>
 4    1  0.1033139E-008  0.1015069E+04  0.7818608E-02  0.9292170E-01
          2   -1    0    0  501    0  0.00000000000E+00  0.00000000000E+00  0.33918239968E+04  0.33918239968E+04  0.25500000000E-02 0. -1.
         -2   -1    0    0    0  501 -0.00000000000E+00 -0.00000000000E+00 -0.75326180152E+03  0.75326180152E+03  0.25500000000E-02 0.  1.
    8880022    1    1    2    0    0 -0.86385895596E+03  0.51060937228E+03  0.29202649685E+04  0.30916522065E+04  0.15294330000E+03 0.  0.
    8880022    1    1    2    0    0  0.86385895596E+03 -0.51060937228E+03 -0.28170277322E+03  0.10534335918E+04  0.15294330000E+03 0.  0.
<mgrwt>
<rscale>  0 0.10150694E+04</rscale>
<asrwt>0</asrwt>
<pdfrwt beam="1">  1        2 0.52181907E+00 0.10150694E+04</pdfrwt>
<pdfrwt beam="2">  1       -2 0.11588643E+00 0.10150694E+04</pdfrwt>
<totfact> 0.57348894E-01</totfact>
</mgrwt>
</event>
<event>
 4    1  0.1033139E-008  0.3189467E+03  0.7818608E-02  0.1076135E+00
         -2   -1    0    0    0  501 -0.00000000000E+00  0.00000000000E+00  0.18418308527E+04  0.18418308527E+04  0.25500000000E-02 0.  1.
          2   -1    0    0  501    0  0.00000000000E+00 -0.00000000000E+00 -0.21532207370E+03  0.21532207372E+03  0.25500000000E-02 0. -1.
    8880022    1    1    2    0    0 -0.53498695397E+02  0.27472395323E+03  0.17001555743E+04  0.17298138601E+04  0.15294330000E+03 0.  0.
    8880022    1    1    2    0    0  0.53498695397E+02 -0.27472395323E+03 -0.73646795249E+02  0.32733906634E+03  0.15294330000E+03 0. -1.
<mgrwt>
<rscale>  0 0.31894673E+03</rscale>
<asrwt>0</asrwt>
<pdfrwt beam="1">  1        2 0.33126471E-01 0.31894673E+03</pdfrwt>
<pdfrwt beam="2">  1       -2 0.28335861E+00 0.31894673E+03</pdfrwt>
<totfact> 0.71321597E+00</totfact>
</mgrwt>
</event>
<event>
 4    1  0.1033139E-008  0.3611164E+03  0.7818608E-02  0.1058143E+00
          2   -1    0    0  501    0  0.00000000000E+00  0.00000000000E+00  0.93454296601E+02  0.93454296636E+02  0.25500000000E-02 0. -1.
         -2   -1    0    0    0  501 -0.00000000000E+00 -0.00000000000E+00 -0.23985373142E+04  0.23985373142E+04  0.25500000000E-02 0.  1.
    8880022    1    1    2    0    0 -0.26930936541E+03  0.18570362320E+03 -0.19583393269E+04  0.19913558051E+04  0.15294330000E+03 0.  0.
    8880022    1    1    2    0    0  0.26930936541E+03 -0.18570362320E+03 -0.34674369061E+03  0.50063580571E+03  0.15294330000E+03 0.  0.
<mgrwt>
<rscale>  0 0.36111636E+03</rscale>
<asrwt>0</asrwt>
<pdfrwt beam="1">  1        2 0.14377586E-01 0.36111636E+03</pdfrwt>
<pdfrwt beam="2">  1       -2 0.36900569E+00 0.36111636E+03</pdfrwt>
<totfact> 0.56356665E+00</totfact>
</mgrwt>
</event>
<event>
 4    1  0.1033139E-008  0.5543919E+03  0.7818608E-02  0.1000482E+00
          2   -1    0    0  501    0  0.00000000000E+00  0.00000000000E+00  0.22020868971E+04  0.22020868971E+04  0.25500000000E-02 0. -1.
         -2   -1    0    0    0  501 -0.00000000000E+00 -0.00000000000E+00 -0.19303738067E+03  0.19303738068E+03  0.25500000000E-02 0.  1.
    8880022    1    1    2    0    0  0.35154439581E+03  0.40046880567E+03  0.16347740650E+04  0.17262203287E+04  0.15294330000E+03 0.  0.
    8880022    1    1    2    0    0 -0.35154439581E+03 -0.40046880567E+03  0.37427545137E+03  0.66890394904E+03  0.15294330000E+03 0.  0.
<mgrwt>
<rscale>  0 0.55439190E+03</rscale>
<asrwt>0</asrwt>
<pdfrwt beam="1">  1        2 0.33878258E+00 0.55439190E+03</pdfrwt>
<pdfrwt beam="2">  1       -2 0.29698060E-01 0.55439190E+03</pdfrwt>
<totfact> 0.57171359E+01</totfact>
</mgrwt>
</event>
<event>
 4    1  0.1033139E-008  0.6168446E+03  0.7818608E-02  0.9871062E-01
          2   -1    0    0  501    0  0.00000000000E+00  0.00000000000E+00  0.10023333342E+04  0.10023333342E+04  0.25500000000E-02 0. -1.
         -2   -1    0    0    0  501 -0.00000000000E+00 -0.00000000000E+00 -0.11068978854E+04  0.11068978854E+04  0.25500000000E-02 0.  1.
    8880022    1    1    2    0    0  0.53273819394E+03 -0.27073160490E+03 -0.90713864488E+03  0.10969948766E+04  0.15294330000E+03 0.  0.
    8880022    1    1    2    0    0 -0.53273819394E+03  0.27073160490E+03  0.80257409374E+03  0.10122363430E+04  0.15294330000E+03 0. -1.
<mgrwt>
<rscale>  0 0.61684458E+03</rscale>
<asrwt>0</asrwt>
<pdfrwt beam="1">  1        2 0.15420513E+00 0.61684458E+03</pdfrwt>
<pdfrwt beam="2">  1       -2 0.17029198E+00 0.61684458E+03</pdfrwt>
<totfact> 0.55412429E+00</totfact>
</mgrwt>
</event>
<event>
 4    1  0.1033139E-008  0.6357159E+03  0.7818608E-02  0.9833958E-01
          2   -1    0    0  501    0  0.00000000000E+00  0.00000000000E+00  0.11853503290E+04  0.11853503290E+04  0.25500000000E-02 0. -1.
         -2   -1    0    0    0  501 -0.00000000000E+00 -0.00000000000E+00 -0.70743953380E+03  0.70743953381E+03  0.25500000000E-02 0.  1.
    8880022    1    1    2    0    0  0.38462191907E+02 -0.61584389227E+03 -0.44222757024E+03  0.77440294211E+03  0.15294330000E+03 0.  0.
    8880022    1    1    2    0    0 -0.38462191907E+02  0.61584389227E+03  0.92013836547E+03  0.11183869207E+04  0.15294330000E+03 0.  0.
<mgrwt>
<rscale>  0 0.63571589E+03</rscale>
<asrwt>0</asrwt>
<pdfrwt beam="1">  1        2 0.18236159E+00 0.63571589E+03</pdfrwt>
<pdfrwt beam="2">  1       -2 0.10883685E+00 0.63571589E+03</pdfrwt>
<totfact> 0.13480412E+01</totfact>
</mgrwt>
</event>
<event>
 4    1  0.1033139E-008  0.9462038E+03  0.7818608E-02  0.9369599E-01
         -2   -1    0    0    0  501 -0.00000000000E+00  0.00000000000E+00  0.70394712327E+03  0.70394712327E+03  0.25500000000E-02 0.  1.
          2   -1    0    0  501    0  0.00000000000E+00 -0.00000000000E+00 -0.35324513317E+04  0.35324513317E+04  0.25500000000E-02 0. -1.
    8880022    1    1    2    0    0 -0.21413237179E+03 -0.90887689926E+03  0.28025173754E+03  0.98683462650E+03  0.15294330000E+03 0.  0.
    8880022    1    1    2    0    0  0.21413237179E+03  0.90887689926E+03 -0.31087559459E+04  0.32495638284E+04  0.15294330000E+03 0.  0.
<mgrwt>
<rscale>  0 0.94620375E+03</rscale>
<asrwt>0</asrwt>
<pdfrwt beam="1">  1        2 0.54345404E+00 0.94620375E+03</pdfrwt>
<pdfrwt beam="2">  1       -2 0.10829956E+00 0.94620375E+03</pdfrwt>
<totfact> 0.54967406E-01</totfact>
</mgrwt>
</event>
<event>
 4    1  0.1033139E-008  0.1193960E+04  0.7818608E-02  0.9118160E-01
         -2   -1    0    0    0  501 -0.00000000000E+00  0.00000000000E+00  0.80557265087E+03  0.80557265088E+03  0.25500000000E-02 0.  1.
          2   -1    0    0  501    0  0.00000000000E+00 -0.00000000000E+00 -0.24894335848E+04  0.24894335848E+04  0.25500000000E-02 0. -1.
    8880022    1    1    2    0    0  0.11605222589E+04 -0.23523811459E+03 -0.17278460379E+04  0.21002362886E+04  0.15294330000E+03 0.  0.
    8880022    1    1    2    0    0 -0.11605222589E+04  0.23523811459E+03  0.43985104043E+02  0.11947699471E+04  0.15294330000E+03 0.  0.
<mgrwt>
<rscale>  0 0.11939600E+04</rscale>
<asrwt>0</asrwt>
<pdfrwt beam="1">  1        2 0.38298978E+00 0.11939600E+04</pdfrwt>
<pdfrwt beam="2">  1       -2 0.12393426E+00 0.11939600E+04</pdfrwt>
<totfact> 0.16965683E+00</totfact>
</mgrwt>
</event>
<event>
 4    1  0.1033139E-008  0.4902114E+03  0.7818608E-02  0.1016366E+00
          2   -1    0    0  501    0  0.00000000000E+00  0.00000000000E+00  0.22120733978E+04  0.22120733978E+04  0.25500000000E-02 0. -1.
         -2   -1    0    0    0  501 -0.00000000000E+00 -0.00000000000E+00 -0.22807110196E+03  0.22807110197E+03  0.25500000000E-02 0.  1.
    8880022    1    1    2    0    0 -0.45605385814E+03 -0.94501180422E+02  0.10908525266E+03  0.50220199122E+03  0.15294330000E+03 0.  0.
    8880022    1    1    2    0    0  0.45605385814E+03  0.94501180422E+02  0.18749170432E+04  0.19379425085E+04  0.15294330000E+03 0.  0.
<mgrwt>
<rscale>  0 0.49021143E+03</rscale>
<asrwt>0</asrwt>
<pdfrwt beam="1">  1        2 0.34031898E+00 0.49021143E+03</pdfrwt>
<pdfrwt beam="2">  1       -2 0.35087863E-01 0.49021143E+03</pdfrwt>
<totfact> 0.41839877E+01</totfact>
</mgrwt>
</event>
<event>
 4    1  0.1033139E-008  0.1164915E+04  0.7818608E-02  0.9144133E-01
         -2   -1    0    0    0  501 -0.00000000000E+00  0.00000000000E+00  0.11136554404E+04  0.11136554404E+04  0.25500000000E-02 0.  1.
          2   -1    0    0  501    0  0.00000000000E+00 -0.00000000000E+00 -0.15695468688E+04  0.15695468689E+04  0.25500000000E-02 0. -1.
    8880022    1    1    2    0    0 -0.54720998043E+03 -0.10169548234E+04 -0.86239587978E+03  0.14493978688E+04  0.15294330000E+03 0.  0.
    8880022    1    1    2    0    0  0.54720998043E+03  0.10169548234E+04  0.40650445135E+03  0.12338044405E+04  0.15294330000E+03 0.  0.
<mgrwt>
<rscale>  0 0.11649152E+04</rscale>
<asrwt>0</asrwt>
<pdfrwt beam="1">  1        2 0.24146875E+00 0.11649152E+04</pdfrwt>
<pdfrwt beam="2">  1       -2 0.17133161E+00 0.11649152E+04</pdfrwt>
<totfact> 0.23567611E+00</totfact>
</mgrwt>
</event>
<event>
 4    1  0.1033139E-008  0.6300492E+03  0.7818608E-02  0.9844953E-01
         -2   -1    0    0    0  501 -0.00000000000E+00  0.00000000000E+00  0.22550404043E+03  0.22550404044E+03  0.25500000000E-02 0.  1.
          2   -1    0    0  501    0  0.00000000000E+00 -0.00000000000E+00 -0.19958336179E+04  0.19958336179E+04  0.25500000000E-02 0. -1.
    8880022    1    1    2    0    0  0.50548854668E+03 -0.34358645048E+03 -0.50364296294E+03  0.80660907936E+03  0.15294330000E+03 0.  0.
    8880022    1    1    2    0    0 -0.50548854668E+03  0.34358645048E+03 -0.12666866146E+04  0.14147285790E+04  0.15294330000E+03 0.  0.
<mgrwt>
<rscale>  0 0.63004918E+03</rscale>
<asrwt>0</asrwt>
<pdfrwt beam="1">  1        2 0.30705131E+00 0.63004918E+03</pdfrwt>
<pdfrwt beam="2">  1       -2 0.34692931E-01 0.63004918E+03</pdfrwt>
<totfact> 0.54709156E+01</totfact>
</mgrwt>
</event>
<event>
 4    1  0.1033139E-008  0.6440418E+03  0.7818608E-02  0.9818024E-01
         -2   -1    0    0    0  501 -0.00000000000E+00  0.00000000000E+00  0.45468627529E+03  0.45468627530E+03  0.25500000000E-02 0.  1.
          2   -1    0    0  501    0  0.00000000000E+00 -0.00000000000E+00 -0.21909085535E+04  0.21909085535E+04  0.25500000000E-02 0. -1.
    8880022    1    1    2    0    0  0.22562278002E+03 -0.58351738710E+03  0.14243850871E+03  0.65960485269E+03  0.15294330000E+03 0.  0.
    8880022    1    1    2    0    0 -0.22562278002E+03  0.58351738710E+03 -0.18786607870E+04  0.19859899762E+04  0.15294330000E+03 0.  0.
<mgrwt>
<rscale>  0 0.64404179E+03</rscale>
<asrwt>0</asrwt>
<pdfrwt beam="1">  1        2 0.33706285E+00 0.64404179E+03</pdfrwt>
<pdfrwt beam="2">  1       -2 0.69951736E-01 0.64404179E+03</pdfrwt>
<totfact> 0.10302501E+01</totfact>
</mgrwt>
</event>
<event>
 4    1  0.1033139E-008  0.1329201E+04  0.7818608E-02  0.9006724E-01
          2   -1    0    0  501    0  0.00000000000E+00  0.00000000000E+00  0.21549759093E+04  0.21549759093E+04  0.25500000000E-02 0. -1.
         -2   -1    0    0    0  501 -0.00000000000E+00 -0.00000000000E+00 -0.12298309994E+04  0.12298309994E+04  0.25500000000E-02 0.  1.
    8880022    1    1    2    0    0 -0.12846344664E+04  0.30511987957E+03  0.14397163014E+04  0.19594791488E+04  0.15294330000E+03 0.  0.
    8880022    1    1    2    0    0  0.12846344664E+04 -0.30511987957E+03 -0.51457139158E+03  0.14253277599E+04  0.15294330000E+03 0.  0.
<mgrwt>
<rscale>  0 0.13292011E+04</rscale>
<asrwt>0</asrwt>
<pdfrwt beam="1">  1        2 0.33153476E+00 0.13292011E+04</pdfrwt>
<pdfrwt beam="2">  1       -2 0.18920477E+00 0.13292011E+04</pdfrwt>
<totfact> 0.82237689E-01</totfact>
</mgrwt>
</event>
<event>
 4    1  0.1033139E-008  0.1371229E+04  0.7818608E-02  0.8974912E-01
          2   -1    0    0  501    0  0.00000000000E+00  0.00000000000E+00  0.25581713131E+04  0.25581713131E+04  0.25500000000E-02 0. -1.
         -2   -1    0    0    0  501 -0.00000000000E+00 -0.00000000000E+00 -0.11745133443E+04  0.11745133443E+04  0.25500000000E-02 0.  1.
    8880022    1    1    2    0    0  0.12497640047E+04  0.54310887844E+03 -0.44985481607E+03  0.14431348967E+04  0.15294330000E+03 0.  0.
    8880022    1    1    2    0    0 -0.12497640047E+04 -0.54310887844E+03  0.18335127849E+04  0.22895497607E+04  0.15294330000E+03 0.  0.
<mgrwt>
<rscale>  0 0.13712290E+04</rscale>
<asrwt>0</asrwt>
<pdfrwt beam="1">  1        2 0.39356481E+00 0.13712290E+04</pdfrwt>
<pdfrwt beam="2">  1       -2 0.18069436E+00 0.13712290E+04</pdfrwt>
<totfact> 0.55175670E-01</totfact>
</mgrwt>
</event>
<event>
 4    1  0.1033139E-008  0.4253023E+03  0.7818608E-02  0.1035354E+00
         -2   -1    0    0    0  501 -0.00000000000E+00  0.00000000000E+00  0.53516479100E+03  0.53516479101E+03  0.25500000000E-02 0.  1.
          2   -1    0    0  501    0  0.00000000000E+00 -0.00000000000E+00 -0.40776993099E+03  0.40776993100E+03  0.25500000000E-02 0. -1.
    8880022    1    1    2    0    0  0.39039271900E+03 -0.71301353769E+02 -0.13133176534E+03  0.44511801098E+03  0.15294330000E+03 0.  0.
    8880022    1    1    2    0    0 -0.39039271900E+03  0.71301353769E+02  0.25872662535E+03  0.49781671103E+03  0.15294330000E+03 0.  0.
<mgrwt>
<rscale>  0 0.42530226E+03</rscale>
<asrwt>0</asrwt>
<pdfrwt beam="1">  1        2 0.62733836E-01 0.42530226E+03</pdfrwt>
<pdfrwt beam="2">  1       -2 0.82333045E-01 0.42530226E+03</pdfrwt>
<totfact> 0.10392701E+02</totfact>
</mgrwt>
</event>
<event>
 4    1  0.1033139E-008  0.3906566E+03  0.7818608E-02  0.1047064E+00
         -2   -1    0    0    0  501 -0.00000000000E+00  0.00000000000E+00  0.25152668614E+03  0.25152668615E+03  0.25500000000E-02 0.  1.
          2   -1    0    0  501    0  0.00000000000E+00 -0.00000000000E+00 -0.12482452232E+04  0.12482452232E+04  0.25500000000E-02 0. -1.
    8880022    1    1    2    0    0  0.31031742339E+03 -0.18144973052E+03  0.39221429008E+02  0.39262053114E+03  0.15294330000E+03 0.  0.
    8880022    1    1    2    0    0 -0.31031742339E+03  0.18144973052E+03 -0.10359399661E+04  0.11071513782E+04  0.15294330000E+03 0.  0.
<mgrwt>
<rscale>  0 0.39065658E+03</rscale>
<asrwt>0</asrwt>
<pdfrwt beam="1">  1        2 0.19203772E+00 0.39065658E+03</pdfrwt>
<pdfrwt beam="2">  1       -2 0.38696414E-01 0.39065658E+03</pdfrwt>
<totfact> 0.11801608E+02</totfact>
</mgrwt>
</event>
<event>
 4    1  0.1033139E-008  0.3405430E+03  0.7818608E-02  0.1066565E+00
          2   -1    0    0  501    0  0.00000000000E+00  0.00000000000E+00  0.31945359552E+04  0.31945359552E+04  0.25500000000E-02 0. -1.
         -2   -1    0    0    0  501 -0.00000000000E+00 -0.00000000000E+00 -0.48803648488E+03  0.48803648489E+03  0.25500000000E-02 0.  1.
    8880022    1    1    2    0    0 -0.20456673705E+03 -0.22523392791E+03 -0.41823150514E+03  0.53933951932E+03  0.15294330000E+03 0.  0.
    8880022    1    1    2    0    0  0.20456673705E+03  0.22523392791E+03  0.31247309755E+04  0.31432329208E+04  0.15294330000E+03 0. -1.
<mgrwt>
<rscale>  0 0.34054299E+03</rscale>
<asrwt>0</asrwt>
<pdfrwt beam="1">  1        2 0.49146709E+00 0.34054299E+03</pdfrwt>
<pdfrwt beam="2">  1       -2 0.75082533E-01 0.34054299E+03</pdfrwt>
<totfact> 0.25495864E+00</totfact>
</mgrwt>
</event>
<event>
 4    1  0.1033139E-008  0.6515728E+03  0.7818608E-02  0.9803832E-01
          2   -1    0    0  501    0  0.00000000000E+00  0.00000000000E+00  0.18228839161E+04  0.18228839161E+04  0.25500000000E-02 0. -1.
         -2   -1    0    0    0  501 -0.00000000000E+00 -0.00000000000E+00 -0.35286822406E+03  0.35286822407E+03  0.25500000000E-02 0.  1.
    8880022    1    1    2    0    0  0.28780528727E+02 -0.63271412544E+03  0.10068730881E+03  0.65930650727E+03  0.15294330000E+03 0.  0.
    8880022    1    1    2    0    0 -0.28780528727E+02  0.63271412544E+03  0.13693283832E+04  0.15164456329E+04  0.15294330000E+03 0.  0.
<mgrwt>
<rscale>  0 0.65157282E+03</rscale>
<asrwt>0</asrwt>
<pdfrwt beam="1">  1        2 0.28044368E+00 0.65157282E+03</pdfrwt>
<pdfrwt beam="2">  1       -2 0.54287420E-01 0.65157282E+03</pdfrwt>
<totfact> 0.27927044E+01</totfact>
</mgrwt>
</event>
<event>
 4    1  0.1033139E-008  0.8935823E+03  0.7818608E-02  0.9433640E-01
          2   -1    0    0  501    0  0.00000000000E+00  0.00000000000E+00  0.32358839100E+04  0.32358839100E+04  0.25500000000E-02 0. -1.
         -2   -1    0    0    0  501 -0.00000000000E+00 -0.00000000000E+00 -0.44650676589E+03  0.44650676590E+03  0.25500000000E-02 0.  1.
    8880022    1    1    2    0    0  0.52279768442E+03  0.70836449767E+03  0.26261614251E+04  0.27740247231E+04  0.15294330000E+03 0.  0.
    8880022    1    1    2    0    0 -0.52279768442E+03 -0.70836449767E+03  0.16321571904E+03  0.90836595288E+03  0.15294330000E+03 0.  0.
<mgrwt>
<rscale>  0 0.89358230E+03</rscale>
<asrwt>0</asrwt>
<pdfrwt beam="1">  1        2 0.49782830E+00 0.89358230E+03</pdfrwt>
<pdfrwt beam="2">  1       -2 0.68693348E-01 0.89358230E+03</pdfrwt>
<totfact> 0.24903299E+00</totfact>
</mgrwt>
</event>
<event>
 4    1  0.1033139E-008  0.2424551E+03  0.7818608E-02  0.1118168E+00
         -2   -1    0    0    0  501 -0.00000000000E+00  0.00000000000E+00  0.58936004976E+02  0.58936005031E+02  0.25500000000E-02 0.  1.
          2   -1    0    0  501    0  0.00000000000E+00 -0.00000000000E+00 -0.20676934350E+04  0.20676934350E+04  0.25500000000E-02 0. -1.
    8880022    1    1    2    0    0 -0.41770383121E+02  0.18343400563E+03 -0.23937350002E+03  0.34071120448E+03  0.15294330000E+03 0.  0.
    8880022    1    1    2    0    0  0.41770383121E+02 -0.18343400563E+03 -0.17693839300E+04  0.17859182355E+04  0.15294330000E+03 0.  0.
<mgrwt>
<rscale>  0 0.24245505E+03</rscale>
<asrwt>0</asrwt>
<pdfrwt beam="1">  1        2 0.31810663E+00 0.24245505E+03</pdfrwt>
<pdfrwt beam="2">  1       -2 0.90670793E-02 0.24245505E+03</pdfrwt>
<totfact> 0.53447457E+02</totfact>
</mgrwt>
</event>
<event>
 4    1  0.1033139E-008  0.6966469E+03  0.7818608E-02  0.9722984E-01
         -2   -1    0    0    0  501 -0.00000000000E+00  0.00000000000E+00  0.41281326943E+03  0.41281326943E+03  0.25500000000E-02 0.  1.
          2   -1    0    0  501    0  0.00000000000E+00 -0.00000000000E+00 -0.11917726738E+04  0.11917726738E+04  0.25500000000E-02 0. -1.
    8880022    1    1    2    0    0  0.66170253149E+03 -0.15516138929E+03 -0.29611513179E+03  0.75696837529E+03  0.15294330000E+03 0.  0.
    8880022    1    1    2    0    0 -0.66170253149E+03  0.15516138929E+03 -0.48284427258E+03  0.84761756794E+03  0.15294330000E+03 0.  0.
<mgrwt>
<rscale>  0 0.69664693E+03</rscale>
<asrwt>0</asrwt>
<pdfrwt beam="1">  1        2 0.18334964E+00 0.69664693E+03</pdfrwt>
<pdfrwt beam="2">  1       -2 0.63509734E-01 0.69664693E+03</pdfrwt>
<totfact> 0.44982764E+01</totfact>
</mgrwt>
</event>
<event>
 4    1  0.1033139E-008  0.1696808E+04  0.7818608E-02  0.8763187E-01
         -2   -1    0    0    0  501 -0.00000000000E+00  0.00000000000E+00  0.10397324643E+04  0.10397324643E+04  0.25500000000E-02 0.  1.
          2   -1    0    0  501    0  0.00000000000E+00 -0.00000000000E+00 -0.45202312820E+04  0.45202312820E+04  0.25500000000E-02 0. -1.
    8880022    1    1    2    0    0  0.12751478347E+04 -0.11089474626E+04 -0.99676900237E+01  0.16968374946E+04  0.15294330000E+03 0.  0.
    8880022    1    1    2    0    0 -0.12751478347E+04  0.11089474626E+04 -0.34705311277E+04  0.38631262517E+04  0.15294330000E+03 0.  0.
<mgrwt>
<rscale>  0 0.16968082E+04</rscale>
<asrwt>0</asrwt>
<pdfrwt beam="1">  1        2 0.69542019E+00 0.16968082E+04</pdfrwt>
<pdfrwt beam="2">  1       -2 0.15995884E+00 0.16968082E+04</pdfrwt>
<totfact> 0.27937134E-02</totfact>
</mgrwt>
</event>
<event>
 4    1  0.1033139E-008  0.2871700E+03  0.7818608E-02  0.1091836E+00
         -2   -1    0    0    0  501 -0.00000000000E+00  0.00000000000E+00  0.51568009772E+03  0.51568009773E+03  0.25500000000E-02 0.  1.
          2   -1    0    0  501    0  0.00000000000E+00 -0.00000000000E+00 -0.10296738065E+04  0.10296738065E+04  0.25500000000E-02 0. -1.
    8880022    1    1    2    0    0  0.24304269814E+03  0.22830618241E+01 -0.96714139233E+03  0.10088751614E+04  0.15294330000E+03 0. -1.
    8880022    1    1    2    0    0 -0.24304269814E+03 -0.22830618241E+01  0.45314768350E+03  0.53647874289E+03  0.15294330000E+03 0.  0.
<mgrwt>
<rscale>  0 0.28717002E+03</rscale>
<asrwt>0</asrwt>
<pdfrwt beam="1">  1        2 0.15841135E+00 0.28717002E+03</pdfrwt>
<pdfrwt beam="2">  1       -2 0.79335400E-01 0.28717002E+03</pdfrwt>
<totfact> 0.36964431E+01</totfact>
</mgrwt>
</event>
<event>
 4    1  0.1033139E-008  0.8074398E+03  0.7818608E-02  0.9549310E-01
         -2   -1    0    0    0  501 -0.00000000000E+00  0.00000000000E+00  0.10401389172E+04  0.10401389172E+04  0.25500000000E-02 0.  1.
          2   -1    0    0  501    0  0.00000000000E+00 -0.00000000000E+00 -0.20961292092E+04  0.20961292092E+04  0.25500000000E-02 0. -1.
    8880022    1    1    2    0    0  0.56544150691E+03  0.55573672719E+03 -0.18409014138E+04  0.20101932932E+04  0.15294330000E+03 0.  0.
    8880022    1    1    2    0    0 -0.56544150691E+03 -0.55573672719E+03  0.78491112190E+03  0.11260748332E+04  0.15294330000E+03 0.  0.
<mgrwt>
<rscale>  0 0.80743982E+03</rscale>
<asrwt>0</asrwt>
<pdfrwt beam="1">  1        2 0.32248142E+00 0.80743982E+03</pdfrwt>
<pdfrwt beam="2">  1       -2 0.16002137E+00 0.80743982E+03</pdfrwt>
<totfact> 0.15319006E+00</totfact>
</mgrwt>
</event>
<event>
 4    1  0.1033139E-008  0.2581364E+04  0.7818608E-02  0.8374559E-01
          2   -1    0    0  501    0  0.00000000000E+00  0.00000000000E+00  0.38433568075E+04  0.38433568075E+04  0.25500000000E-02 0. -1.
         -2   -1    0    0    0  501 -0.00000000000E+00 -0.00000000000E+00 -0.19770411190E+04  0.19770411190E+04  0.25500000000E-02 0.  1.
    8880022    1    1    2    0    0  0.23569914616E+04 -0.10414594390E+04  0.19540355238E+04  0.32375442846E+04  0.15294330000E+03 0.  0.
    8880022    1    1    2    0    0 -0.23569914616E+04  0.10414594390E+04 -0.87719835325E+02  0.25828536419E+04  0.15294330000E+03 0.  0.
<mgrwt>
<rscale>  0 0.25813636E+04</rscale>
<asrwt>0</asrwt>
<pdfrwt beam="1">  1        2 0.59128565E+00 0.25813636E+04</pdfrwt>
<pdfrwt beam="2">  1       -2 0.30416018E+00 0.25813636E+04</pdfrwt>
<totfact> 0.11348970E-02</totfact>
</mgrwt>
</event>
<event>
 4    1  0.1033139E-008  0.7484095E+03  0.7818608E-02  0.9637849E-01
          2   -1    0    0  501    0  0.00000000000E+00  0.00000000000E+00  0.65201284068E+03  0.65201284068E+03  0.25500000000E-02 0. -1.
         -2   -1    0    0    0  501 -0.00000000000E+00 -0.00000000000E+00 -0.98921802879E+03  0.98921802879E+03  0.25500000000E-02 0.  1.
    8880022    1    1    2    0    0 -0.14967441594E+03 -0.71716296292E+03 -0.46627090957E+03  0.88177398482E+03  0.15294330000E+03 0.  0.
    8880022    1    1    2    0    0  0.14967441594E+03  0.71716296292E+03  0.12906572146E+03  0.75945688465E+03  0.15294330000E+03 0.  0.
<mgrwt>
<rscale>  0 0.74840951E+03</rscale>
<asrwt>0</asrwt>
<pdfrwt beam="1">  1        2 0.10030967E+00 0.74840951E+03</pdfrwt>
<pdfrwt beam="2">  1       -2 0.15218739E+00 0.74840951E+03</pdfrwt>
<totfact> 0.13108982E+01</totfact>
</mgrwt>
</event>
<event>
 4    1  0.1033139E-008  0.6242452E+03  0.7818608E-02  0.9856344E-01
         -2   -1    0    0    0  501 -0.00000000000E+00  0.00000000000E+00  0.67125614020E+03  0.67125614020E+03  0.25500000000E-02 0.  1.
          2   -1    0    0  501    0  0.00000000000E+00 -0.00000000000E+00 -0.11231837863E+04  0.11231837863E+04  0.25500000000E-02 0. -1.
    8880022    1    1    2    0    0  0.56657995275E+02  0.60256141379E+03  0.39767953048E+03  0.74015609691E+03  0.15294330000E+03 0.  0.
    8880022    1    1    2    0    0 -0.56657995275E+02 -0.60256141379E+03 -0.84960717661E+03  0.10542838296E+04  0.15294330000E+03 0.  0.
<mgrwt>
<rscale>  0 0.62424518E+03</rscale>
<asrwt>0</asrwt>
<pdfrwt beam="1">  1        2 0.17279751E+00 0.62424518E+03</pdfrwt>
<pdfrwt beam="2">  1       -2 0.10327018E+00 0.62424518E+03</pdfrwt>
<totfact> 0.16679221E+01</totfact>
</mgrwt>
</event>
<event>
 4    1  0.1033139E-008  0.1239886E+04  0.7818608E-02  0.9078643E-01
          2   -1    0    0  501    0  0.00000000000E+00  0.00000000000E+00  0.20026408107E+04  0.20026408107E+04  0.25500000000E-02 0. -1.
         -2   -1    0    0    0  501 -0.00000000000E+00 -0.00000000000E+00 -0.91861380962E+03  0.91861380962E+03  0.25500000000E-02 0.  1.
    8880022    1    1    2    0    0  0.10319366868E+04  0.67009841453E+03  0.11341431286E+04  0.16803563610E+04  0.15294330000E+03 0.  0.
    8880022    1    1    2    0    0 -0.10319366868E+04 -0.67009841453E+03 -0.50116127514E+02  0.12408982593E+04  0.15294330000E+03 0.  0.
<mgrwt>
<rscale>  0 0.12398858E+04</rscale>
<asrwt>0</asrwt>
<pdfrwt beam="1">  1        2 0.30809858E+00 0.12398858E+04</pdfrwt>
<pdfrwt beam="2">  1       -2 0.14132520E+00 0.12398858E+04</pdfrwt>
<totfact> 0.22632044E+00</totfact>
</mgrwt>
</event>
<event>
 4    1  0.1033139E-008  0.5545912E+03  0.7818608E-02  0.1000437E+00
         -2   -1    0    0    0  501 -0.00000000000E+00  0.00000000000E+00  0.19215725381E+04  0.19215725381E+04  0.25500000000E-02 0.  1.
          2   -1    0    0  501    0  0.00000000000E+00 -0.00000000000E+00 -0.13497700490E+04  0.13497700490E+04  0.25500000000E-02 0. -1.
    8880022    1    1    2    0    0 -0.51180791202E+03  0.14910517067E+03 -0.12497276709E+04  0.13672565945E+04  0.15294330000E+03 0.  0.
    8880022    1    1    2    0    0  0.51180791202E+03 -0.14910517067E+03  0.18215301599E+04  0.19040859926E+04  0.15294330000E+03 0.  1.
<mgrwt>
<rscale>  0 0.55459115E+03</rscale>
<asrwt>0</asrwt>
<pdfrwt beam="1">  1        2 0.20765693E+00 0.55459115E+03</pdfrwt>
<pdfrwt beam="2">  1       -2 0.29562654E+00 0.55459115E+03</pdfrwt>
<totfact> 0.57695936E-01</totfact>
</mgrwt>
</event>
<event>
 4    1  0.1033139E-008  0.5733979E+03  0.7818608E-02  0.9962188E-01
          2   -1    0    0  501    0  0.00000000000E+00  0.00000000000E+00  0.15844881361E+04  0.15844881361E+04  0.25500000000E-02 0. -1.
         -2   -1    0    0    0  501 -0.00000000000E+00 -0.00000000000E+00 -0.70255784355E+03  0.70255784356E+03  0.25500000000E-02 0.  1.
    8880022    1    1    2    0    0 -0.24543615599E+03 -0.49513087210E+03  0.14008756932E+04  0.15136835362E+04  0.15294330000E+03 0.  0.
    8880022    1    1    2    0    0  0.24543615599E+03  0.49513087210E+03 -0.51894540057E+03  0.77336244347E+03  0.15294330000E+03 0.  0.
<mgrwt>
<rscale>  0 0.57339789E+03</rscale>
<asrwt>0</asrwt>
<pdfrwt beam="1">  1        2 0.24376740E+00 0.57339789E+03</pdfrwt>
<pdfrwt beam="2">  1       -2 0.10808582E+00 0.57339789E+03</pdfrwt>
<totfact> 0.82416120E+00</totfact>
</mgrwt>
</event>
<event>
 4    1  0.1033139E-008  0.1700315E+04  0.7818608E-02  0.8761185E-01
          2   -1    0    0  501    0  0.00000000000E+00  0.00000000000E+00  0.10922930455E+04  0.10922930455E+04  0.25500000000E-02 0. -1.
         -2   -1    0    0    0  501 -0.00000000000E+00 -0.00000000000E+00 -0.27948174311E+04  0.27948174311E+04  0.25500000000E-02 0.  1.
    8880022    1    1    2    0    0 -0.15364917784E+04  0.71194880361E+03 -0.40396925943E+03  0.17476443859E+04  0.15294330000E+03 0.  0.
    8880022    1    1    2    0    0  0.15364917784E+04 -0.71194880361E+03 -0.12985551262E+04  0.21394660906E+04  0.15294330000E+03 0.  0.
<mgrwt>
<rscale>  0 0.17003146E+04</rscale>
<asrwt>0</asrwt>
<pdfrwt beam="1">  1        2 0.16804508E+00 0.17003146E+04</pdfrwt>
<pdfrwt beam="2">  1       -2 0.42997191E+00 0.17003146E+04</pdfrwt>
<totfact> 0.96178655E-02</totfact>
</mgrwt>
</event>
<event>
 4    1  0.1033139E-008  0.5027403E+03  0.7818608E-02  0.1013066E+00
         -2   -1    0    0    0  501 -0.00000000000E+00  0.00000000000E+00  0.43274714822E+04  0.43274714822E+04  0.25500000000E-02 0.  1.
          2   -1    0    0  501    0  0.00000000000E+00 -0.00000000000E+00 -0.50456162946E+03  0.50456162947E+03  0.25500000000E-02 0. -1.
    8880022    1    1    2    0    0  0.47140525484E+03 -0.84458411396E+02 -0.36042966723E+03  0.61859302904E+03  0.15294330000E+03 0.  0.
    8880022    1    1    2    0    0 -0.47140525484E+03  0.84458411396E+02  0.41833395200E+04  0.42134400827E+04  0.15294330000E+03 0.  0.
<mgrwt>
<rscale>  0 0.50274028E+03</rscale>
<asrwt>0</asrwt>
<pdfrwt beam="1">  1        2 0.77624869E-01 0.50274028E+03</pdfrwt>
<pdfrwt beam="2">  1       -2 0.66576482E+00 0.50274028E+03</pdfrwt>
<totfact> 0.20072836E-02</totfact>
</mgrwt>
</event>
<event>
 4    1  0.1033139E-008  0.9339278E+03  0.7818608E-02  0.9384136E-01
         -2   -1    0    0    0  501 -0.00000000000E+00  0.00000000000E+00  0.72901280099E+03  0.72901280100E+03  0.25500000000E-02 0.  1.
          2   -1    0    0  501    0  0.00000000000E+00 -0.00000000000E+00 -0.29846053543E+04  0.29846053543E+04  0.25500000000E-02 0. -1.
    8880022    1    1    2    0    0 -0.72279859391E+03 -0.57130694590E+03 -0.25650302132E+04  0.27297620925E+04  0.15294330000E+03 0.  0.
    8880022    1    1    2    0    0  0.72279859391E+03  0.57130694590E+03  0.30943765998E+03  0.98385606276E+03  0.15294330000E+03 0.  0.
<mgrwt>
<rscale>  0 0.93392777E+03</rscale>
<asrwt>0</asrwt>
<pdfrwt beam="1">  1        2 0.45917005E+00 0.93392777E+03</pdfrwt>
<pdfrwt beam="2">  1       -2 0.11215582E+00 0.93392777E+03</pdfrwt>
<totfact> 0.11489306E+00</totfact>
</mgrwt>
</event>
<event>
 4    1  0.1033139E-008  0.6701762E+03  0.7818608E-02  0.9769640E-01
          2   -1    0    0  501    0  0.00000000000E+00  0.00000000000E+00  0.93755825874E+03  0.93755825874E+03  0.25500000000E-02 0. -1.
         -2   -1    0    0    0  501 -0.00000000000E+00 -0.00000000000E+00 -0.83231232256E+03  0.83231232257E+03  0.25500000000E-02 0.  1.
    8880022    1    1    2    0    0  0.43525695120E+03 -0.48610276364E+03  0.62914744066E+03  0.91921850802E+03  0.15294330000E+03 0.  0.
    8880022    1    1    2    0    0 -0.43525695120E+03  0.48610276364E+03 -0.52390150448E+03  0.85065207329E+03  0.15294330000E+03 0.  0.
<mgrwt>
<rscale>  0 0.67017622E+03</rscale>
<asrwt>0</asrwt>
<pdfrwt beam="1">  1        2 0.14423973E+00 0.67017622E+03</pdfrwt>
<pdfrwt beam="2">  1       -2 0.12804805E+00 0.67017622E+03</pdfrwt>
<totfact> 0.12812215E+01</totfact>
</mgrwt>
</event>
<event>
 4    1  0.1033139E-008  0.7744035E+03  0.7818608E-02  0.9597824E-01
          2   -1    0    0  501    0  0.00000000000E+00  0.00000000000E+00  0.12543282520E+04  0.12543282520E+04  0.25500000000E-02 0. -1.
         -2   -1    0    0    0  501 -0.00000000000E+00 -0.00000000000E+00 -0.72289695937E+03  0.72289695938E+03  0.25500000000E-02 0.  1.
    8880022    1    1    2    0    0  0.66617392286E+03 -0.36403492465E+03 -0.30957379301E+03  0.83398843409E+03  0.15294330000E+03 0.  0.
    8880022    1    1    2    0    0 -0.66617392286E+03  0.36403492465E+03  0.84100508566E+03  0.11432367773E+04  0.15294330000E+03 0.  0.
<mgrwt>
<rscale>  0 0.77440350E+03</rscale>
<asrwt>0</asrwt>
<pdfrwt beam="1">  1        2 0.19297357E+00 0.77440350E+03</pdfrwt>
<pdfrwt beam="2">  1       -2 0.11121492E+00 0.77440350E+03</pdfrwt>
<totfact> 0.11444970E+01</totfact>
</mgrwt>
</event>
<event>
 4    1  0.1033139E-008  0.7517453E+03  0.7818608E-02  0.9632616E-01
         -2   -1    0    0    0  501 -0.00000000000E+00  0.00000000000E+00  0.12113899169E+04  0.12113899169E+04  0.25500000000E-02 0.  1.
          2   -1    0    0  501    0  0.00000000000E+00 -0.00000000000E+00 -0.17304183564E+04  0.17304183564E+04  0.25500000000E-02 0. -1.
    8880022    1    1    2    0    0  0.96432503305E+02  0.72967813974E+03 -0.15166067193E+04  0.16926951909E+04  0.15294330000E+03 0.  0.
    8880022    1    1    2    0    0 -0.96432503305E+02 -0.72967813974E+03  0.99757827982E+03  0.12491130824E+04  0.15294330000E+03 0.  0.
<mgrwt>
<rscale>  0 0.75174535E+03</rscale>
<asrwt>0</asrwt>
<pdfrwt beam="1">  1        2 0.26621821E+00 0.75174535E+03</pdfrwt>
<pdfrwt beam="2">  1       -2 0.18636768E+00 0.75174535E+03</pdfrwt>
<totfact> 0.16009131E+00</totfact>
</mgrwt>
</event>
<event>
 4    1  0.1033139E-008  0.7395093E+03  0.7818608E-02  0.9651954E-01
         -2   -1    0    0    0  501 -0.00000000000E+00  0.00000000000E+00  0.45109200349E+03  0.45109200350E+03  0.25500000000E-02 0.  1.
          2   -1    0    0  501    0  0.00000000000E+00 -0.00000000000E+00 -0.21946083581E+04  0.21946083581E+04  0.25500000000E-02 0. -1.
    8880022    1    1    2    0    0 -0.33412207556E+03 -0.64175136902E+03  0.13252719887E+02  0.73962806100E+03  0.15294330000E+03 0.  0.
    8880022    1    1    2    0    0  0.33412207556E+03  0.64175136902E+03 -0.17567690745E+04  0.19060723006E+04  0.15294330000E+03 0.  0.
<mgrwt>
<rscale>  0 0.73950932E+03</rscale>
<asrwt>0</asrwt>
<pdfrwt beam="1">  1        2 0.33763205E+00 0.73950932E+03</pdfrwt>
<pdfrwt beam="2">  1       -2 0.69398771E-01 0.73950932E+03</pdfrwt>
<totfact> 0.10263527E+01</totfact>
</mgrwt>
</event>
<event>
 4    1  0.1033139E-008  0.1225849E+04  0.7818608E-02  0.9090527E-01
         -2   -1    0    0    0  501 -0.00000000000E+00  0.00000000000E+00  0.13863050099E+04  0.13863050099E+04  0.25500000000E-02 0.  1.
          2   -1    0    0  501    0  0.00000000000E+00 -0.00000000000E+00 -0.10913635110E+04  0.10913635110E+04  0.25500000000E-02 0. -1.
    8880022    1    1    2    0    0  0.12125628942E+04 -0.94890912114E+02  0.45463676981E+02  0.12266913452E+04  0.15294330000E+03 0.  0.
    8880022    1    1    2    0    0 -0.12125628942E+04  0.94890912114E+02  0.24947782188E+03  0.12509771757E+04  0.15294330000E+03 0.  0.
<mgrwt>
<rscale>  0 0.12258486E+04</rscale>
<asrwt>0</asrwt>
<pdfrwt beam="1">  1        2 0.16790208E+00 0.12258486E+04</pdfrwt>
<pdfrwt beam="2">  1       -2 0.21327769E+00 0.12258486E+04</pdfrwt>
<totfact> 0.23325875E+00</totfact>
</mgrwt>
</event>
<event>
 4    1  0.1033139E-008  0.6689380E+03  0.7818608E-02  0.9771878E-01
          2   -1    0    0  501    0  0.00000000000E+00  0.00000000000E+00  0.21928303759E+04  0.21928303759E+04  0.25500000000E-02 0. -1.
         -2   -1    0    0    0  501 -0.00000000000E+00 -0.00000000000E+00 -0.46392224197E+03  0.46392224198E+03  0.25500000000E-02 0.  1.
    8880022    1    1    2    0    0 -0.28344959505E+02 -0.65060194614E+03  0.18586378602E+04  0.19753512795E+04  0.15294330000E+03 0.  0.
    8880022    1    1    2    0    0  0.28344959505E+02  0.65060194614E+03 -0.12972972627E+03  0.68140133838E+03  0.15294330000E+03 0.  0.
<mgrwt>
<rscale>  0 0.66893795E+03</rscale>
<asrwt>0</asrwt>
<pdfrwt beam="1">  1        2 0.33735851E+00 0.66893795E+03</pdfrwt>
<pdfrwt beam="2">  1       -2 0.71372654E-01 0.66893795E+03</pdfrwt>
<totfact> 0.97917201E+00</totfact>
</mgrwt>
</event>
<event>
 4    1  0.1033139E-008  0.6773703E+03  0.7818608E-02  0.9756734E-01
          2   -1    0    0  501    0  0.00000000000E+00  0.00000000000E+00  0.15650536858E+04  0.15650536858E+04  0.25500000000E-02 0. -1.
         -2   -1    0    0    0  501 -0.00000000000E+00 -0.00000000000E+00 -0.91016245935E+03  0.91016245935E+03  0.25500000000E-02 0.  1.
    8880022    1    1    2    0    0 -0.58987483954E+03  0.29578134921E+03 -0.69152755564E+03  0.96800875310E+03  0.15294330000E+03 0.  0.
    8880022    1    1    2    0    0  0.58987483954E+03 -0.29578134921E+03  0.13464187821E+04  0.15072073920E+04  0.15294330000E+03 0.  0.
<mgrwt>
<rscale>  0 0.67737035E+03</rscale>
<asrwt>0</asrwt>
<pdfrwt beam="1">  1        2 0.24077749E+00 0.67737035E+03</pdfrwt>
<pdfrwt beam="2">  1       -2 0.14002500E+00 0.67737035E+03</pdfrwt>
<totfact> 0.43541629E+00</totfact>
</mgrwt>
</event>
<event>
 4    1  0.1033139E-008  0.1288720E+04  0.7818608E-02  0.9038558E-01
          2   -1    0    0  501    0  0.00000000000E+00  0.00000000000E+00  0.10081990581E+04  0.10081990581E+04  0.25500000000E-02 0. -1.
         -2   -1    0    0    0  501 -0.00000000000E+00 -0.00000000000E+00 -0.25659763957E+04  0.25659763957E+04  0.25500000000E-02 0.  1.
    8880022    1    1    2    0    0  0.11167297225E+04 -0.62475810976E+03  0.29041828299E+03  0.13210383798E+04  0.15294330000E+03 0. -1.
    8880022    1    1    2    0    0 -0.11167297225E+04  0.62475810976E+03 -0.18481956207E+04  0.22531370740E+04  0.15294330000E+03 0.  0.
<mgrwt>
<rscale>  0 0.12887201E+04</rscale>
<asrwt>0</asrwt>
<pdfrwt beam="1">  1        2 0.15510755E+00 0.12887201E+04</pdfrwt>
<pdfrwt beam="2">  1       -2 0.39476560E+00 0.12887201E+04</pdfrwt>
<totfact> 0.19461978E-01</totfact>
</mgrwt>
</event>
<event>
 4    1  0.1033139E-008  0.4924297E+03  0.7818608E-02  0.1015774E+00
          2   -1    0    0  501    0  0.00000000000E+00  0.00000000000E+00  0.41362658776E+03  0.41362658777E+03  0.25500000000E-02 0. -1.
         -2   -1    0    0    0  501 -0.00000000000E+00 -0.00000000000E+00 -0.25946389928E+04  0.25946389928E+04  0.25500000000E-02 0.  1.
    8880022    1    1    2    0    0  0.22939309837E+01 -0.46807058751E+03 -0.24138480387E+04  0.24635643576E+04  0.15294330000E+03 0.  0.
    8880022    1    1    2    0    0 -0.22939309837E+01  0.46807058751E+03  0.23283563365E+03  0.54470122299E+03  0.15294330000E+03 0.  0.
<mgrwt>
<rscale>  0 0.49242968E+03</rscale>
<asrwt>0</asrwt>
<pdfrwt beam="1">  1        2 0.63634861E-01 0.49242968E+03</pdfrwt>
<pdfrwt beam="2">  1       -2 0.39917522E+00 0.49242968E+03</pdfrwt>
<totfact> 0.64939018E-01</totfact>
</mgrwt>
</event>
<event>
 4    1  0.1033139E-008  0.5013590E+03  0.7818608E-02  0.1013425E+00
         -2   -1    0    0    0  501 -0.00000000000E+00  0.00000000000E+00  0.11706562620E+03  0.11706562622E+03  0.25500000000E-02 0.  1.
          2   -1    0    0  501    0  0.00000000000E+00 -0.00000000000E+00 -0.27830949147E+04  0.27830949147E+04  0.25500000000E-02 0. -1.
    8880022    1    1    2    0    0  0.38709724960E+03  0.27950831421E+03 -0.20261657948E+04  0.20872730198E+04  0.15294330000E+03 0.  0.
    8880022    1    1    2    0    0 -0.38709724960E+03 -0.27950831421E+03 -0.63986349379E+03  0.81288752116E+03  0.15294330000E+03 0.  0.
<mgrwt>
<rscale>  0 0.50135898E+03</rscale>
<asrwt>0</asrwt>
<pdfrwt beam="1">  1        2 0.42816840E+00 0.50135898E+03</pdfrwt>
<pdfrwt beam="2">  1       -2 0.18010098E-01 0.50135898E+03</pdfrwt>
<totfact> 0.66199930E+01</totfact>
</mgrwt>
</event>
<event>
 4    1  0.1033139E-008  0.7672333E+03  0.7818608E-02  0.9608695E-01
          2   -1    0    0  501    0  0.00000000000E+00  0.00000000000E+00  0.21524838666E+04  0.21524838666E+04  0.25500000000E-02 0. -1.
         -2   -1    0    0    0  501 -0.00000000000E+00 -0.00000000000E+00 -0.47896338671E+03  0.47896338672E+03  0.25500000000E-02 0.  1.
    8880022    1    1    2    0    0 -0.66028173012E+03  0.35955995102E+03 -0.25044542851E+02  0.76764197621E+03  0.15294330000E+03 0.  0.
    8880022    1    1    2    0    0  0.66028173012E+03 -0.35955995102E+03  0.16985650228E+04  0.18638052771E+04  0.15294330000E+03 0.  0.
<mgrwt>
<rscale>  0 0.76723332E+03</rscale>
<asrwt>0</asrwt>
<pdfrwt beam="1">  1        2 0.33115136E+00 0.76723332E+03</pdfrwt>
<pdfrwt beam="2">  1       -2 0.73686676E-01 0.76723332E+03</pdfrwt>
<totfact> 0.94514030E+00</totfact>
</mgrwt>
</event>
<event>
 4    1  0.1033139E-008  0.1323820E+04  0.7818608E-02  0.9010886E-01
         -2   -1    0    0    0  501 -0.00000000000E+00  0.00000000000E+00  0.10222299542E+04  0.10222299542E+04  0.25500000000E-02 0.  1.
          2   -1    0    0  501    0  0.00000000000E+00 -0.00000000000E+00 -0.24107020960E+04  0.24107020960E+04  0.25500000000E-02 0. -1.
    8880022    1    1    2    0    0  0.41678142138E+03 -0.12471567137E+04 -0.16167356623E+04  0.20895771047E+04  0.15294330000E+03 0.  0.
    8880022    1    1    2    0    0 -0.41678142138E+03  0.12471567137E+04  0.22826352039E+03  0.13433549455E+04  0.15294330000E+03 0.  0.
<mgrwt>
<rscale>  0 0.13238196E+04</rscale>
<asrwt>0</asrwt>
<pdfrwt beam="1">  1        2 0.37087724E+00 0.13238196E+04</pdfrwt>
<pdfrwt beam="2">  1       -2 0.15726615E+00 0.13238196E+04</pdfrwt>
<totfact> 0.99505356E-01</totfact>
</mgrwt>
</event>
<event>
 4    1  0.1033139E-008  0.1600378E+04  0.7818608E-02  0.8820316E-01
          2   -1    0    0  501    0  0.00000000000E+00  0.00000000000E+00  0.35742691287E+04  0.35742691287E+04  0.25500000000E-02 0. -1.
         -2   -1    0    0    0  501 -0.00000000000E+00 -0.00000000000E+00 -0.85211743972E+03  0.85211743973E+03  0.25500000000E-02 0.  1.
    8880022    1    1    2    0    0 -0.15414680202E+04  0.40211209946E+03  0.22437843848E+04  0.27560438705E+04  0.15294330000E+03 0.  0.
    8880022    1    1    2    0    0  0.15414680202E+04 -0.40211209946E+03  0.47836730419E+03  0.16703426979E+04  0.15294330000E+03 0.  0.
<mgrwt>
<rscale>  0 0.16003779E+04</rscale>
<asrwt>0</asrwt>
<pdfrwt beam="1">  1        2 0.54988754E+00 0.16003779E+04</pdfrwt>
<pdfrwt beam="2">  1       -2 0.13109500E+00 0.16003779E+04</pdfrwt>
<totfact> 0.28960693E-01</totfact>
</mgrwt>
</event>
<event>
 4    1  0.1033139E-008  0.7750320E+03  0.7818608E-02  0.9596877E-01
         -2   -1    0    0    0  501 -0.00000000000E+00  0.00000000000E+00  0.80271250527E+03  0.80271250528E+03  0.25500000000E-02 0.  1.
          2   -1    0    0  501    0  0.00000000000E+00 -0.00000000000E+00 -0.26431228946E+04  0.26431228946E+04  0.25500000000E-02 0. -1.
    8880022    1    1    2    0    0 -0.74378082198E+03  0.15515476860E+03 -0.23789841217E+04  0.25020471653E+04  0.15294330000E+03 0.  0.
    8880022    1    1    2    0    0  0.74378082198E+03 -0.15515476860E+03  0.53857373238E+03  0.94378823451E+03  0.15294330000E+03 0.  0.
<mgrwt>
<rscale>  0 0.77503198E+03</rscale>
<asrwt>0</asrwt>
<pdfrwt beam="1">  1        2 0.40663429E+00 0.77503198E+03</pdfrwt>
<pdfrwt beam="2">  1       -2 0.12349423E+00 0.77503198E+03</pdfrwt>
<totfact> 0.14900481E+00</totfact>
</mgrwt>
</event>
<event>
 4    1  0.1033139E-008  0.6221632E+03  0.7818608E-02  0.9860462E-01
          2   -1    0    0  501    0  0.00000000000E+00  0.00000000000E+00  0.20698892703E+04  0.20698892703E+04  0.25500000000E-02 0. -1.
         -2   -1    0    0    0  501 -0.00000000000E+00 -0.00000000000E+00 -0.82351515551E+03  0.82351515552E+03  0.25500000000E-02 0.  1.
    8880022    1    1    2    0    0 -0.13118964725E+03 -0.58862946646E+03  0.18950631371E+04  0.19945804870E+04  0.15294330000E+03 0.  0.
    8880022    1    1    2    0    0  0.13118964725E+03  0.58862946646E+03 -0.64868902233E+03  0.89882393884E+03  0.15294330000E+03 0.  0.
<mgrwt>
<rscale>  0 0.62216318E+03</rscale>
<asrwt>0</asrwt>
<pdfrwt beam="1">  1        2 0.31844450E+00 0.62216318E+03</pdfrwt>
<pdfrwt beam="2">  1       -2 0.12669464E+00 0.62216318E+03</pdfrwt>
<totfact> 0.30150329E+00</totfact>
</mgrwt>
</event>
<event>
 4    1  0.1033139E-008  0.3934497E+03  0.7818608E-02  0.1046072E+00
          2   -1    0    0  501    0  0.00000000000E+00  0.00000000000E+00  0.10286878653E+04  0.10286878653E+04  0.25500000000E-02 0. -1.
         -2   -1    0    0    0  501 -0.00000000000E+00 -0.00000000000E+00 -0.95816314569E+03  0.95816314569E+03  0.25500000000E-02 0.  1.
    8880022    1    1    2    0    0 -0.89011833197E+02 -0.35140845170E+03 -0.87682112675E+03  0.96105043973E+03  0.15294330000E+03 0.  1.
    8880022    1    1    2    0    0  0.89011833197E+02  0.35140845170E+03  0.94734584633E+03  0.10258005712E+04  0.15294330000E+03 0.  0.
<mgrwt>
<rscale>  0 0.39344969E+03</rscale>
<asrwt>0</asrwt>
<pdfrwt beam="1">  1        2 0.15825967E+00 0.39344969E+03</pdfrwt>
<pdfrwt beam="2">  1       -2 0.14740971E+00 0.39344969E+03</pdfrwt>
<totfact> 0.82092128E+00</totfact>
</mgrwt>
</event>
<event>
 4    1  0.1033139E-008  0.1183529E+04  0.7818608E-02  0.9127397E-01
         -2   -1    0    0    0  501 -0.00000000000E+00  0.00000000000E+00  0.95926737728E+03  0.95926737728E+03  0.25500000000E-02 0.  1.
          2   -1    0    0  501    0  0.00000000000E+00 -0.00000000000E+00 -0.32738245819E+04  0.32738245819E+04  0.25500000000E-02 0. -1.
    8880022    1    1    2    0    0  0.11562766100E+04  0.20092931721E+03  0.41805124880E+03  0.12551918933E+04  0.15294330000E+03 0.  0.
    8880022    1    1    2    0    0 -0.11562766100E+04 -0.20092931721E+03 -0.27326084534E+04  0.29779000659E+04  0.15294330000E+03 0.  0.
<mgrwt>
<rscale>  0 0.11835286E+04</rscale>
<asrwt>0</asrwt>
<pdfrwt beam="1">  1        2 0.50366532E+00 0.11835286E+04</pdfrwt>
<pdfrwt beam="2">  1       -2 0.14757960E+00 0.11835286E+04</pdfrwt>
<totfact> 0.36003023E-01</totfact>
</mgrwt>
</event>
<event>
 4    1  0.1033139E-008  0.2586329E+03  0.7818608E-02  0.1107967E+00
          2   -1    0    0  501    0  0.00000000000E+00  0.00000000000E+00  0.11377154115E+04  0.11377154115E+04  0.25500000000E-02 0. -1.
         -2   -1    0    0    0  501 -0.00000000000E+00 -0.00000000000E+00 -0.14631457791E+03  0.14631457794E+03  0.25500000000E-02 0.  1.
    8880022    1    1    2    0    0 -0.20853426692E+03  0.35745614665E+01 -0.84179515807E+00  0.25863425837E+03  0.15294330000E+03 0.  0.
    8880022    1    1    2    0    0  0.20853426692E+03 -0.35745614665E+01  0.99224262870E+03  0.10253957310E+04  0.15294330000E+03 0. -1.
<mgrwt>
<rscale>  0 0.25863289E+03</rscale>
<asrwt>0</asrwt>
<pdfrwt beam="1">  1        2 0.17503314E+00 0.25863289E+03</pdfrwt>
<pdfrwt beam="2">  1       -2 0.22509935E-01 0.25863289E+03</pdfrwt>
<totfact> 0.37448909E+02</totfact>
</mgrwt>
</event>
<event>
 4    1  0.1033139E-008  0.4309467E+03  0.7818608E-02  0.1033561E+00
          2   -1    0    0  501    0  0.00000000000E+00  0.00000000000E+00  0.20180089592E+04  0.20180089592E+04  0.25500000000E-02 0. -1.
         -2   -1    0    0    0  501 -0.00000000000E+00 -0.00000000000E+00 -0.29333127405E+03  0.29333127406E+03  0.25500000000E-02 0.  1.
    8880022    1    1    2    0    0 -0.40152888681E+03  0.33134913025E+02 -0.95029831486E+02  0.44130000147E+03  0.15294330000E+03 0.  0.
    8880022    1    1    2    0    0  0.40152888681E+03 -0.33134913025E+02  0.18197075166E+04  0.18700402318E+04  0.15294330000E+03 0.  0.
<mgrwt>
<rscale>  0 0.43094666E+03</rscale>
<asrwt>0</asrwt>
<pdfrwt beam="1">  1        2 0.31046291E+00 0.43094666E+03</pdfrwt>
<pdfrwt beam="2">  1       -2 0.45127889E-01 0.43094666E+03</pdfrwt>
<totfact> 0.33155601E+01</totfact>
</mgrwt>
</event>
<event>
 4    1  0.1033139E-008  0.1183225E+04  0.7818608E-02  0.9127668E-01
         -2   -1    0    0    0  501 -0.00000000000E+00  0.00000000000E+00  0.88122373441E+03  0.88122373442E+03  0.25500000000E-02 0.  1.
          2   -1    0    0  501    0  0.00000000000E+00 -0.00000000000E+00 -0.17031497989E+04  0.17031497989E+04  0.25500000000E-02 0. -1.
    8880022    1    1    2    0    0  0.11606060285E+04  0.17211105484E+03 -0.76026008914E+02  0.11856644448E+04  0.15294330000E+03 0.  0.
    8880022    1    1    2    0    0 -0.11606060285E+04 -0.17211105484E+03 -0.74590005559E+03  0.13987090886E+04  0.15294330000E+03 0.  0.
<mgrwt>
<rscale>  0 0.11832245E+04</rscale>
<asrwt>0</asrwt>
<pdfrwt beam="1">  1        2 0.26202305E+00 0.11832245E+04</pdfrwt>
<pdfrwt beam="2">  1       -2 0.13557288E+00 0.11832245E+04</pdfrwt>
<totfact> 0.37167828E+00</totfact>
</mgrwt>
</event>
<event>
 4    1  0.1033139E-008  0.4613651E+03  0.7818608E-02  0.1024386E+00
          2   -1    0    0  501    0  0.00000000000E+00  0.00000000000E+00  0.32226854543E+04  0.32226854543E+04  0.25500000000E-02 0. -1.
         -2   -1    0    0    0  501 -0.00000000000E+00 -0.00000000000E+00 -0.12281345570E+03  0.12281345573E+03  0.25500000000E-02 0.  1.
    8880022    1    1    2    0    0  0.40103430355E+03  0.16922634085E+03  0.26871523919E+04  0.27264712904E+04  0.15294330000E+03 0.  0.
    8880022    1    1    2    0    0 -0.40103430355E+03 -0.16922634085E+03  0.41271960660E+03  0.61902761954E+03  0.15294330000E+03 0.  0.
<mgrwt>
<rscale>  0 0.46136506E+03</rscale>
<asrwt>0</asrwt>
<pdfrwt beam="1">  1        2 0.49579774E+00 0.46136506E+03</pdfrwt>
<pdfrwt beam="2">  1       -2 0.18894379E-01 0.46136506E+03</pdfrwt>
<totfact> 0.33362604E+01</totfact>
</mgrwt>
</event>
<event>
 4    1  0.1033139E-008  0.6760856E+03  0.7818608E-02  0.9759026E-01
          2   -1    0    0  501    0  0.00000000000E+00  0.00000000000E+00  0.22838294370E+04  0.22838294370E+04  0.25500000000E-02 0. -1.
         -2   -1    0    0    0  501 -0.00000000000E+00 -0.00000000000E+00 -0.25847582876E+03  0.25847582877E+03  0.25500000000E-02 0.  1.
    8880022    1    1    2    0    0  0.40614221005E+03  0.51840971916E+03  0.16165494771E+04  0.17522340017E+04  0.15294330000E+03 0.  0.
    8880022    1    1    2    0    0 -0.40614221005E+03 -0.51840971916E+03  0.40880413115E+03  0.79007126410E+03  0.15294330000E+03 0.  0.
<mgrwt>
<rscale>  0 0.67608563E+03</rscale>
<asrwt>0</asrwt>
<pdfrwt beam="1">  1        2 0.35135838E+00 0.67608563E+03</pdfrwt>
<pdfrwt beam="2">  1       -2 0.39765511E-01 0.67608563E+03</pdfrwt>
<totfact> 0.29090125E+01</totfact>
</mgrwt>
</event>
<event>
 4    1  0.1033139E-008  0.1046310E+04  0.7818608E-02  0.9259163E-01
         -2   -1    0    0    0  501 -0.00000000000E+00  0.00000000000E+00  0.12384691649E+04  0.12384691649E+04  0.25500000000E-02 0.  1.
          2   -1    0    0  501    0  0.00000000000E+00 -0.00000000000E+00 -0.11192647817E+04  0.11192647817E+04  0.25500000000E-02 0. -1.
    8880022    1    1    2    0    0  0.34156837969E+03  0.97708903226E+03 -0.48091436332E+03  0.11515390627E+04  0.15294330000E+03 0.  0.
    8880022    1    1    2    0    0 -0.34156837969E+03 -0.97708903226E+03  0.60011874653E+03  0.12061948839E+04  0.15294330000E+03 0.  0.
<mgrwt>
<rscale>  0 0.10463095E+04</rscale>
<asrwt>0</asrwt>
<pdfrwt beam="1">  1        2 0.17219458E+00 0.10463095E+04</pdfrwt>
<pdfrwt beam="2">  1       -2 0.19053372E+00 0.10463095E+04</pdfrwt>
<totfact> 0.32152905E+00</totfact>
</mgrwt>
</event>
<event>
 4    1  0.1033139E-008  0.1716847E+04  0.7818608E-02  0.8751814E-01
          2   -1    0    0  501    0  0.00000000000E+00  0.00000000000E+00  0.19680117643E+04  0.19680117643E+04  0.25500000000E-02 0. -1.
         -2   -1    0    0    0  501 -0.00000000000E+00 -0.00000000000E+00 -0.16650545783E+04  0.16650545783E+04  0.25500000000E-02 0.  1.
    8880022    1    1    2    0    0 -0.80014689767E+03  0.15112702387E+04 -0.42435846577E+03  0.17685147873E+04  0.15294330000E+03 0.  0.
    8880022    1    1    2    0    0  0.80014689767E+03 -0.15112702387E+04  0.72731565182E+03  0.18645515554E+04  0.15294330000E+03 0.  0.
<mgrwt>
<rscale>  0 0.17168472E+04</rscale>
<asrwt>0</asrwt>
<pdfrwt beam="1">  1        2 0.30277104E+00 0.17168472E+04</pdfrwt>
<pdfrwt beam="2">  1       -2 0.25616224E+00 0.17168472E+04</pdfrwt>
<totfact> 0.37594284E-01</totfact>
</mgrwt>
</event>
<event>
 4    1  0.1033139E-008  0.2066731E+03  0.7818608E-02  0.1144228E+00
          2   -1    0    0  501    0  0.00000000000E+00  0.00000000000E+00  0.11529296179E+04  0.11529296179E+04  0.25500000000E-02 0. -1.
         -2   -1    0    0    0  501 -0.00000000000E+00 -0.00000000000E+00 -0.56424389813E+02  0.56424389870E+02  0.25500000000E-02 0.  1.
    8880022    1    1    2    0    0  0.12027749169E+03  0.69681007469E+02  0.19390777246E+03  0.28339723895E+03  0.15294330000E+03 0.  0.
    8880022    1    1    2    0    0 -0.12027749169E+03 -0.69681007469E+02  0.90259745560E+03  0.92595676880E+03  0.15294330000E+03 0. -1.
<mgrwt>
<rscale>  0 0.20667310E+03</rscale>
<asrwt>0</asrwt>
<pdfrwt beam="1">  1        2 0.17737378E+00 0.20667310E+03</pdfrwt>
<pdfrwt beam="2">  1       -2 0.86806756E-02 0.20667310E+03</pdfrwt>
<totfact> 0.17678374E+03</totfact>
</mgrwt>
</event>
<event>
 4    1  0.1033139E-008  0.5671938E+03  0.7818608E-02  0.9975908E-01
         -2   -1    0    0    0  501 -0.00000000000E+00  0.00000000000E+00  0.36253506800E+03  0.36253506801E+03  0.25500000000E-02 0.  1.
          2   -1    0    0  501    0  0.00000000000E+00 -0.00000000000E+00 -0.33594561158E+04  0.33594561158E+04  0.25500000000E-02 0. -1.
    8880022    1    1    2    0    0 -0.14835395266E+02  0.54598266891E+03  0.97937510727E+02  0.57558715476E+03  0.15294330000E+03 0.  0.
    8880022    1    1    2    0    0  0.14835395266E+02 -0.54598266891E+03 -0.30948585585E+04  0.31464040290E+04  0.15294330000E+03 0.  0.
<mgrwt>
<rscale>  0 0.56719381E+03</rscale>
<asrwt>0</asrwt>
<pdfrwt beam="1">  1        2 0.51683938E+00 0.56719381E+03</pdfrwt>
<pdfrwt beam="2">  1       -2 0.55774628E-01 0.56719381E+03</pdfrwt>
<totfact> 0.34653443E+00</totfact>
</mgrwt>
</event>
<event>
 4    1  0.1033139E-008  0.2158830E+03  0.7818608E-02  0.1136990E+00
         -2   -1    0    0    0  501 -0.00000000000E+00  0.00000000000E+00  0.45149300494E+03  0.45149300494E+03  0.25500000000E-02 0.  1.
          2   -1    0    0  501    0  0.00000000000E+00 -0.00000000000E+00 -0.29824932163E+03  0.29824932164E+03  0.25500000000E-02 0. -1.
    8880022    1    1    2    0    0 -0.14899624019E+03  0.31842125627E+02 -0.22651343008E+03  0.31291178881E+03  0.15294330000E+03 0.  0.
    8880022    1    1    2    0    0  0.14899624019E+03 -0.31842125627E+02  0.37975711338E+03  0.43683053778E+03  0.15294330000E+03 0.  1.
<mgrwt>
<rscale>  0 0.21588296E+03</rscale>
<asrwt>0</asrwt>
<pdfrwt beam="1">  1        2 0.45884512E-01 0.21588296E+03</pdfrwt>
<pdfrwt beam="2">  1       -2 0.69460461E-01 0.21588296E+03</pdfrwt>
<totfact> 0.21563689E+02</totfact>
</mgrwt>
</event>
<event>
 4    1  0.1033139E-008  0.1691917E+04  0.7818608E-02  0.8765988E-01
         -2   -1    0    0    0  501 -0.00000000000E+00  0.00000000000E+00  0.16073156844E+04  0.16073156844E+04  0.25500000000E-02 0.  1.
          2   -1    0    0  501    0  0.00000000000E+00 -0.00000000000E+00 -0.21149153273E+04  0.21149153274E+04  0.25500000000E-02 0. -1.
    8880022    1    1    2    0    0 -0.88320090313E+02  0.16826735253E+04  0.48574415984E+03  0.17602640918E+04  0.15294330000E+03 0.  0.
    8880022    1    1    2    0    0  0.88320090313E+02 -0.16826735253E+04 -0.99334380284E+03  0.19619669199E+04  0.15294330000E+03 0.  0.
<mgrwt>
<rscale>  0 0.16919167E+04</rscale>
<asrwt>0</asrwt>
<pdfrwt beam="1">  1        2 0.32537159E+00 0.16919167E+04</pdfrwt>
<pdfrwt beam="2">  1       -2 0.24727934E+00 0.16919167E+04</pdfrwt>
<totfact> 0.35369323E-01</totfact>
</mgrwt>
</event>
<event>
 4    1  0.1033139E-008  0.7196431E+03  0.7818608E-02  0.9684217E-01
          2   -1    0    0  501    0  0.00000000000E+00  0.00000000000E+00  0.28910308077E+04  0.28910308077E+04  0.25500000000E-02 0. -1.
         -2   -1    0    0    0  501 -0.00000000000E+00 -0.00000000000E+00 -0.19662956414E+03  0.19662956416E+03  0.25500000000E-02 0.  1.
    8880022    1    1    2    0    0  0.70133897244E+03  0.51168379547E+02  0.88671015430E+03  0.11419899772E+04  0.15294330000E+03 0.  0.
    8880022    1    1    2    0    0 -0.70133897244E+03 -0.51168379547E+02  0.18076910892E+04  0.19456703946E+04  0.15294330000E+03 0. -1.
<mgrwt>
<rscale>  0 0.71964311E+03</rscale>
<asrwt>0</asrwt>
<pdfrwt beam="1">  1        2 0.44477396E+00 0.71964311E+03</pdfrwt>
<pdfrwt beam="2">  1       -2 0.30250703E-01 0.71964311E+03</pdfrwt>
<totfact> 0.21787094E+01</totfact>
</mgrwt>
</event>
<event>
 4    1  0.1033139E-008  0.1185897E+04  0.7818608E-02  0.9125291E-01
         -2   -1    0    0    0  501 -0.00000000000E+00  0.00000000000E+00  0.81937390008E+03  0.81937390009E+03  0.25500000000E-02 0.  1.
          2   -1    0    0  501    0  0.00000000000E+00 -0.00000000000E+00 -0.25778620202E+04  0.25778620202E+04  0.25500000000E-02 0. -1.
    8880022    1    1    2    0    0 -0.10335117145E+04  0.56108301057E+03 -0.18611964612E+04  0.22068993019E+04  0.15294330000E+03 0.  0.
    8880022    1    1    2    0    0  0.10335117145E+04 -0.56108301057E+03  0.10270834107E+03  0.11903366184E+04  0.15294330000E+03 0.  0.
<mgrwt>
<rscale>  0 0.11858972E+04</rscale>
<asrwt>0</asrwt>
<pdfrwt beam="1">  1        2 0.39659415E+00 0.11858972E+04</pdfrwt>
<pdfrwt beam="2">  1       -2 0.12605752E+00 0.11858972E+04</pdfrwt>
<totfact> 0.14465645E+00</totfact>
</mgrwt>
</event>
<event>
 4    1  0.1033139E-008  0.4592009E+03  0.7818608E-02  0.1025013E+00
         -2   -1    0    0    0  501 -0.00000000000E+00  0.00000000000E+00  0.15019370246E+03  0.15019370248E+03  0.25500000000E-02 0.  1.
          2   -1    0    0  501    0  0.00000000000E+00 -0.00000000000E+00 -0.17039152735E+04  0.17039152735E+04  0.25500000000E-02 0. -1.
    8880022    1    1    2    0    0 -0.16409511302E+03 -0.40068264713E+03 -0.11658270720E+04  0.12530036730E+04  0.15294330000E+03 0.  0.
    8880022    1    1    2    0    0  0.16409511302E+03  0.40068264713E+03 -0.38789449903E+03  0.60110530293E+03  0.15294330000E+03 0.  0.
<mgrwt>
<rscale>  0 0.45920087E+03</rscale>
<asrwt>0</asrwt>
<pdfrwt beam="1">  1        2 0.26214080E+00 0.45920087E+03</pdfrwt>
<pdfrwt beam="2">  1       -2 0.23106725E-01 0.45920087E+03</pdfrwt>
<totfact> 0.16944663E+02</totfact>
</mgrwt>
</event>
<event>
 4    1  0.1033139E-008  0.1760568E+03  0.7818608E-02  0.1171675E+00
         -2   -1    0    0    0  501 -0.00000000000E+00  0.00000000000E+00  0.46462657499E+03  0.46462657499E+03  0.25500000000E-02 0.  1.
          2   -1    0    0  501    0  0.00000000000E+00 -0.00000000000E+00 -0.41114770016E+03  0.41114770016E+03  0.25500000000E-02 0. -1.
    8880022    1    1    2    0    0 -0.33901438165E+02  0.80343286820E+02  0.42753006548E+03  0.46236128855E+03  0.15294330000E+03 0.  1.
    8880022    1    1    2    0    0  0.33901438165E+02 -0.80343286820E+02 -0.37405119065E+03  0.41341298660E+03  0.15294330000E+03 0.  0.
<mgrwt>
<rscale>  0 0.17605682E+03</rscale>
<asrwt>0</asrwt>
<pdfrwt beam="1">  1        2 0.63253492E-01 0.17605682E+03</pdfrwt>
<pdfrwt beam="2">  1       -2 0.71481012E-01 0.17605682E+03</pdfrwt>
<totfact> 0.14411138E+02</totfact>
</mgrwt>
</event>
<event>
 4    1  0.1033139E-008  0.4180550E+03  0.7818608E-02  0.1037701E+00
          2   -1    0    0  501    0  0.00000000000E+00  0.00000000000E+00  0.13750667731E+04  0.13750667731E+04  0.25500000000E-02 0. -1.
         -2   -1    0    0    0  501 -0.00000000000E+00 -0.00000000000E+00 -0.13717040955E+03  0.13717040957E+03  0.25500000000E-02 0.  1.
    8880022    1    1    2    0    0 -0.26118718078E+03 -0.28837408663E+03  0.41406864689E+03  0.58840704839E+03  0.15294330000E+03 0.  0.
    8880022    1    1    2    0    0  0.26118718078E+03  0.28837408663E+03  0.82382771663E+03  0.92383013424E+03  0.15294330000E+03 0.  0.
<mgrwt>
<rscale>  0 0.41805503E+03</rscale>
<asrwt>0</asrwt>
<pdfrwt beam="1">  1        2 0.21154874E+00 0.41805503E+03</pdfrwt>
<pdfrwt beam="2">  1       -2 0.21103140E-01 0.41805503E+03</pdfrwt>
<totfact> 0.30175516E+02</totfact>
</mgrwt>
</event>
<event>
 4    1  0.1033139E-008  0.7095291E+03  0.7818608E-02  0.9701074E-01
          2   -1    0    0  501    0  0.00000000000E+00  0.00000000000E+00  0.21865203038E+04  0.21865203038E+04  0.25500000000E-02 0. -1.
         -2   -1    0    0    0  501 -0.00000000000E+00 -0.00000000000E+00 -0.37730488735E+03  0.37730488735E+03  0.25500000000E-02 0.  1.
    8880022    1    1    2    0    0 -0.18701120812E+03 -0.66713314470E+03  0.17049245211E+04  0.18466724400E+04  0.15294330000E+03 0.  0.
    8880022    1    1    2    0    0  0.18701120812E+03  0.66713314470E+03  0.10429089534E+03  0.71715275122E+03  0.15294330000E+03 0.  0.
<mgrwt>
<rscale>  0 0.70952905E+03</rscale>
<asrwt>0</asrwt>
<pdfrwt beam="1">  1        2 0.33638774E+00 0.70952905E+03</pdfrwt>
<pdfrwt beam="2">  1       -2 0.58046906E-01 0.70952905E+03</pdfrwt>
<totfact> 0.15259367E+01</totfact>
</mgrwt>
</event>
<event>
 4    1  0.1033139E-008  0.9606974E+03  0.7818608E-02  0.9352734E-01
          2   -1    0    0  501    0  0.00000000000E+00  0.00000000000E+00  0.37880880206E+04  0.37880880206E+04  0.25500000000E-02 0. -1.
         -2   -1    0    0    0  501 -0.00000000000E+00 -0.00000000000E+00 -0.42122171882E+03  0.42122171883E+03  0.25500000000E-02 0.  1.
    8880022    1    1    2    0    0 -0.27101291913E+03 -0.90890031213E+03  0.30499705362E+04  0.31976959994E+04  0.15294330000E+03 0.  0.
    8880022    1    1    2    0    0  0.27101291913E+03  0.90890031213E+03  0.31689576553E+03  0.10116137400E+04  0.15294330000E+03 0.  0.
<mgrwt>
<rscale>  0 0.96069737E+03</rscale>
<asrwt>0</asrwt>
<pdfrwt beam="1">  1        2 0.58278277E+00 0.96069737E+03</pdfrwt>
<pdfrwt beam="2">  1       -2 0.64803341E-01 0.96069737E+03</pdfrwt>
<totfact> 0.11610438E+00</totfact>
</mgrwt>
</event>
<event>
 4    1  0.1033139E-008  0.5334538E+03  0.7818608E-02  0.1005398E+00
         -2   -1    0    0    0  501 -0.00000000000E+00  0.00000000000E+00  0.20122916110E+03  0.20122916111E+03  0.25500000000E-02 0.  1.
          2   -1    0    0  501    0  0.00000000000E+00 -0.00000000000E+00 -0.25081165967E+04  0.25081165967E+04  0.25500000000E-02 0. -1.
    8880022    1    1    2    0    0 -0.48880922605E+03 -0.14915392213E+03 -0.25878399913E+03  0.59290991152E+03  0.15294330000E+03 0.  0.
    8880022    1    1    2    0    0  0.48880922605E+03  0.14915392213E+03 -0.20481034364E+04  0.21164358462E+04  0.15294330000E+03 0.  0.
<mgrwt>
<rscale>  0 0.53345385E+03</rscale>
<asrwt>0</asrwt>
<pdfrwt beam="1">  1        2 0.38586407E+00 0.53345385E+03</pdfrwt>
<pdfrwt beam="2">  1       -2 0.30958334E-01 0.53345385E+03</pdfrwt>
<totfact> 0.35996282E+01</totfact>
</mgrwt>
</event>
<event>
 4    1  0.1033139E-008  0.5450304E+03  0.7818608E-02  0.1002651E+00
          2   -1    0    0  501    0  0.00000000000E+00  0.00000000000E+00  0.23920290364E+04  0.23920290364E+04  0.25500000000E-02 0. -1.
         -2   -1    0    0    0  501 -0.00000000000E+00 -0.00000000000E+00 -0.16078930289E+03  0.16078930291E+03  0.25500000000E-02 0.  1.
    8880022    1    1    2    0    0  0.41574752304E+02 -0.52147680591E+03  0.50661975190E+03  0.74412481827E+03  0.15294330000E+03 0.  0.
    8880022    1    1    2    0    0 -0.41574752304E+02  0.52147680591E+03  0.17246199816E+04  0.18086935211E+04  0.15294330000E+03 0.  0.
<mgrwt>
<rscale>  0 0.54503043E+03</rscale>
<asrwt>0</asrwt>
<pdfrwt beam="1">  1        2 0.36800443E+00 0.54503043E+03</pdfrwt>
<pdfrwt beam="2">  1       -2 0.24736818E-01 0.54503043E+03</pdfrwt>
<totfact> 0.62759200E+01</totfact>
</mgrwt>
</event>
<event>
 4    1  0.1033139E-008  0.4368901E+03  0.7818608E-02  0.1031705E+00
         -2   -1    0    0    0  501 -0.00000000000E+00  0.00000000000E+00  0.47493032319E+03  0.47493032320E+03  0.25500000000E-02 0.  1.
          2   -1    0    0  501    0  0.00000000000E+00 -0.00000000000E+00 -0.11409405170E+04  0.11409405170E+04  0.25500000000E-02 0. -1.
    8880022    1    1    2    0    0  0.28852994911E+03  0.29022710425E+03 -0.98325489182E+03  0.10759475540E+04  0.15294330000E+03 0.  0.
    8880022    1    1    2    0    0 -0.28852994911E+03 -0.29022710425E+03  0.31724469802E+03  0.53992328623E+03  0.15294330000E+03 0.  0.
<mgrwt>
<rscale>  0 0.43689010E+03</rscale>
<asrwt>0</asrwt>
<pdfrwt beam="1">  1        2 0.17552931E+00 0.43689010E+03</pdfrwt>
<pdfrwt beam="2">  1       -2 0.73066204E-01 0.43689010E+03</pdfrwt>
<totfact> 0.36850932E+01</totfact>
</mgrwt>
</event>
<event>
 4    1  0.1033139E-008  0.9865070E+03  0.7818608E-02  0.9323469E-01
         -2   -1    0    0    0  501 -0.00000000000E+00  0.00000000000E+00  0.43271258161E+03  0.43271258162E+03  0.25500000000E-02 0.  1.
          2   -1    0    0  501    0  0.00000000000E+00 -0.00000000000E+00 -0.33843514513E+04  0.33843514513E+04  0.25500000000E-02 0. -1.
    8880022    1    1    2    0    0 -0.14404123902E+03  0.96387582608E+03 -0.37042928387E+03  0.10537618298E+04  0.15294330000E+03 0.  0.
    8880022    1    1    2    0    0  0.14404123902E+03 -0.96387582608E+03 -0.25812095859E+04  0.27633022031E+04  0.15294330000E+03 0.  0.
<mgrwt>
<rscale>  0 0.98650704E+03</rscale>
<asrwt>0</asrwt>
<pdfrwt beam="1">  1        2 0.52066944E+00 0.98650704E+03</pdfrwt>
<pdfrwt beam="2">  1       -2 0.66571169E-01 0.98650704E+03</pdfrwt>
<totfact> 0.20971030E+00</totfact>
</mgrwt>
</event>
<event>
 4    1  0.1033139E-008  0.1641303E+04  0.7818608E-02  0.8795568E-01
          2   -1    0    0  501    0  0.00000000000E+00  0.00000000000E+00  0.18107978418E+04  0.18107978419E+04  0.25500000000E-02 0. -1.
         -2   -1    0    0    0  501 -0.00000000000E+00 -0.00000000000E+00 -0.17243619333E+04  0.17243619333E+04  0.25500000000E-02 0.  1.
    8880022    1    1    2    0    0  0.12158672003E+04  0.10918559722E+04  0.69808670330E+03  0.17835916604E+04  0.15294330000E+03 0.  0.
    8880022    1    1    2    0    0 -0.12158672003E+04 -0.10918559722E+04 -0.61165079472E+03  0.17515681147E+04  0.15294330000E+03 0.  0.
<mgrwt>
<rscale>  0 0.16413026E+04</rscale>
<asrwt>0</asrwt>
<pdfrwt beam="1">  1        2 0.27858428E+00 0.16413026E+04</pdfrwt>
<pdfrwt beam="2">  1       -2 0.26528645E+00 0.16413026E+04</pdfrwt>
<totfact> 0.40756880E-01</totfact>
</mgrwt>
</event>
<event>
 4    1  0.1033139E-008  0.1145623E+04  0.7818608E-02  0.9161831E-01
         -2   -1    0    0    0  501 -0.00000000000E+00  0.00000000000E+00  0.10183054078E+04  0.10183054078E+04  0.25500000000E-02 0.  1.
          2   -1    0    0  501    0  0.00000000000E+00 -0.00000000000E+00 -0.15087278638E+04  0.15087278638E+04  0.25500000000E-02 0. -1.
    8880022    1    1    2    0    0 -0.10454342541E+04 -0.44286409630E+03 -0.72755475273E+03  0.13571252553E+04  0.15294330000E+03 0.  0.
    8880022    1    1    2    0    0  0.10454342541E+04  0.44286409630E+03  0.23713229672E+03  0.11699080163E+04  0.15294330000E+03 0.  0.
<mgrwt>
<rscale>  0 0.11456234E+04</rscale>
<asrwt>0</asrwt>
<pdfrwt beam="1">  1        2 0.23211198E+00 0.11456234E+04</pdfrwt>
<pdfrwt beam="2">  1       -2 0.15666237E+00 0.11456234E+04</pdfrwt>
<totfact> 0.32701887E+00</totfact>
</mgrwt>
</event>
<event>
 4    1  0.1033139E-008  0.7154327E+03  0.7818608E-02  0.9691198E-01
          2   -1    0    0  501    0  0.00000000000E+00  0.00000000000E+00  0.19698448123E+04  0.19698448123E+04  0.25500000000E-02 0. -1.
         -2   -1    0    0    0  501 -0.00000000000E+00 -0.00000000000E+00 -0.76238452511E+03  0.76238452512E+03  0.25500000000E-02 0.  1.
    8880022    1    1    2    0    0  0.59846400847E+03  0.36096145762E+03  0.17128730261E+04  0.18562806899E+04  0.15294330000E+03 0.  0.
    8880022    1    1    2    0    0 -0.59846400847E+03 -0.36096145762E+03 -0.50541273891E+03  0.87594864746E+03  0.15294330000E+03 0.  0.
<mgrwt>
<rscale>  0 0.71543273E+03</rscale>
<asrwt>0</asrwt>
<pdfrwt beam="1">  1        2 0.30305305E+00 0.71543273E+03</pdfrwt>
<pdfrwt beam="2">  1       -2 0.11728993E+00 0.71543273E+03</pdfrwt>
<totfact> 0.40646871E+00</totfact>
</mgrwt>
</event>
<event>
 4    1  0.1033139E-008  0.4694627E+03  0.7818608E-02  0.1022072E+00
          2   -1    0    0  501    0  0.00000000000E+00  0.00000000000E+00  0.34334257074E+04  0.34334257074E+04  0.25500000000E-02 0. -1.
         -2   -1    0    0    0  501 -0.00000000000E+00 -0.00000000000E+00 -0.13381173882E+03  0.13381173884E+03  0.25500000000E-02 0.  1.
    8880022    1    1    2    0    0 -0.43563601113E+03  0.84999247698E+02  0.36326482997E+03  0.59359632412E+03  0.15294330000E+03 0.  0.
    8880022    1    1    2    0    0  0.43563601113E+03 -0.84999247698E+02  0.29363491387E+04  0.29736411222E+04  0.15294330000E+03 0.  0.
<mgrwt>
<rscale>  0 0.46946273E+03</rscale>
<asrwt>0</asrwt>
<pdfrwt beam="1">  1        2 0.52821933E+00 0.46946273E+03</pdfrwt>
<pdfrwt beam="2">  1       -2 0.20586422E-01 0.46946273E+03</pdfrwt>
<totfact> 0.20969981E+01</totfact>
</mgrwt>
</event>
<event>
 4    1  0.1033139E-008  0.6166062E+03  0.7818608E-02  0.9871540E-01
          2   -1    0    0  501    0  0.00000000000E+00  0.00000000000E+00  0.33525537332E+04  0.33525537332E+04  0.25500000000E-02 0. -1.
         -2   -1    0    0    0  501 -0.00000000000E+00 -0.00000000000E+00 -0.46468231725E+03  0.46468231726E+03  0.25500000000E-02 0.  1.
    8880022    1    1    2    0    0  0.57866775768E+03  0.14817263932E+03  0.31033879086E+04  0.31640511483E+04  0.15294330000E+03 0. -1.
    8880022    1    1    2    0    0 -0.57866775768E+03 -0.14817263932E+03 -0.21551649263E+03  0.65318490218E+03  0.15294330000E+03 0.  0.
<mgrwt>
<rscale>  0 0.61660616E+03</rscale>
<asrwt>0</asrwt>
<pdfrwt beam="1">  1        2 0.51577751E+00 0.61660616E+03</pdfrwt>
<pdfrwt beam="2">  1       -2 0.71489585E-01 0.61660616E+03</pdfrwt>
<totfact> 0.20363844E+00</totfact>
</mgrwt>
</event>
<event>
 4    1  0.1033139E-008  0.1071568E+04  0.7818608E-02  0.9233356E-01
          2   -1    0    0  501    0  0.00000000000E+00  0.00000000000E+00  0.10863073327E+04  0.10863073327E+04  0.25500000000E-02 0. -1.
         -2   -1    0    0    0  501 -0.00000000000E+00 -0.00000000000E+00 -0.11255581621E+04  0.11255581621E+04  0.25500000000E-02 0.  1.
    8880022    1    1    2    0    0 -0.81835761279E+03 -0.67465299456E+03 -0.29251373772E+03  0.11107753082E+04  0.15294330000E+03 0.  0.
    8880022    1    1    2    0    0  0.81835761279E+03  0.67465299456E+03  0.25326290833E+03  0.11010901867E+04  0.15294330000E+03 0.  0.
<mgrwt>
<rscale>  0 0.10715678E+04</rscale>
<asrwt>0</asrwt>
<pdfrwt beam="1">  1        2 0.16712421E+00 0.10715678E+04</pdfrwt>
<pdfrwt beam="2">  1       -2 0.17316279E+00 0.10715678E+04</pdfrwt>
<totfact> 0.44249518E+00</totfact>
</mgrwt>
</event>
<event>
 4    1  0.1033139E-008  0.6067969E+03  0.7818608E-02  0.9891404E-01
          2   -1    0    0  501    0  0.00000000000E+00  0.00000000000E+00  0.25645713687E+04  0.25645713687E+04  0.25500000000E-02 0. -1.
         -2   -1    0    0    0  501 -0.00000000000E+00 -0.00000000000E+00 -0.39591447183E+03  0.39591447183E+03  0.25500000000E-02 0.  1.
    8880022    1    1    2    0    0 -0.57241652980E+03 -0.13095859579E+03  0.22660818470E+04  0.23459176089E+04  0.15294330000E+03 0.  0.
    8880022    1    1    2    0    0  0.57241652980E+03  0.13095859579E+03 -0.97424950138E+02  0.61456823163E+03  0.15294330000E+03 0.  0.
<mgrwt>
<rscale>  0 0.60679691E+03</rscale>
<asrwt>0</asrwt>
<pdfrwt beam="1">  1        2 0.39454943E+00 0.60679691E+03</pdfrwt>
<pdfrwt beam="2">  1       -2 0.60909921E-01 0.60679691E+03</pdfrwt>
<totfact> 0.86491519E+00</totfact>
</mgrwt>
</event>
<event>
 4    1  0.1033139E-008  0.1326480E+04  0.7818608E-02  0.9008826E-01
          2   -1    0    0  501    0  0.00000000000E+00  0.00000000000E+00  0.11555375727E+04  0.11555375727E+04  0.25500000000E-02 0. -1.
         -2   -1    0    0    0  501 -0.00000000000E+00 -0.00000000000E+00 -0.20324313294E+04  0.20324313294E+04  0.25500000000E-02 0.  1.
    8880022    1    1    2    0    0  0.93188091078E+03  0.93153452982E+03  0.35980865238E+03  0.13744135227E+04  0.15294330000E+03 0.  0.
    8880022    1    1    2    0    0 -0.93188091078E+03 -0.93153452982E+03 -0.12367024091E+04  0.18135553793E+04  0.15294330000E+03 0.  0.
<mgrwt>
<rscale>  0 0.13264804E+04</rscale>
<asrwt>0</asrwt>
<pdfrwt beam="1">  1        2 0.17777501E+00 0.13264804E+04</pdfrwt>
<pdfrwt beam="2">  1       -2 0.31268174E+00 0.13264804E+04</pdfrwt>
<totfact> 0.51555501E-01</totfact>
</mgrwt>
</event>
<event>
 4    1  0.1033139E-008  0.6622114E+03  0.7818608E-02  0.9784131E-01
          2   -1    0    0  501    0  0.00000000000E+00  0.00000000000E+00  0.10472953054E+04  0.10472953054E+04  0.25500000000E-02 0. -1.
         -2   -1    0    0    0  501 -0.00000000000E+00 -0.00000000000E+00 -0.12733307671E+04  0.12733307671E+04  0.25500000000E-02 0.  1.
    8880022    1    1    2    0    0 -0.31465143372E+03 -0.56225146451E+03  0.83756219549E+03  0.10677238961E+04  0.15294330000E+03 0. -1.
    8880022    1    1    2    0    0  0.31465143372E+03  0.56225146451E+03 -0.10635976572E+04  0.12529021763E+04  0.15294330000E+03 0.  0.
<mgrwt>
<rscale>  0 0.66221136E+03</rscale>
<asrwt>0</asrwt>
<pdfrwt beam="1">  1        2 0.16112235E+00 0.66221136E+03</pdfrwt>
<pdfrwt beam="2">  1       -2 0.19589704E+00 0.66221136E+03</pdfrwt>
<totfact> 0.34551820E+00</totfact>
</mgrwt>
</event>
<event>
 4    1  0.1033139E-008  0.8229123E+03  0.7818608E-02  0.9527432E-01
          2   -1    0    0  501    0  0.00000000000E+00  0.00000000000E+00  0.50004032305E+03  0.50004032305E+03  0.25500000000E-02 0. -1.
         -2   -1    0    0    0  501 -0.00000000000E+00 -0.00000000000E+00 -0.22743442798E+04  0.22743442798E+04  0.25500000000E-02 0.  1.
    8880022    1    1    2    0    0  0.53855544732E+03  0.60311770207E+03 -0.17694643774E+04  0.19514581134E+04  0.15294330000E+03 0.  0.
    8880022    1    1    2    0    0 -0.53855544732E+03 -0.60311770207E+03 -0.48395792644E+01  0.82292648938E+03  0.15294330000E+03 0.  0.
<mgrwt>
<rscale>  0 0.82291226E+03</rscale>
<asrwt>0</asrwt>
<pdfrwt beam="1">  1        2 0.76929282E-01 0.82291226E+03</pdfrwt>
<pdfrwt beam="2">  1       -2 0.34989911E+00 0.82291226E+03</pdfrwt>
<totfact> 0.99881278E-01</totfact>
</mgrwt>
</event>
<event>
 4    1  0.1033139E-008  0.1663617E+04  0.7818608E-02  0.8782391E-01
          2   -1    0    0  501    0  0.00000000000E+00  0.00000000000E+00  0.32720497087E+04  0.32720497087E+04  0.25500000000E-02 0. -1.
         -2   -1    0    0    0  501 -0.00000000000E+00 -0.00000000000E+00 -0.13283316939E+04  0.13283316939E+04  0.25500000000E-02 0.  1.
    8880022    1    1    2    0    0 -0.13674748037E+04  0.93500915994E+03 -0.41443961024E+03  0.17144623972E+04  0.15294330000E+03 0.  0.
    8880022    1    1    2    0    0  0.13674748037E+04 -0.93500915994E+03  0.23581576251E+04  0.28859190054E+04  0.15294330000E+03 0.  0.
<mgrwt>
<rscale>  0 0.16636169E+04</rscale>
<asrwt>0</asrwt>
<pdfrwt beam="1">  1        2 0.50339226E+00 0.16636169E+04</pdfrwt>
<pdfrwt beam="2">  1       -2 0.20435872E+00 0.16636169E+04</pdfrwt>
<totfact> 0.13406446E-01</totfact>
</mgrwt>
</event>
<event>
 4    1  0.1033139E-008  0.1650358E+04  0.7818608E-02  0.8790195E-01
          2   -1    0    0  501    0  0.00000000000E+00  0.00000000000E+00  0.17185061295E+04  0.17185061295E+04  0.25500000000E-02 0. -1.
         -2   -1    0    0    0  501 -0.00000000000E+00 -0.00000000000E+00 -0.19198765762E+04  0.19198765762E+04  0.25500000000E-02 0.  1.
    8880022    1    1    2    0    0  0.10506469574E+04 -0.12634994165E+04  0.65918773752E+03  0.17771353158E+04  0.15294330000E+03 0.  0.
    8880022    1    1    2    0    0 -0.10506469574E+04  0.12634994165E+04 -0.86055818422E+03  0.18612473898E+04  0.15294330000E+03 0.  0.
<mgrwt>
<rscale>  0 0.16503580E+04</rscale>
<asrwt>0</asrwt>
<pdfrwt beam="1">  1        2 0.26438556E+00 0.16503580E+04</pdfrwt>
<pdfrwt beam="2">  1       -2 0.29536563E+00 0.16503580E+04</pdfrwt>
<totfact> 0.30031499E-01</totfact>
</mgrwt>
</event>
<event>
 4    1  0.1033139E-008  0.8718434E+03  0.7818608E-02  0.9461479E-01
          2   -1    0    0  501    0  0.00000000000E+00  0.00000000000E+00  0.88658310957E+03  0.88658310957E+03  0.25500000000E-02 0. -1.
         -2   -1    0    0    0  501 -0.00000000000E+00 -0.00000000000E+00 -0.21657121018E+04  0.21657121018E+04  0.25500000000E-02 0.  1.
    8880022    1    1    2    0    0 -0.16013870640E+03 -0.84325258390E+03  0.54664214880E+03  0.10290425732E+04  0.15294330000E+03 0.  0.
    8880022    1    1    2    0    0  0.16013870640E+03  0.84325258390E+03 -0.18257711411E+04  0.20232526382E+04  0.15294330000E+03 0.  0.
<mgrwt>
<rscale>  0 0.87184344E+03</rscale>
<asrwt>0</asrwt>
<pdfrwt beam="1">  1        2 0.13639740E+00 0.87184344E+03</pdfrwt>
<pdfrwt beam="2">  1       -2 0.33318648E+00 0.87184344E+03</pdfrwt>
<totfact> 0.61163386E-01</totfact>
</mgrwt>
</event>
<event>
 4    1  0.1033139E-008  0.5084645E+03  0.7818608E-02  0.1011593E+00
          2   -1    0    0  501    0  0.00000000000E+00  0.00000000000E+00  0.24366047961E+04  0.24366047961E+04  0.25500000000E-02 0. -1.
         -2   -1    0    0    0  501 -0.00000000000E+00 -0.00000000000E+00 -0.22653245292E+03  0.22653245293E+03  0.25500000000E-02 0.  1.
    8880022    1    1    2    0    0 -0.46172386391E+03  0.14817403986E+03  0.13416643984E+03  0.52586762515E+03  0.15294330000E+03 0.  0.
    8880022    1    1    2    0    0  0.46172386391E+03 -0.14817403986E+03  0.20759059033E+04  0.21372696239E+04  0.15294330000E+03 0.  0.
<mgrwt>
<rscale>  0 0.50846448E+03</rscale>
<asrwt>0</asrwt>
<pdfrwt beam="1">  1        2 0.37486228E+00 0.50846448E+03</pdfrwt>
<pdfrwt beam="2">  1       -2 0.34851146E-01 0.50846448E+03</pdfrwt>
<totfact> 0.31776373E+01</totfact>
</mgrwt>
</event>
<event>
 4    1  0.1033139E-008  0.9312789E+03  0.7818608E-02  0.9387304E-01
         -2   -1    0    0    0  501 -0.00000000000E+00  0.00000000000E+00  0.46656139183E+03  0.46656139184E+03  0.25500000000E-02 0.  1.
          2   -1    0    0  501    0  0.00000000000E+00 -0.00000000000E+00 -0.33062937709E+04  0.33062937709E+04  0.25500000000E-02 0. -1.
    8880022    1    1    2    0    0  0.75678851479E+03  0.52073016899E+03 -0.26680144081E+04  0.28258770851E+04  0.15294330000E+03 0.  0.
    8880022    1    1    2    0    0 -0.75678851479E+03 -0.52073016899E+03 -0.17171797095E+03  0.94697807766E+03  0.15294330000E+03 0.  0.
<mgrwt>
<rscale>  0 0.93127892E+03</rscale>
<asrwt>0</asrwt>
<pdfrwt beam="1">  1        2 0.50866057E+00 0.93127892E+03</pdfrwt>
<pdfrwt beam="2">  1       -2 0.71778678E-01 0.93127892E+03</pdfrwt>
<totfact> 0.20223670E+00</totfact>
</mgrwt>
</event>
<event>
 4    1  0.1033139E-008  0.4154521E+03  0.7818608E-02  0.1038557E+00
          2   -1    0    0  501    0  0.00000000000E+00  0.00000000000E+00  0.75667041004E+03  0.75667041005E+03  0.25500000000E-02 0. -1.
         -2   -1    0    0    0  501 -0.00000000000E+00 -0.00000000000E+00 -0.39406784977E+03  0.39406784978E+03  0.25500000000E-02 0.  1.
    8880022    1    1    2    0    0 -0.38608876634E+03 -0.12012441370E+02 -0.19209172655E+03  0.45771139232E+03  0.15294330000E+03 0.  0.
    8880022    1    1    2    0    0  0.38608876634E+03  0.12012441370E+02  0.55469428682E+03  0.69302686750E+03  0.15294330000E+03 0.  0.
<mgrwt>
<rscale>  0 0.41545215E+03</rscale>
<asrwt>0</asrwt>
<pdfrwt beam="1">  1        2 0.11641083E+00 0.41545215E+03</pdfrwt>
<pdfrwt beam="2">  1       -2 0.60625824E-01 0.41545215E+03</pdfrwt>
<totfact> 0.97813179E+01</totfact>
</mgrwt>
</event>
<event>
 4    1  0.1033139E-008  0.1045790E+04  0.7818608E-02  0.9259702E-01
         -2   -1    0    0    0  501 -0.00000000000E+00  0.00000000000E+00  0.92920913613E+03  0.92920913614E+03  0.25500000000E-02 0.  1.
          2   -1    0    0  501    0  0.00000000000E+00 -0.00000000000E+00 -0.12460854242E+04  0.12460854242E+04  0.25500000000E-02 0. -1.
    8880022    1    1    2    0    0 -0.26186418130E+03 -0.10008553787E+04  0.97666868918E+02  0.10503403300E+04  0.15294330000E+03 0.  0.
    8880022    1    1    2    0    0  0.26186418130E+03  0.10008553787E+04 -0.41454315703E+03  0.11249542304E+04  0.15294330000E+03 0.  0.
<mgrwt>
<rscale>  0 0.10457896E+04</rscale>
<asrwt>0</asrwt>
<pdfrwt beam="1">  1        2 0.19170545E+00 0.10457896E+04</pdfrwt>
<pdfrwt beam="2">  1       -2 0.14295525E+00 0.10457896E+04</pdfrwt>
<totfact> 0.59699836E+00</totfact>
</mgrwt>
</event>
<event>
 4    1  0.1033139E-008  0.2918161E+03  0.7818608E-02  0.1089405E+00
          2   -1    0    0  501    0  0.00000000000E+00  0.00000000000E+00  0.33761915224E+03  0.33761915225E+03  0.25500000000E-02 0. -1.
         -2   -1    0    0    0  501 -0.00000000000E+00 -0.00000000000E+00 -0.18607229321E+04  0.18607229321E+04  0.25500000000E-02 0.  1.
    8880022    1    1    2    0    0 -0.35673978252E+02  0.24595190049E+03  0.26040934838E+03  0.39111334906E+03  0.15294330000E+03 0. -1.
    8880022    1    1    2    0    0  0.35673978252E+02 -0.24595190049E+03 -0.17835131283E+04  0.18072287353E+04  0.15294330000E+03 0.  0.
<mgrwt>
<rscale>  0 0.29181608E+03</rscale>
<asrwt>0</asrwt>
<pdfrwt beam="1">  1        2 0.51941409E-01 0.29181608E+03</pdfrwt>
<pdfrwt beam="2">  1       -2 0.28626506E+00 0.29181608E+03</pdfrwt>
<totfact> 0.42363445E+00</totfact>
</mgrwt>
</event>
<event>
 4    1  0.1033139E-008  0.5803368E+03  0.7818608E-02  0.9947062E-01
          2   -1    0    0  501    0  0.00000000000E+00  0.00000000000E+00  0.11009965403E+04  0.11009965403E+04  0.25500000000E-02 0. -1.
         -2   -1    0    0    0  501 -0.00000000000E+00 -0.00000000000E+00 -0.10808312660E+04  0.10808312660E+04  0.25500000000E-02 0.  1.
    8880022    1    1    2    0    0 -0.64341008642E+02 -0.55611090767E+03 -0.91364546808E+03  0.10823764601E+04  0.15294330000E+03 0.  0.
    8880022    1    1    2    0    0  0.64341008642E+02  0.55611090767E+03  0.93381074236E+03  0.10994513462E+04  0.15294330000E+03 0.  0.
<mgrwt>
<rscale>  0 0.58033676E+03</rscale>
<asrwt>0</asrwt>
<pdfrwt beam="1">  1        2 0.16938408E+00 0.58033676E+03</pdfrwt>
<pdfrwt beam="2">  1       -2 0.16628173E+00 0.58033676E+03</pdfrwt>
<totfact> 0.51724560E+00</totfact>
</mgrwt>
</event>
<event>
 4    1  0.1033139E-008  0.2343135E+04  0.7818608E-02  0.8461105E-01
          2   -1    0    0  501    0  0.00000000000E+00  0.00000000000E+00  0.42084205943E+04  0.42084205943E+04  0.25500000000E-02 0. -1.
         -2   -1    0    0    0  501 -0.00000000000E+00 -0.00000000000E+00 -0.16627674218E+04  0.16627674218E+04  0.25500000000E-02 0.  1.
    8880022    1    1    2    0    0  0.10424473071E+04  0.20928909474E+04 -0.89643179033E+02  0.23448489201E+04  0.15294330000E+03 0.  0.
    8880022    1    1    2    0    0 -0.10424473071E+04 -0.20928909474E+04  0.26352963516E+04  0.35263390959E+04  0.15294330000E+03 0.  0.
<mgrwt>
<rscale>  0 0.23431348E+04</rscale>
<asrwt>0</asrwt>
<pdfrwt beam="1">  1        2 0.64744931E+00 0.23431348E+04</pdfrwt>
<pdfrwt beam="2">  1       -2 0.25581038E+00 0.23431348E+04</pdfrwt>
<totfact> 0.11602232E-02</totfact>
</mgrwt>
</event>
<event>
 4    1  0.1033139E-008  0.1218007E+04  0.7818608E-02  0.9097239E-01
         -2   -1    0    0    0  501 -0.00000000000E+00  0.00000000000E+00  0.69967471353E+03  0.69967471354E+03  0.25500000000E-02 0.  1.
          2   -1    0    0  501    0  0.00000000000E+00 -0.00000000000E+00 -0.44557322852E+04  0.44557322852E+04  0.25500000000E-02 0. -1.
    8880022    1    1    2    0    0  0.71392663954E+03 -0.97491489480E+03 -0.11846002819E+02  0.12180649735E+04  0.15294330000E+03 0.  0.
    8880022    1    1    2    0    0 -0.71392663954E+03  0.97491489480E+03 -0.37442115688E+04  0.39373420252E+04  0.15294330000E+03 0.  0.
<mgrwt>
<rscale>  0 0.12180074E+04</rscale>
<asrwt>0</asrwt>
<pdfrwt beam="1">  1        2 0.68549726E+00 0.12180074E+04</pdfrwt>
<pdfrwt beam="2">  1       -2 0.10764227E+00 0.12180074E+04</pdfrwt>
<totfact> 0.96303932E-02</totfact>
</mgrwt>
</event>
<event>
 4    1  0.1033139E-008  0.1101214E+04  0.7818608E-02  0.9204010E-01
         -2   -1    0    0    0  501 -0.00000000000E+00  0.00000000000E+00  0.11017456597E+04  0.11017456597E+04  0.25500000000E-02 0.  1.
          2   -1    0    0  501    0  0.00000000000E+00 -0.00000000000E+00 -0.22107161418E+04  0.22107161418E+04  0.25500000000E-02 0. -1.
    8880022    1    1    2    0    0 -0.28155976289E+03 -0.10535675151E+04 -0.17280916736E+04  0.20491395497E+04  0.15294330000E+03 0.  0.
    8880022    1    1    2    0    0  0.28155976289E+03  0.10535675151E+04  0.61912119154E+03  0.12633222518E+04  0.15294330000E+03 0.  0.
<mgrwt>
<rscale>  0 0.11012139E+04</rscale>
<asrwt>0</asrwt>
<pdfrwt beam="1">  1        2 0.34011018E+00 0.11012139E+04</pdfrwt>
<pdfrwt beam="2">  1       -2 0.16949933E+00 0.11012139E+04</pdfrwt>
<totfact> 0.10792755E+00</totfact>
</mgrwt>
</event>
<event>
 4    1  0.1033139E-008  0.4689432E+03  0.7818608E-02  0.1022219E+00
          2   -1    0    0  501    0  0.00000000000E+00  0.00000000000E+00  0.59757899760E+03  0.59757899761E+03  0.25500000000E-02 0. -1.
         -2   -1    0    0    0  501 -0.00000000000E+00 -0.00000000000E+00 -0.37391757087E+03  0.37391757088E+03  0.25500000000E-02 0.  1.
    8880022    1    1    2    0    0 -0.38543797119E+03  0.21898309386E+03  0.50711099779E+02  0.47167710744E+03  0.15294330000E+03 0.  0.
    8880022    1    1    2    0    0  0.38543797119E+03 -0.21898309386E+03  0.17295032695E+03  0.49981946104E+03  0.15294330000E+03 0. -1.
<mgrwt>
<rscale>  0 0.46894315E+03</rscale>
<asrwt>0</asrwt>
<pdfrwt beam="1">  1        2 0.91935229E-01 0.46894315E+03</pdfrwt>
<pdfrwt beam="2">  1       -2 0.57525781E-01 0.46894315E+03</pdfrwt>
<totfact> 0.14507413E+02</totfact>
</mgrwt>
</event>
<event>
 4    1  0.1033139E-008  0.6242175E+03  0.7818608E-02  0.9856398E-01
          2   -1    0    0  501    0  0.00000000000E+00  0.00000000000E+00  0.27825662099E+04  0.27825662099E+04  0.25500000000E-02 0. -1.
         -2   -1    0    0    0  501 -0.00000000000E+00 -0.00000000000E+00 -0.82235223084E+03  0.82235223085E+03  0.25500000000E-02 0.  1.
    8880022    1    1    2    0    0  0.12007165269E+03  0.59315983430E+03  0.26219466178E+04  0.26952275433E+04  0.15294330000E+03 0.  0.
    8880022    1    1    2    0    0 -0.12007165269E+03 -0.59315983430E+03 -0.66173263868E+03  0.90969089746E+03  0.15294330000E+03 0.  0.
<mgrwt>
<rscale>  0 0.62421747E+03</rscale>
<asrwt>0</asrwt>
<pdfrwt beam="1">  1        2 0.42808710E+00 0.62421747E+03</pdfrwt>
<pdfrwt beam="2">  1       -2 0.12651573E+00 0.62421747E+03</pdfrwt>
<totfact> 0.12044375E+00</totfact>
</mgrwt>
</event>
<event>
 4    1  0.1033139E-008  0.7885593E+03  0.7818608E-02  0.9576726E-01
         -2   -1    0    0    0  501 -0.00000000000E+00  0.00000000000E+00  0.36854425202E+03  0.36854425203E+03  0.25500000000E-02 0.  1.
          2   -1    0    0  501    0  0.00000000000E+00 -0.00000000000E+00 -0.23278383240E+04  0.23278383240E+04  0.25500000000E-02 0. -1.
    8880022    1    1    2    0    0  0.16106411852E+03 -0.75663231789E+03 -0.16868842397E+04  0.18620967230E+04  0.15294330000E+03 0.  0.
    8880022    1    1    2    0    0 -0.16106411852E+03  0.75663231789E+03 -0.27240983226E+03  0.83428585298E+03  0.15294330000E+03 0.  0.
<mgrwt>
<rscale>  0 0.78855930E+03</rscale>
<asrwt>0</asrwt>
<pdfrwt beam="1">  1        2 0.35812896E+00 0.78855930E+03</pdfrwt>
<pdfrwt beam="2">  1       -2 0.56699117E-01 0.78855930E+03</pdfrwt>
<totfact> 0.13225894E+01</totfact>
</mgrwt>
</event>
<event>
 4    1  0.1033139E-008  0.2021174E+04  0.7818608E-02  0.8596785E-01
         -2   -1    0    0    0  501 -0.00000000000E+00  0.00000000000E+00  0.23397967925E+04  0.23397967925E+04  0.25500000000E-02 0.  1.
          2   -1    0    0  501    0  0.00000000000E+00 -0.00000000000E+00 -0.19923072039E+04  0.19923072039E+04  0.25500000000E-02 0. -1.
    8880022    1    1    2    0    0 -0.20147336984E+04  0.50989406984E+02 -0.58795297989E+03  0.21049541930E+04  0.15294330000E+03 0.  0.
    8880022    1    1    2    0    0  0.20147336984E+04 -0.50989406984E+02  0.93544256842E+03  0.22271498034E+04  0.15294330000E+03 0.  0.
<mgrwt>
<rscale>  0 0.20211738E+04</rscale>
<asrwt>0</asrwt>
<pdfrwt beam="1">  1        2 0.30650880E+00 0.20211738E+04</pdfrwt>
<pdfrwt beam="2">  1       -2 0.35996874E+00 0.20211738E+04</pdfrwt>
<totfact> 0.80472690E-02</totfact>
</mgrwt>
</event>
<event>
 4    1  0.1033139E-008  0.3650700E+03  0.7818608E-02  0.1056594E+00
          2   -1    0    0  501    0  0.00000000000E+00  0.00000000000E+00  0.34074967776E+04  0.34074967776E+04  0.25500000000E-02 0. -1.
         -2   -1    0    0    0  501 -0.00000000000E+00 -0.00000000000E+00 -0.36783186703E+03  0.36783186704E+03  0.25500000000E-02 0.  1.
    8880022    1    1    2    0    0  0.29566187074E+03  0.14989510525E+03 -0.26465153676E+03  0.45090639085E+03  0.15294330000E+03 0.  0.
    8880022    1    1    2    0    0 -0.29566187074E+03 -0.14989510525E+03  0.33043164473E+04  0.33244222538E+04  0.15294330000E+03 0.  0.
<mgrwt>
<rscale>  0 0.36507004E+03</rscale>
<asrwt>0</asrwt>
<pdfrwt beam="1">  1        2 0.52423029E+00 0.36507004E+03</pdfrwt>
<pdfrwt beam="2">  1       -2 0.56589516E-01 0.36507004E+03</pdfrwt>
<totfact> 0.33641612E+00</totfact>
</mgrwt>
</event>
<event>
 4    1  0.1033139E-008  0.1271093E+04  0.7818608E-02  0.9052808E-01
         -2   -1    0    0    0  501 -0.00000000000E+00  0.00000000000E+00  0.65895480339E+03  0.65895480340E+03  0.25500000000E-02 0.  1.
          2   -1    0    0  501    0  0.00000000000E+00 -0.00000000000E+00 -0.37131071591E+04  0.37131071591E+04  0.25500000000E-02 0. -1.
    8880022    1    1    2    0    0 -0.58589677519E+03 -0.11175917888E+04 -0.25303275089E+03  0.12960338204E+04  0.15294330000E+03 0.  0.
    8880022    1    1    2    0    0  0.58589677519E+03  0.11175917888E+04 -0.28011196049E+04  0.30760281421E+04  0.15294330000E+03 0.  0.
<mgrwt>
<rscale>  0 0.12710933E+04</rscale>
<asrwt>0</asrwt>
<pdfrwt beam="1">  1        2 0.57124724E+00 0.12710933E+04</pdfrwt>
<pdfrwt beam="2">  1       -2 0.10137766E+00 0.12710933E+04</pdfrwt>
<totfact> 0.45393100E-01</totfact>
</mgrwt>
</event>
<event>
 4    1  0.1033139E-008  0.7361019E+03  0.7818608E-02  0.9657410E-01
          2   -1    0    0  501    0  0.00000000000E+00  0.00000000000E+00  0.19419152564E+04  0.19419152564E+04  0.25500000000E-02 0. -1.
         -2   -1    0    0    0  501 -0.00000000000E+00 -0.00000000000E+00 -0.13676832867E+04  0.13676832867E+04  0.25500000000E-02 0.  1.
    8880022    1    1    2    0    0 -0.55533179821E+03  0.45832410632E+03 -0.11892635614E+04  0.13986400052E+04  0.15294330000E+03 0.  0.
    8880022    1    1    2    0    0  0.55533179821E+03 -0.45832410632E+03  0.17634955312E+04  0.19109585380E+04  0.15294330000E+03 0.  0.
<mgrwt>
<rscale>  0 0.73610193E+03</rscale>
<asrwt>0</asrwt>
<pdfrwt beam="1">  1        2 0.29875619E+00 0.73610193E+03</pdfrwt>
<pdfrwt beam="2">  1       -2 0.21041281E+00 0.73610193E+03</pdfrwt>
<totfact> 0.85772349E-01</totfact>
</mgrwt>
</event>
<event>
 4    1  0.1033139E-008  0.3350683E+03  0.7818608E-02  0.1068916E+00
          2   -1    0    0  501    0  0.00000000000E+00  0.00000000000E+00  0.21240942924E+04  0.21240942924E+04  0.25500000000E-02 0. -1.
         -2   -1    0    0    0  501 -0.00000000000E+00 -0.00000000000E+00 -0.73983745205E+02  0.73983745249E+02  0.25500000000E-02 0.  1.
    8880022    1    1    2    0    0 -0.87508735765E+02 -0.28499353648E+03  0.43773719344E+03  0.55125728858E+03  0.15294330000E+03 0.  0.
    8880022    1    1    2    0    0  0.87508735765E+02  0.28499353648E+03  0.16123733538E+04  0.16468207491E+04  0.15294330000E+03 0.  0.
<mgrwt>
<rscale>  0 0.33506827E+03</rscale>
<asrwt>0</asrwt>
<pdfrwt beam="1">  1        2 0.32678370E+00 0.33506827E+03</pdfrwt>
<pdfrwt beam="2">  1       -2 0.11382116E-01 0.33506827E+03</pdfrwt>
<totfact> 0.34083505E+02</totfact>
</mgrwt>
</event>
<event>
 4    1  0.1210186E-008  0.1312069E+04  0.7818608E-02  0.9020049E-01
         -2   -1    0    0    0  501 -0.00000000000E+00  0.00000000000E+00  0.16699573636E+04  0.16699573636E+04  0.25500000000E-02 0.  1.
          2   -1    0    0  501    0  0.00000000000E+00 -0.00000000000E+00 -0.19221000146E+04  0.19221000146E+04  0.25500000000E-02 0. -1.
    8880022    1    1    2    0    0 -0.10490471760E+04  0.77306766989E+03 -0.13490469519E+04  0.18818748447E+04  0.15294330000E+03 0.  0.
    8880022    1    1    2    0    0  0.10490471760E+04 -0.77306766989E+03  0.10969043009E+04  0.17101825335E+04  0.15294330000E+03 0.  0.
<mgrwt>
<rscale>  0 0.13120691E+04</rscale>
<asrwt>0</asrwt>
<pdfrwt beam="1">  1        2 0.29570770E+00 0.13120691E+04</pdfrwt>
<pdfrwt beam="2">  1       -2 0.25691652E+00 0.13120691E+04</pdfrwt>
<totfact> 0.41238888E-01</totfact>
</mgrwt>
</event>
<event>
 4    1  0.1033139E-008  0.6057276E+03  0.7818608E-02  0.9893594E-01
          2   -1    0    0  501    0  0.00000000000E+00  0.00000000000E+00  0.33935551745E+04  0.33935551745E+04  0.25500000000E-02 0. -1.
         -2   -1    0    0    0  501 -0.00000000000E+00 -0.00000000000E+00 -0.14007730694E+03  0.14007730697E+03  0.25500000000E-02 0.  1.
    8880022    1    1    2    0    0  0.19459844556E+03  0.55285237130E+03  0.78281548196E+03  0.98980100590E+03  0.15294330000E+03 0.  0.
    8880022    1    1    2    0    0 -0.19459844556E+03 -0.55285237130E+03  0.24706623856E+04  0.25438314755E+04  0.15294330000E+03 0.  0.
<mgrwt>
<rscale>  0 0.60572762E+03</rscale>
<asrwt>0</asrwt>
<pdfrwt beam="1">  1        2 0.52208536E+00 0.60572762E+03</pdfrwt>
<pdfrwt beam="2">  1       -2 0.21550357E-01 0.60572762E+03</pdfrwt>
<totfact> 0.19877164E+01</totfact>
</mgrwt>
</event>
<event>
 4    1  0.1033139E-008  0.7261288E+03  0.7818608E-02  0.9673563E-01
          2   -1    0    0  501    0  0.00000000000E+00  0.00000000000E+00  0.15142426317E+04  0.15142426317E+04  0.25500000000E-02 0. -1.
         -2   -1    0    0    0  501 -0.00000000000E+00 -0.00000000000E+00 -0.39897916486E+03  0.39897916487E+03  0.25500000000E-02 0.  1.
    8880022    1    1    2    0    0  0.29484889668E+03  0.64570548698E+03  0.89889709901E+03  0.11555427709E+04  0.15294330000E+03 0.  0.
    8880022    1    1    2    0    0 -0.29484889668E+03 -0.64570548698E+03  0.21636636785E+03  0.75767902567E+03  0.15294330000E+03 0.  0.
<mgrwt>
<rscale>  0 0.72612885E+03</rscale>
<asrwt>0</asrwt>
<pdfrwt beam="1">  1        2 0.23296041E+00 0.72612885E+03</pdfrwt>
<pdfrwt beam="2">  1       -2 0.61381409E-01 0.72612885E+03</pdfrwt>
<totfact> 0.31557128E+01</totfact>
</mgrwt>
</event>
<event>
 4    1  0.1033139E-008  0.9977057E+03  0.7818608E-02  0.9311065E-01
          2   -1    0    0  501    0  0.00000000000E+00  0.00000000000E+00  0.28924368310E+04  0.28924368310E+04  0.25500000000E-02 0. -1.
         -2   -1    0    0    0  501 -0.00000000000E+00 -0.00000000000E+00 -0.39770303229E+03  0.39770303230E+03  0.25500000000E-02 0.  1.
    8880022    1    1    2    0    0  0.68279043385E+03  0.71121185798E+03  0.64367057344E+03  0.11873198994E+04  0.15294330000E+03 0.  0.
    8880022    1    1    2    0    0 -0.68279043385E+03 -0.71121185798E+03  0.18510632253E+04  0.21028199639E+04  0.15294330000E+03 0.  0.
<mgrwt>
<rscale>  0 0.99770574E+03</rscale>
<asrwt>0</asrwt>
<pdfrwt beam="1">  1        2 0.44499029E+00 0.99770574E+03</pdfrwt>
<pdfrwt beam="2">  1       -2 0.61185080E-01 0.99770574E+03</pdfrwt>
<totfact> 0.51486026E+00</totfact>
</mgrwt>
</event>
<event>
 4    1  0.1033139E-008  0.1369937E+04  0.7818608E-02  0.8975872E-01
          2   -1    0    0  501    0  0.00000000000E+00  0.00000000000E+00  0.33808716931E+04  0.33808716931E+04  0.25500000000E-02 0. -1.
         -2   -1    0    0    0  501 -0.00000000000E+00 -0.00000000000E+00 -0.66607934055E+03  0.66607934055E+03  0.25500000000E-02 0.  1.
    8880022    1    1    2    0    0 -0.67807837521E+03 -0.11804851278E+04  0.21833448021E+04  0.25775417742E+04  0.15294330000E+03 0.  0.
    8880022    1    1    2    0    0  0.67807837521E+03  0.11804851278E+04  0.53144755043E+03  0.14694092594E+04  0.15294330000E+03 0.  0.
<mgrwt>
<rscale>  0 0.13699369E+04</rscale>
<asrwt>0</asrwt>
<pdfrwt beam="1">  1        2 0.52013411E+00 0.13699369E+04</pdfrwt>
<pdfrwt beam="2">  1       -2 0.10247374E+00 0.13699369E+04</pdfrwt>
<totfact> 0.74649300E-01</totfact>
</mgrwt>
</event>
<event>
 4    1  0.1033139E-008  0.7794499E+03  0.7818608E-02  0.9590248E-01
          2   -1    0    0  501    0  0.00000000000E+00  0.00000000000E+00  0.39651451574E+04  0.39651451574E+04  0.25500000000E-02 0. -1.
         -2   -1    0    0    0  501 -0.00000000000E+00 -0.00000000000E+00 -0.20555215514E+03  0.20555215516E+03  0.25500000000E-02 0.  1.
    8880022    1    1    2    0    0 -0.55390607377E+03 -0.52662936643E+03  0.29319989571E+04  0.30338358501E+04  0.15294330000E+03 0.  0.
    8880022    1    1    2    0    0  0.55390607377E+03  0.52662936643E+03  0.82759404518E+03  0.11368614624E+04  0.15294330000E+03 0.  0.
<mgrwt>
<rscale>  0 0.77944986E+03</rscale>
<asrwt>0</asrwt>
<pdfrwt beam="1">  1        2 0.61002229E+00 0.77944986E+03</pdfrwt>
<pdfrwt beam="2">  1       -2 0.31623411E-01 0.77944986E+03</pdfrwt>
<totfact> 0.37196662E+00</totfact>
</mgrwt>
</event>
<event>
 4    1  0.1033139E-008  0.6016737E+03  0.7818608E-02  0.9901940E-01
          2   -1    0    0  501    0  0.00000000000E+00  0.00000000000E+00  0.14612083426E+04  0.14612083426E+04  0.25500000000E-02 0. -1.
         -2   -1    0    0    0  501 -0.00000000000E+00 -0.00000000000E+00 -0.11230228279E+04  0.11230228279E+04  0.25500000000E-02 0.  1.
    8880022    1    1    2    0    0 -0.44470129725E+03  0.37531358728E+03  0.13098134929E+04  0.14413960496E+04  0.15294330000E+03 0. -1.
    8880022    1    1    2    0    0  0.44470129725E+03 -0.37531358728E+03 -0.97162797815E+03  0.11428351209E+04  0.15294330000E+03 0.  0.
<mgrwt>
<rscale>  0 0.60167365E+03</rscale>
<asrwt>0</asrwt>
<pdfrwt beam="1">  1        2 0.22480128E+00 0.60167365E+03</pdfrwt>
<pdfrwt beam="2">  1       -2 0.17277274E+00 0.60167365E+03</pdfrwt>
<totfact> 0.28733447E+00</totfact>
</mgrwt>
</event>
<event>
 4    1  0.1033139E-008  0.7682506E+03  0.7818608E-02  0.9607145E-01
          2   -1    0    0  501    0  0.00000000000E+00  0.00000000000E+00  0.29677090583E+04  0.29677090583E+04  0.25500000000E-02 0. -1.
         -2   -1    0    0    0  501 -0.00000000000E+00 -0.00000000000E+00 -0.27375760595E+03  0.27375760596E+03  0.25500000000E-02 0.  1.
    8880022    1    1    2    0    0 -0.38778781537E+03  0.64532007629E+03  0.21946191011E+04  0.23252015058E+04  0.15294330000E+03 0.  0.
    8880022    1    1    2    0    0  0.38778781537E+03 -0.64532007629E+03  0.49933235124E+03  0.91626515846E+03  0.15294330000E+03 0.  0.
<mgrwt>
<rscale>  0 0.76825064E+03</rscale>
<asrwt>0</asrwt>
<pdfrwt beam="1">  1        2 0.45657061E+00 0.76825064E+03</pdfrwt>
<pdfrwt beam="2">  1       -2 0.42116557E-01 0.76825064E+03</pdfrwt>
<totfact> 0.10317798E+01</totfact>
</mgrwt>
</event>
<event>
 4    1  0.1033139E-008  0.2155445E+03  0.7818608E-02  0.1137249E+00
         -2   -1    0    0    0  501 -0.00000000000E+00  0.00000000000E+00  0.76669484808E+02  0.76669484850E+02  0.25500000000E-02 0.  1.
          2   -1    0    0  501    0  0.00000000000E+00 -0.00000000000E+00 -0.24313722897E+04  0.24313722898E+04  0.25500000000E-02 0. -1.
    8880022    1    1    2    0    0  0.14335029651E+03  0.50184361195E+02 -0.90779929425E+02  0.23388122246E+03  0.15294330000E+03 0.  0.
    8880022    1    1    2    0    0 -0.14335029651E+03 -0.50184361195E+02 -0.22639228755E+04  0.22741605521E+04  0.15294330000E+03 0. -1.
<mgrwt>
<rscale>  0 0.21554450E+03</rscale>
<asrwt>0</asrwt>
<pdfrwt beam="1">  1        2 0.37405722E+00 0.21554450E+03</pdfrwt>
<pdfrwt beam="2">  1       -2 0.11795307E-01 0.21554450E+03</pdfrwt>
<totfact> 0.22673440E+02</totfact>
</mgrwt>
</event>
<event>
 4    1  0.1033139E-008  0.7225774E+03  0.7818608E-02  0.9679382E-01
          2   -1    0    0  501    0  0.00000000000E+00  0.00000000000E+00  0.13552943594E+04  0.13552943594E+04  0.25500000000E-02 0. -1.
         -2   -1    0    0    0  501 -0.00000000000E+00 -0.00000000000E+00 -0.18109848390E+04  0.18109848390E+04  0.25500000000E-02 0.  1.
    8880022    1    1    2    0    0  0.10148394795E+03 -0.69887586713E+03  0.11768502907E+04  0.13809760060E+04  0.15294330000E+03 0.  0.
    8880022    1    1    2    0    0 -0.10148394795E+03  0.69887586713E+03 -0.16325407703E+04  0.17853031925E+04  0.15294330000E+03 0.  0.
<mgrwt>
<rscale>  0 0.72257742E+03</rscale>
<asrwt>0</asrwt>
<pdfrwt beam="1">  1        2 0.20850682E+00 0.72257742E+03</pdfrwt>
<pdfrwt beam="2">  1       -2 0.27861305E+00 0.72257742E+03</pdfrwt>
<totfact> 0.69391486E-01</totfact>
</mgrwt>
</event>
<event>
 4    1  0.1033139E-008  0.5949691E+03  0.7818608E-02  0.9915899E-01
         -2   -1    0    0    0  501 -0.00000000000E+00  0.00000000000E+00  0.12340792825E+04  0.12340792825E+04  0.25500000000E-02 0.  1.
          2   -1    0    0  501    0  0.00000000000E+00 -0.00000000000E+00 -0.14913257029E+04  0.14913257029E+04  0.25500000000E-02 0. -1.
    8880022    1    1    2    0    0 -0.11459658777E+03  0.56343966020E+03  0.10960349933E+04  0.12471090522E+04  0.15294330000E+03 0.  1.
    8880022    1    1    2    0    0  0.11459658777E+03 -0.56343966020E+03 -0.13532814137E+04  0.14782959332E+04  0.15294330000E+03 0.  0.
<mgrwt>
<rscale>  0 0.59496914E+03</rscale>
<asrwt>0</asrwt>
<pdfrwt beam="1">  1        2 0.22943472E+00 0.59496914E+03</pdfrwt>
<pdfrwt beam="2">  1       -2 0.18985835E+00 0.59496914E+03</pdfrwt>
<totfact> 0.21187160E+00</totfact>
</mgrwt>
</event>
<event>
 4    1  0.1033139E-008  0.9754791E+03  0.7818608E-02  0.9335855E-01
         -2   -1    0    0    0  501 -0.00000000000E+00  0.00000000000E+00  0.19911074408E+04  0.19911074408E+04  0.25500000000E-02 0.  1.
          2   -1    0    0  501    0  0.00000000000E+00 -0.00000000000E+00 -0.73919198587E+03  0.73919198588E+03  0.25500000000E-02 0. -1.
    8880022    1    1    2    0    0 -0.82031812300E+01  0.96337970433E+03 -0.18567748684E+03  0.99299321701E+03  0.15294330000E+03 0.  0.
    8880022    1    1    2    0    0  0.82031812300E+01 -0.96337970433E+03  0.14375929417E+04  0.17373062096E+04  0.15294330000E+03 0.  0.
<mgrwt>
<rscale>  0 0.97547906E+03</rscale>
<asrwt>0</asrwt>
<pdfrwt beam="1">  1        2 0.11372185E+00 0.97547906E+03</pdfrwt>
<pdfrwt beam="2">  1       -2 0.30632421E+00 0.97547906E+03</pdfrwt>
<totfact> 0.11210062E+00</totfact>
</mgrwt>
</event>
<event>
 4    1  0.1033139E-008  0.6434273E+03  0.7818608E-02  0.9819191E-01
          2   -1    0    0  501    0  0.00000000000E+00  0.00000000000E+00  0.81248375030E+03  0.81248375030E+03  0.25500000000E-02 0. -1.
         -2   -1    0    0    0  501 -0.00000000000E+00 -0.00000000000E+00 -0.87039704841E+03  0.87039704842E+03  0.25500000000E-02 0.  1.
    8880022    1    1    2    0    0  0.17507861647E+03 -0.59996206154E+03  0.51282968233E+03  0.82279580293E+03  0.15294330000E+03 0.  0.
    8880022    1    1    2    0    0 -0.17507861647E+03  0.59996206154E+03 -0.57074298044E+03  0.86008499578E+03  0.15294330000E+03 0.  0.
<mgrwt>
<rscale>  0 0.64342727E+03</rscale>
<asrwt>0</asrwt>
<pdfrwt beam="1">  1        2 0.12499750E+00 0.64342727E+03</pdfrwt>
<pdfrwt beam="2">  1       -2 0.13390724E+00 0.64342727E+03</pdfrwt>
<totfact> 0.13968110E+01</totfact>
</mgrwt>
</event>
<event>
 4    1  0.1033139E-008  0.1092920E+04  0.7818608E-02  0.9212120E-01
         -2   -1    0    0    0  501 -0.00000000000E+00  0.00000000000E+00  0.15303879387E+04  0.15303879387E+04  0.25500000000E-02 0.  1.
          2   -1    0    0  501    0  0.00000000000E+00 -0.00000000000E+00 -0.15856548784E+04  0.15856548784E+04  0.25500000000E-02 0. -1.
    8880022    1    1    2    0    0  0.98802487219E+03  0.44146331263E+03 -0.11378497470E+04  0.15777124910E+04  0.15294330000E+03 0.  0.
    8880022    1    1    2    0    0 -0.98802487219E+03 -0.44146331263E+03  0.10825828073E+04  0.15383303261E+04  0.15294330000E+03 0.  0.
<mgrwt>
<rscale>  0 0.10929202E+04</rscale>
<asrwt>0</asrwt>
<pdfrwt beam="1">  1        2 0.24394690E+00 0.10929202E+04</pdfrwt>
<pdfrwt beam="2">  1       -2 0.23544430E+00 0.10929202E+04</pdfrwt>
<totfact> 0.88401051E-01</totfact>
</mgrwt>
</event>
<event>
 4    1  0.1033139E-008  0.6466682E+03  0.7818608E-02  0.9813051E-01
          2   -1    0    0  501    0  0.00000000000E+00  0.00000000000E+00  0.17051837524E+04  0.17051837524E+04  0.25500000000E-02 0. -1.
         -2   -1    0    0    0  501 -0.00000000000E+00 -0.00000000000E+00 -0.26629344256E+03  0.26629344257E+03  0.25500000000E-02 0.  1.
    8880022    1    1    2    0    0 -0.39779139428E+03  0.48636418327E+03  0.99661121690E+03  0.11880293274E+04  0.15294330000E+03 0.  0.
    8880022    1    1    2    0    0  0.39779139428E+03 -0.48636418327E+03  0.44227909297E+03  0.78344786759E+03  0.15294330000E+03 0.  0.
<mgrwt>
<rscale>  0 0.64666820E+03</rscale>
<asrwt>0</asrwt>
<pdfrwt beam="1">  1        2 0.26233596E+00 0.64666820E+03</pdfrwt>
<pdfrwt beam="2">  1       -2 0.40968223E-01 0.64666820E+03</pdfrwt>
<totfact> 0.56990528E+01</totfact>
</mgrwt>
</event>
<event>
 4    1  0.1033139E-008  0.2264305E+03  0.7818608E-02  0.1129178E+00
         -2   -1    0    0    0  501 -0.00000000000E+00  0.00000000000E+00  0.91760439956E+02  0.91760439991E+02  0.25500000000E-02 0.  1.
          2   -1    0    0  501    0  0.00000000000E+00 -0.00000000000E+00 -0.22373966308E+04  0.22373966308E+04  0.25500000000E-02 0. -1.
    8880022    1    1    2    0    0  0.10731726239E+02  0.16662519292E+03 -0.64082254823E+02  0.23532384762E+03  0.15294330000E+03 0.  0.
    8880022    1    1    2    0    0 -0.10731726239E+02 -0.16662519292E+03 -0.20815539360E+04  0.20938332231E+04  0.15294330000E+03 0.  0.
<mgrwt>
<rscale>  0 0.22643051E+03</rscale>
<asrwt>0</asrwt>
<pdfrwt beam="1">  1        2 0.34421483E+00 0.22643051E+03</pdfrwt>
<pdfrwt beam="2">  1       -2 0.14116992E-01 0.22643051E+03</pdfrwt>
<totfact> 0.21414772E+02</totfact>
</mgrwt>
</event>
<event>
 4    1  0.1033139E-008  0.7552923E+03  0.7818608E-02  0.9627084E-01
          2   -1    0    0  501    0  0.00000000000E+00  0.00000000000E+00  0.27991133358E+04  0.27991133358E+04  0.25500000000E-02 0. -1.
         -2   -1    0    0    0  501 -0.00000000000E+00 -0.00000000000E+00 -0.53844412837E+03  0.53844412838E+03  0.25500000000E-02 0.  1.
    8880022    1    1    2    0    0  0.34939680448E+03 -0.65191765970E+03  0.24459180138E+04  0.25598791662E+04  0.15294330000E+03 0.  0.
    8880022    1    1    2    0    0 -0.34939680448E+03  0.65191765970E+03 -0.18524880634E+03  0.77767829806E+03  0.15294330000E+03 0.  0.
<mgrwt>
<rscale>  0 0.75529227E+03</rscale>
<asrwt>0</asrwt>
<pdfrwt beam="1">  1        2 0.43063280E+00 0.75529227E+03</pdfrwt>
<pdfrwt beam="2">  1       -2 0.82837561E-01 0.75529227E+03</pdfrwt>
<totfact> 0.31321363E+00</totfact>
</mgrwt>
</event>
<event>
 4    1  0.1033139E-008  0.1491929E+04  0.7818608E-02  0.8889838E-01
         -2   -1    0    0    0  501 -0.00000000000E+00  0.00000000000E+00  0.11414826364E+04  0.11414826364E+04  0.25500000000E-02 0.  1.
          2   -1    0    0  501    0  0.00000000000E+00 -0.00000000000E+00 -0.20016495630E+04  0.20016495630E+04  0.25500000000E-02 0. -1.
    8880022    1    1    2    0    0 -0.13813149587E+04 -0.54261411253E+03 -0.68261366932E+03  0.16406749113E+04  0.15294330000E+03 0.  0.
    8880022    1    1    2    0    0  0.13813149587E+04  0.54261411253E+03 -0.17755325735E+03  0.15024572880E+04  0.15294330000E+03 0.  0.
<mgrwt>
<rscale>  0 0.14919292E+04</rscale>
<asrwt>0</asrwt>
<pdfrwt beam="1">  1        2 0.30794609E+00 0.14919292E+04</pdfrwt>
<pdfrwt beam="2">  1       -2 0.17561271E+00 0.14919292E+04</pdfrwt>
<totfact> 0.12220772E+00</totfact>
</mgrwt>
</event>
<event>
 4    1  0.1033139E-008  0.1095947E+04  0.7818608E-02  0.9209151E-01
          2   -1    0    0  501    0  0.00000000000E+00  0.00000000000E+00  0.19699901265E+04  0.19699901265E+04  0.25500000000E-02 0. -1.
         -2   -1    0    0    0  501 -0.00000000000E+00 -0.00000000000E+00 -0.77009312945E+03  0.77009312945E+03  0.25500000000E-02 0.  1.
    8880022    1    1    2    0    0  0.27888716012E+03  0.10487753474E+04 -0.25306912514E+02  0.10962389658E+04  0.15294330000E+03 0.  0.
    8880022    1    1    2    0    0 -0.27888716012E+03 -0.10487753474E+04  0.12252039096E+04  0.16438442902E+04  0.15294330000E+03 0.  0.
<mgrwt>
<rscale>  0 0.10959468E+04</rscale>
<asrwt>0</asrwt>
<pdfrwt beam="1">  1        2 0.30307540E+00 0.10959468E+04</pdfrwt>
<pdfrwt beam="2">  1       -2 0.11847587E+00 0.10959468E+04</pdfrwt>
<totfact> 0.37577008E+00</totfact>
</mgrwt>
</event>
<event>
 4    1  0.1033139E-008  0.1102022E+04  0.7818608E-02  0.9203223E-01
          2   -1    0    0  501    0  0.00000000000E+00  0.00000000000E+00  0.13732863733E+04  0.13732863733E+04  0.25500000000E-02 0. -1.
         -2   -1    0    0    0  501 -0.00000000000E+00 -0.00000000000E+00 -0.90147690523E+03  0.90147690524E+03  0.25500000000E-02 0.  1.
    8880022    1    1    2    0    0 -0.23947946367E+03 -0.10647585696E+04  0.79089711277E+02  0.11048565791E+04  0.15294330000E+03 0.  0.
    8880022    1    1    2    0    0  0.23947946367E+03  0.10647585696E+04  0.39271975683E+03  0.11699066995E+04  0.15294330000E+03 0.  0.
<mgrwt>
<rscale>  0 0.11020222E+04</rscale>
<asrwt>0</asrwt>
<pdfrwt beam="1">  1        2 0.21127483E+00 0.11020222E+04</pdfrwt>
<pdfrwt beam="2">  1       -2 0.13868875E+00 0.11020222E+04</pdfrwt>
<totfact> 0.54186067E+00</totfact>
</mgrwt>
</event>
<event>
 4    1  0.1033139E-008  0.1127355E+04  0.7818608E-02  0.9178933E-01
          2   -1    0    0  501    0  0.00000000000E+00  0.00000000000E+00  0.13959991217E+04  0.13959991218E+04  0.25500000000E-02 0. -1.
         -2   -1    0    0    0  501 -0.00000000000E+00 -0.00000000000E+00 -0.14873640094E+04  0.14873640094E+04  0.25500000000E-02 0.  1.
    8880022    1    1    2    0    0 -0.76074269808E+03  0.81780664944E+03 -0.94359087057E+03  0.14701335152E+04  0.15294330000E+03 0.  0.
    8880022    1    1    2    0    0  0.76074269808E+03 -0.81780664944E+03  0.85222598288E+03  0.14132296160E+04  0.15294330000E+03 0.  0.
<mgrwt>
<rscale>  0 0.11273548E+04</rscale>
<asrwt>0</asrwt>
<pdfrwt beam="1">  1        2 0.21476910E+00 0.11273548E+04</pdfrwt>
<pdfrwt beam="2">  1       -2 0.22882523E+00 0.11273548E+04</pdfrwt>
<totfact> 0.12386085E+00</totfact>
</mgrwt>
</event>
<event>
 4    1  0.1033139E-008  0.1276410E+04  0.7818608E-02  0.9048485E-01
          2   -1    0    0  501    0  0.00000000000E+00  0.00000000000E+00  0.91560856301E+03  0.91560856302E+03  0.25500000000E-02 0. -1.
         -2   -1    0    0    0  501 -0.00000000000E+00 -0.00000000000E+00 -0.25841818366E+04  0.25841818366E+04  0.25500000000E-02 0.  1.
    8880022    1    1    2    0    0 -0.10046017087E+04 -0.77240208000E+03  0.14226074079E+03  0.12843127881E+04  0.15294330000E+03 0.  0.
    8880022    1    1    2    0    0  0.10046017087E+04  0.77240208000E+03 -0.18108340144E+04  0.22154776115E+04  0.15294330000E+03 0.  0.
<mgrwt>
<rscale>  0 0.12764095E+04</rscale>
<asrwt>0</asrwt>
<pdfrwt beam="1">  1        2 0.14086286E+00 0.12764095E+04</pdfrwt>
<pdfrwt beam="2">  1       -2 0.39756643E+00 0.12764095E+04</pdfrwt>
<totfact> 0.21523028E-01</totfact>
</mgrwt>
</event>
<event>
 4    1  0.1033139E-008  0.8110627E+03  0.7818608E-02  0.9544141E-01
          2   -1    0    0  501    0  0.00000000000E+00  0.00000000000E+00  0.10523302654E+04  0.10523302654E+04  0.25500000000E-02 0. -1.
         -2   -1    0    0    0  501 -0.00000000000E+00 -0.00000000000E+00 -0.97039589774E+03  0.97039589774E+03  0.25500000000E-02 0.  1.
    8880022    1    1    2    0    0  0.97763221786E+02  0.79048929282E+03  0.64425113434E+03  0.10358002446E+04  0.15294330000E+03 0. -1.
    8880022    1    1    2    0    0 -0.97763221786E+02 -0.79048929282E+03 -0.56231676668E+03  0.98692591855E+03  0.15294330000E+03 0.  0.
<mgrwt>
<rscale>  0 0.81106265E+03</rscale>
<asrwt>0</asrwt>
<pdfrwt beam="1">  1        2 0.16189696E+00 0.81106265E+03</pdfrwt>
<pdfrwt beam="2">  1       -2 0.14929168E+00 0.81106265E+03</pdfrwt>
<totfact> 0.71591051E+00</totfact>
</mgrwt>
</event>
<event>
 4    1  0.1033139E-008  0.1483895E+04  0.7818608E-02  0.8895234E-01
          2   -1    0    0  501    0  0.00000000000E+00  0.00000000000E+00  0.17551017500E+04  0.17551017500E+04  0.25500000000E-02 0. -1.
         -2   -1    0    0    0  501 -0.00000000000E+00 -0.00000000000E+00 -0.14201726660E+04  0.14201726660E+04  0.25500000000E-02 0.  1.
    8880022    1    1    2    0    0  0.13426765318E+04  0.61300218357E+03 -0.37463655658E+03  0.15304561897E+04  0.15294330000E+03 0.  0.
    8880022    1    1    2    0    0 -0.13426765318E+04 -0.61300218357E+03  0.70956564055E+03  0.16448182263E+04  0.15294330000E+03 0.  0.
<mgrwt>
<rscale>  0 0.14838947E+04</rscale>
<asrwt>0</asrwt>
<pdfrwt beam="1">  1        2 0.27001565E+00 0.14838947E+04</pdfrwt>
<pdfrwt beam="2">  1       -2 0.21848810E+00 0.14838947E+04</pdfrwt>
<totfact> 0.86878619E-01</totfact>
</mgrwt>
</event>
<event>
 4    1  0.1033139E-008  0.9987344E+03  0.7818608E-02  0.9309934E-01
         -2   -1    0    0    0  501 -0.00000000000E+00  0.00000000000E+00  0.10871351342E+04  0.10871351342E+04  0.25500000000E-02 0.  1.
          2   -1    0    0  501    0  0.00000000000E+00 -0.00000000000E+00 -0.12807828578E+04  0.12807828578E+04  0.25500000000E-02 0. -1.
    8880022    1    1    2    0    0  0.98311383946E+03 -0.86982230098E+02  0.53370971971E+03  0.11323941220E+04  0.15294330000E+03 0.  0.
    8880022    1    1    2    0    0 -0.98311383946E+03  0.86982230098E+02 -0.72735744332E+03  0.12355238699E+04  0.15294330000E+03 0.  0.
<mgrwt>
<rscale>  0 0.99873439E+03</rscale>
<asrwt>0</asrwt>
<pdfrwt beam="1">  1        2 0.19704352E+00 0.99873439E+03</pdfrwt>
<pdfrwt beam="2">  1       -2 0.16725156E+00 0.99873439E+03</pdfrwt>
<totfact> 0.37515849E+00</totfact>
</mgrwt>
</event>
<event>
 4    1  0.1033139E-008  0.6038191E+03  0.7818608E-02  0.9897514E-01
          2   -1    0    0  501    0  0.00000000000E+00  0.00000000000E+00  0.29031759257E+04  0.29031759257E+04  0.25500000000E-02 0. -1.
         -2   -1    0    0    0  501 -0.00000000000E+00 -0.00000000000E+00 -0.61087628456E+03  0.61087628456E+03  0.25500000000E-02 0.  1.
    8880022    1    1    2    0    0  0.58326070545E+03  0.31824431366E+02  0.27121885419E+04  0.27785903234E+04  0.15294330000E+03 0.  0.
    8880022    1    1    2    0    0 -0.58326070545E+03 -0.31824431366E+02 -0.41988890085E+03  0.73546188686E+03  0.15294330000E+03 0.  0.
<mgrwt>
<rscale>  0 0.60381909E+03</rscale>
<asrwt>0</asrwt>
<pdfrwt beam="1">  1        2 0.44664245E+00 0.60381909E+03</pdfrwt>
<pdfrwt beam="2">  1       -2 0.93980967E-01 0.60381909E+03</pdfrwt>
<totfact> 0.21044421E+00</totfact>
</mgrwt>
</event>
<event>
 4    1  0.1033139E-008  0.4937335E+03  0.7818608E-02  0.1015428E+00
         -2   -1    0    0    0  501 -0.00000000000E+00  0.00000000000E+00  0.35835604624E+03  0.35835604625E+03  0.25500000000E-02 0.  1.
          2   -1    0    0  501    0  0.00000000000E+00 -0.00000000000E+00 -0.11675805715E+04  0.11675805715E+04  0.25500000000E-02 0. -1.
    8880022    1    1    2    0    0 -0.31576386957E+02 -0.46838453101E+03 -0.89752897448E+03  0.10243686105E+04  0.15294330000E+03 0.  0.
    8880022    1    1    2    0    0  0.31576386957E+02  0.46838453101E+03  0.88304449245E+02  0.50156800723E+03  0.15294330000E+03 0.  1.
<mgrwt>
<rscale>  0 0.49373352E+03</rscale>
<asrwt>0</asrwt>
<pdfrwt beam="1">  1        2 0.17962778E+00 0.49373352E+03</pdfrwt>
<pdfrwt beam="2">  1       -2 0.55131700E-01 0.49373352E+03</pdfrwt>
<totfact> 0.64066644E+01</totfact>
</mgrwt>
</event>
<event>
 4    1  0.1033139E-008  0.5598647E+03  0.7818608E-02  0.9992361E-01
          2   -1    0    0  501    0  0.00000000000E+00  0.00000000000E+00  0.33992139772E+04  0.33992139772E+04  0.25500000000E-02 0. -1.
         -2   -1    0    0    0  501 -0.00000000000E+00 -0.00000000000E+00 -0.19813744088E+03  0.19813744090E+03  0.25500000000E-02 0.  1.
    8880022    1    1    2    0    0 -0.33724946796E+03 -0.41990434129E+03  0.28540544055E+03  0.62841449537E+03  0.15294330000E+03 0.  0.
    8880022    1    1    2    0    0  0.33724946796E+03  0.41990434129E+03  0.29156710957E+04  0.29689369227E+04  0.15294330000E+03 0.  0.
<mgrwt>
<rscale>  0 0.55986473E+03</rscale>
<asrwt>0</asrwt>
<pdfrwt beam="1">  1        2 0.52295600E+00 0.55986473E+03</pdfrwt>
<pdfrwt beam="2">  1       -2 0.30482683E-01 0.55986473E+03</pdfrwt>
<totfact> 0.10657027E+01</totfact>
</mgrwt>
</event>
<event>
 4    1  0.1033139E-008  0.6460596E+03  0.7818608E-02  0.9814201E-01
         -2   -1    0    0    0  501 -0.00000000000E+00  0.00000000000E+00  0.41134190439E+03  0.41134190440E+03  0.25500000000E-02 0.  1.
          2   -1    0    0  501    0  0.00000000000E+00 -0.00000000000E+00 -0.30704029083E+04  0.30704029083E+04  0.25500000000E-02 0. -1.
    8880022    1    1    2    0    0  0.29785327211E+03  0.55252587864E+03  0.94923048122E+02  0.65299575524E+03  0.15294330000E+03 0.  0.
    8880022    1    1    2    0    0 -0.29785327211E+03 -0.55252587864E+03 -0.27539840520E+04  0.28287490575E+04  0.15294330000E+03 0.  0.
<mgrwt>
<rscale>  0 0.64605965E+03</rscale>
<asrwt>0</asrwt>
<pdfrwt beam="1">  1        2 0.47236966E+00 0.64605965E+03</pdfrwt>
<pdfrwt beam="2">  1       -2 0.63283372E-01 0.64605965E+03</pdfrwt>
<totfact> 0.39739767E+00</totfact>
</mgrwt>
</event>
<event>
 4    1  0.1033139E-008  0.5788271E+03  0.7818608E-02  0.9950333E-01
          2   -1    0    0  501    0  0.00000000000E+00  0.00000000000E+00  0.31923947510E+04  0.31923947510E+04  0.25500000000E-02 0. -1.
         -2   -1    0    0    0  501 -0.00000000000E+00 -0.00000000000E+00 -0.22117444660E+03  0.22117444661E+03  0.25500000000E-02 0.  1.
    8880022    1    1    2    0    0 -0.53025862007E+03  0.17457090316E+03  0.24835134801E+03  0.62985653086E+03  0.15294330000E+03 0.  0.
    8880022    1    1    2    0    0  0.53025862007E+03 -0.17457090316E+03  0.27228689564E+04  0.27837126668E+04  0.15294330000E+03 0.  0.
<mgrwt>
<rscale>  0 0.57882714E+03</rscale>
<asrwt>0</asrwt>
<pdfrwt beam="1">  1        2 0.49113763E+00 0.57882714E+03</pdfrwt>
<pdfrwt beam="2">  1       -2 0.34026840E-01 0.57882714E+03</pdfrwt>
<totfact> 0.11740655E+01</totfact>
</mgrwt>
</event>
<event>
 4    1  0.1033139E-008  0.1646812E+03  0.7818608E-02  0.1183511E+00
          2   -1    0    0  501    0  0.00000000000E+00  0.00000000000E+00  0.26660467116E+04  0.26660467116E+04  0.25500000000E-02 0. -1.
         -2   -1    0    0    0  501 -0.00000000000E+00 -0.00000000000E+00 -0.65044688050E+02  0.65044688100E+02  0.25500000000E-02 0.  1.
    8880022    1    1    2    0    0 -0.60885831457E+02  0.46008615841E+01  0.25547308703E+04  0.25600331493E+04  0.15294330000E+03 0.  0.
    8880022    1    1    2    0    0  0.60885831457E+02 -0.46008615841E+01  0.46271153160E+02  0.17105825040E+03  0.15294330000E+03 0.  1.
<mgrwt>
<rscale>  0 0.16468122E+03</rscale>
<asrwt>0</asrwt>
<pdfrwt beam="1">  1        2 0.41016095E+00 0.16468122E+03</pdfrwt>
<pdfrwt beam="2">  1       -2 0.10006877E-01 0.16468122E+03</pdfrwt>
<totfact> 0.22408915E+02</totfact>
</mgrwt>
</event>
<event>
 4    1  0.1033139E-008  0.8892684E+03  0.7818608E-02  0.9439097E-01
         -2   -1    0    0    0  501 -0.00000000000E+00  0.00000000000E+00  0.37067246809E+03  0.37067246810E+03  0.25500000000E-02 0.  1.
          2   -1    0    0  501    0  0.00000000000E+00 -0.00000000000E+00 -0.25159263436E+04  0.25159263436E+04  0.25500000000E-02 0. -1.
    8880022    1    1    2    0    0 -0.12015239383E+03 -0.86773842786E+03 -0.50985868392E+03  0.10250629773E+04  0.15294330000E+03 0.  0.
    8880022    1    1    2    0    0  0.12015239383E+03  0.86773842786E+03 -0.16353951916E+04  0.18615358344E+04  0.15294330000E+03 0. -1.
<mgrwt>
<rscale>  0 0.88926837E+03</rscale>
<asrwt>0</asrwt>
<pdfrwt beam="1">  1        2 0.38706558E+00 0.88926837E+03</pdfrwt>
<pdfrwt beam="2">  1       -2 0.57026535E-01 0.88926837E+03</pdfrwt>
<totfact> 0.10087920E+01</totfact>
</mgrwt>
</event>
<event>
 4    1  0.1033139E-008  0.1012035E+04  0.7818608E-02  0.9295443E-01
         -2   -1    0    0    0  501 -0.00000000000E+00  0.00000000000E+00  0.67661272279E+03  0.67661272280E+03  0.25500000000E-02 0.  1.
          2   -1    0    0  501    0  0.00000000000E+00 -0.00000000000E+00 -0.22336016192E+04  0.22336016192E+04  0.25500000000E-02 0. -1.
    8880022    1    1    2    0    0  0.15000351226E+03 -0.98910133946E+03  0.47576474458E+02  0.10131523515E+04  0.15294330000E+03 0.  0.
    8880022    1    1    2    0    0 -0.15000351226E+03  0.98910133946E+03 -0.16045653709E+04  0.18970619905E+04  0.15294330000E+03 0.  0.
<mgrwt>
<rscale>  0 0.10120347E+04</rscale>
<asrwt>0</asrwt>
<pdfrwt beam="1">  1        2 0.34363102E+00 0.10120347E+04</pdfrwt>
<pdfrwt beam="2">  1       -2 0.10409427E+00 0.10120347E+04</pdfrwt>
<totfact> 0.37177357E+00</totfact>
</mgrwt>
</event>
<event>
 4    1  0.1033139E-008  0.4259411E+03  0.7818608E-02  0.1035150E+00
          2   -1    0    0  501    0  0.00000000000E+00  0.00000000000E+00  0.73964207223E+03  0.73964207223E+03  0.25500000000E-02 0. -1.
         -2   -1    0    0    0  501 -0.00000000000E+00 -0.00000000000E+00 -0.40765291639E+03  0.40765291640E+03  0.25500000000E-02 0.  1.
    8880022    1    1    2    0    0 -0.20408864661E+03 -0.34114802137E+03  0.52802499365E+03  0.67840710130E+03  0.15294330000E+03 0.  0.
    8880022    1    1    2    0    0  0.20408864661E+03  0.34114802137E+03 -0.19603583782E+03  0.46888788733E+03  0.15294330000E+03 0.  0.
<mgrwt>
<rscale>  0 0.42594108E+03</rscale>
<asrwt>0</asrwt>
<pdfrwt beam="1">  1        2 0.11379109E+00 0.42594108E+03</pdfrwt>
<pdfrwt beam="2">  1       -2 0.62715835E-01 0.42594108E+03</pdfrwt>
<totfact> 0.93629688E+01</totfact>
</mgrwt>
</event>
<event>
 4    1  0.1033139E-008  0.1163426E+04  0.7818608E-02  0.9145487E-01
         -2   -1    0    0    0  501 -0.00000000000E+00  0.00000000000E+00  0.10622422749E+04  0.10622422749E+04  0.25500000000E-02 0.  1.
          2   -1    0    0  501    0  0.00000000000E+00 -0.00000000000E+00 -0.19303029850E+04  0.19303029850E+04  0.25500000000E-02 0. -1.
    8880022    1    1    2    0    0 -0.57097864015E+03 -0.10020731774E+04 -0.13063355895E+04  0.17493060298E+04  0.15294330000E+03 0.  0.
    8880022    1    1    2    0    0  0.57097864015E+03  0.10020731774E+04  0.43827487946E+03  0.12432392301E+04  0.15294330000E+03 0.  0.
<mgrwt>
<rscale>  0 0.11634255E+04</rscale>
<asrwt>0</asrwt>
<pdfrwt beam="1">  1        2 0.29696969E+00 0.11634255E+04</pdfrwt>
<pdfrwt beam="2">  1       -2 0.16342189E+00 0.11634255E+04</pdfrwt>
<totfact> 0.16951852E+00</totfact>
</mgrwt>
</event>
<event>
 4    1  0.1033139E-008  0.7858812E+03  0.7818608E-02  0.9580681E-01
         -2   -1    0    0    0  501 -0.00000000000E+00  0.00000000000E+00  0.37931419232E+03  0.37931419233E+03  0.25500000000E-02 0.  1.
          2   -1    0    0  501    0  0.00000000000E+00 -0.00000000000E+00 -0.38227558208E+04  0.38227558208E+04  0.25500000000E-02 0. -1.
    8880022    1    1    2    0    0 -0.76020070048E+03 -0.12772043729E+03 -0.33136206679E+04  0.34055383126E+04  0.15294330000E+03 0.  0.
    8880022    1    1    2    0    0  0.76020070048E+03  0.12772043729E+03 -0.12982096061E+03  0.79653170052E+03  0.15294330000E+03 0.  0.
<mgrwt>
<rscale>  0 0.78588120E+03</rscale>
<asrwt>0</asrwt>
<pdfrwt beam="1">  1        2 0.58811626E+00 0.78588120E+03</pdfrwt>
<pdfrwt beam="2">  1       -2 0.58356032E-01 0.78588120E+03</pdfrwt>
<totfact> 0.14172212E+00</totfact>
</mgrwt>
</event>
<event>
 4    1  0.1033139E-008  0.8728946E+03  0.7818608E-02  0.9460113E-01
          2   -1    0    0  501    0  0.00000000000E+00  0.00000000000E+00  0.12558878277E+04  0.12558878277E+04  0.25500000000E-02 0. -1.
         -2   -1    0    0    0  501 -0.00000000000E+00 -0.00000000000E+00 -0.69155441305E+03  0.69155441305E+03  0.25500000000E-02 0.  1.
    8880022    1    1    2    0    0  0.85933910495E+03 -0.94703228845E+01 -0.58918530232E+02  0.87488080933E+03  0.15294330000E+03 0.  0.
    8880022    1    1    2    0    0 -0.85933910495E+03  0.94703228845E+01  0.62325194483E+03  0.10725614314E+04  0.15294330000E+03 0. -1.
<mgrwt>
<rscale>  0 0.87289463E+03</rscale>
<asrwt>0</asrwt>
<pdfrwt beam="1">  1        2 0.19321351E+00 0.87289463E+03</pdfrwt>
<pdfrwt beam="2">  1       -2 0.10639299E+00 0.87289463E+03</pdfrwt>
<totfact> 0.12573488E+01</totfact>
</mgrwt>
</event>
<event>
 4    1  0.1033139E-008  0.4218595E+03  0.7818608E-02  0.1036463E+00
          2   -1    0    0  501    0  0.00000000000E+00  0.00000000000E+00  0.18268784851E+04  0.18268784851E+04  0.25500000000E-02 0. -1.
         -2   -1    0    0    0  501 -0.00000000000E+00 -0.00000000000E+00 -0.17168030502E+03  0.17168030504E+03  0.25500000000E-02 0.  1.
    8880022    1    1    2    0    0  0.33877941707E+03 -0.19950519111E+03  0.17036585206E+03  0.45496152724E+03  0.15294330000E+03 0.  1.
    8880022    1    1    2    0    0 -0.33877941707E+03  0.19950519111E+03  0.14848323281E+04  0.15435972629E+04  0.15294330000E+03 0.  0.
<mgrwt>
<rscale>  0 0.42185954E+03</rscale>
<asrwt>0</asrwt>
<pdfrwt beam="1">  1        2 0.28105825E+00 0.42185954E+03</pdfrwt>
<pdfrwt beam="2">  1       -2 0.26412353E-01 0.42185954E+03</pdfrwt>
<totfact> 0.11535064E+02</totfact>
</mgrwt>
</event>
<event>
 4    1  0.1033139E-008  0.4139803E+03  0.7818608E-02  0.1039043E+00
         -2   -1    0    0    0  501 -0.00000000000E+00  0.00000000000E+00  0.45318723890E+03  0.45318723891E+03  0.25500000000E-02 0.  1.
          2   -1    0    0  501    0  0.00000000000E+00 -0.00000000000E+00 -0.16319170710E+04  0.16319170710E+04  0.25500000000E-02 0. -1.
    8880022    1    1    2    0    0  0.26939883421E+03 -0.27461304213E+03 -0.15031719986E+04  0.15591362241E+04  0.15294330000E+03 0.  0.
    8880022    1    1    2    0    0 -0.26939883421E+03  0.27461304213E+03  0.32444216659E+03  0.52596808577E+03  0.15294330000E+03 0.  0.
<mgrwt>
<rscale>  0 0.41398032E+03</rscale>
<asrwt>0</asrwt>
<pdfrwt beam="1">  1        2 0.25106416E+00 0.41398032E+03</pdfrwt>
<pdfrwt beam="2">  1       -2 0.69721114E-01 0.41398032E+03</pdfrwt>
<totfact> 0.21802292E+01</totfact>
</mgrwt>
</event>
<event>
 4    1  0.1033139E-008  0.4676010E+03  0.7818608E-02  0.1022599E+00
         -2   -1    0    0    0  501 -0.00000000000E+00  0.00000000000E+00  0.57982341729E+03  0.57982341730E+03  0.25500000000E-02 0.  1.
          2   -1    0    0  501    0  0.00000000000E+00 -0.00000000000E+00 -0.18620110414E+04  0.18620110414E+04  0.25500000000E-02 0. -1.
    8880022    1    1    2    0    0 -0.43425428228E+03 -0.81745227207E+02  0.44920487661E+03  0.64841016188E+03  0.15294330000E+03 0.  0.
    8880022    1    1    2    0    0  0.43425428228E+03  0.81745227207E+02 -0.17313925007E+04  0.17934242968E+04  0.15294330000E+03 0.  0.
<mgrwt>
<rscale>  0 0.46760102E+03</rscale>
<asrwt>0</asrwt>
<pdfrwt beam="1">  1        2 0.28646323E+00 0.46760102E+03</pdfrwt>
<pdfrwt beam="2">  1       -2 0.89203604E-01 0.46760102E+03</pdfrwt>
<totfact> 0.93652905E+00</totfact>
</mgrwt>
</event>
<event>
 4    1  0.1033139E-008  0.1399579E+04  0.7818608E-02  0.8954123E-01
          2   -1    0    0  501    0  0.00000000000E+00  0.00000000000E+00  0.14625980573E+04  0.14625980573E+04  0.25500000000E-02 0. -1.
         -2   -1    0    0    0  501 -0.00000000000E+00 -0.00000000000E+00 -0.22018269454E+04  0.22018269454E+04  0.25500000000E-02 0.  1.
    8880022    1    1    2    0    0  0.70900123411E+03  0.11969744086E+04  0.77715651653E+03  0.16008730084E+04  0.15294330000E+03 0.  0.
    8880022    1    1    2    0    0 -0.70900123411E+03 -0.11969744086E+04 -0.15163854046E+04  0.20635519943E+04  0.15294330000E+03 0.  0.
<mgrwt>
<rscale>  0 0.13995793E+04</rscale>
<asrwt>0</asrwt>
<pdfrwt beam="1">  1        2 0.22501509E+00 0.13995793E+04</pdfrwt>
<pdfrwt beam="2">  1       -2 0.33874261E+00 0.13995793E+04</pdfrwt>
<totfact> 0.23272052E-01</totfact>
</mgrwt>
</event>
<event>
 4    1  0.1033139E-008  0.8369254E+03  0.7818608E-02  0.9508055E-01
          2   -1    0    0  501    0  0.00000000000E+00  0.00000000000E+00  0.18446242710E+04  0.18446242710E+04  0.25500000000E-02 0. -1.
         -2   -1    0    0    0  501 -0.00000000000E+00 -0.00000000000E+00 -0.60236883732E+03  0.60236883732E+03  0.25500000000E-02 0.  1.
    8880022    1    1    2    0    0  0.51313573232E+03  0.64322953239E+03 -0.12271292157E+03  0.84587388260E+03  0.15294330000E+03 0.  0.
    8880022    1    1    2    0    0 -0.51313573232E+03 -0.64322953239E+03  0.13649683552E+04  0.16011192257E+04  0.15294330000E+03 0.  0.
<mgrwt>
<rscale>  0 0.83692542E+03</rscale>
<asrwt>0</asrwt>
<pdfrwt beam="1">  1        2 0.28378835E+00 0.83692542E+03</pdfrwt>
<pdfrwt beam="2">  1       -2 0.92672129E-01 0.83692542E+03</pdfrwt>
<totfact> 0.82038837E+00</totfact>
</mgrwt>
</event>
<event>
 4    1  0.1033139E-008  0.5295064E+03  0.7818608E-02  0.1006352E+00
          2   -1    0    0  501    0  0.00000000000E+00  0.00000000000E+00  0.14376063278E+04  0.14376063278E+04  0.25500000000E-02 0. -1.
         -2   -1    0    0    0  501 -0.00000000000E+00 -0.00000000000E+00 -0.27847460282E+03  0.27847460283E+03  0.25500000000E-02 0.  1.
    8880022    1    1    2    0    0  0.48378324035E+03  0.15145681212E+03  0.10987418248E+03  0.54078588977E+03  0.15294330000E+03 0.  0.
    8880022    1    1    2    0    0 -0.48378324035E+03 -0.15145681212E+03  0.10492575425E+04  0.11752950409E+04  0.15294330000E+03 0.  0.
<mgrwt>
<rscale>  0 0.52950641E+03</rscale>
<asrwt>0</asrwt>
<pdfrwt beam="1">  1        2 0.22117021E+00 0.52950641E+03</pdfrwt>
<pdfrwt beam="2">  1       -2 0.42842246E-01 0.52950641E+03</pdfrwt>
<totfact> 0.74327243E+01</totfact>
</mgrwt>
</event>
<event>
 4    1  0.1033139E-008  0.2513071E+03  0.7818608E-02  0.1112482E+00
         -2   -1    0    0    0  501 -0.00000000000E+00  0.00000000000E+00  0.58646606680E+03  0.58646606681E+03  0.25500000000E-02 0.  1.
          2   -1    0    0  501    0  0.00000000000E+00 -0.00000000000E+00 -0.23495503735E+04  0.23495503735E+04  0.25500000000E-02 0. -1.
    8880022    1    1    2    0    0  0.19736388178E+03 -0.28479500850E+02 -0.23155139217E+04  0.23291114096E+04  0.15294330000E+03 0.  0.
    8880022    1    1    2    0    0 -0.19736388178E+03  0.28479500850E+02  0.55242961497E+03  0.60690503072E+03  0.15294330000E+03 0.  1.
<mgrwt>
<rscale>  0 0.25130706E+03</rscale>
<asrwt>0</asrwt>
<pdfrwt beam="1">  1        2 0.36146928E+00 0.25130706E+03</pdfrwt>
<pdfrwt beam="2">  1       -2 0.90225550E-01 0.25130706E+03</pdfrwt>
<totfact> 0.54198926E+00</totfact>
</mgrwt>
</event>
<event>
 4    1  0.1033139E-008  0.5891314E+03  0.7818608E-02  0.9928215E-01
         -2   -1    0    0    0  501 -0.00000000000E+00  0.00000000000E+00  0.23280511043E+03  0.23280511045E+03  0.25500000000E-02 0.  1.
          2   -1    0    0  501    0  0.00000000000E+00 -0.00000000000E+00 -0.22975285152E+04  0.22975285152E+04  0.25500000000E-02 0. -1.
    8880022    1    1    2    0    0 -0.14589124845E+02 -0.56874543041E+03 -0.28269283433E+03  0.65344555915E+03  0.15294330000E+03 0.  0.
    8880022    1    1    2    0    0  0.14589124845E+02  0.56874543041E+03 -0.17820305704E+04  0.18768880665E+04  0.15294330000E+03 0.  0.
<mgrwt>
<rscale>  0 0.58913145E+03</rscale>
<asrwt>0</asrwt>
<pdfrwt beam="1">  1        2 0.35346591E+00 0.58913145E+03</pdfrwt>
<pdfrwt beam="2">  1       -2 0.35816172E-01 0.58913145E+03</pdfrwt>
<totfact> 0.35465174E+01</totfact>
</mgrwt>
</event>
<event>
 4    1  0.1033139E-008  0.1041748E+04  0.7818608E-02  0.9263905E-01
         -2   -1    0    0    0  501 -0.00000000000E+00  0.00000000000E+00  0.16047147607E+04  0.16047147607E+04  0.25500000000E-02 0.  1.
          2   -1    0    0  501    0  0.00000000000E+00 -0.00000000000E+00 -0.77091729341E+03  0.77091729342E+03  0.25500000000E-02 0. -1.
    8880022    1    1    2    0    0  0.86181636443E+03  0.56490698721E+03  0.83307073679E+03  0.13338837489E+04  0.15294330000E+03 0.  0.
    8880022    1    1    2    0    0 -0.86181636443E+03 -0.56490698721E+03  0.72673050476E+00  0.10417483052E+04  0.15294330000E+03 0.  0.
<mgrwt>
<rscale>  0 0.10417481E+04</rscale>
<asrwt>0</asrwt>
<pdfrwt beam="1">  1        2 0.11860266E+00 0.10417481E+04</pdfrwt>
<pdfrwt beam="2">  1       -2 0.24687919E+00 0.10417481E+04</pdfrwt>
<totfact> 0.24120960E+00</totfact>
</mgrwt>
</event>
<event>
 4    1  0.1033139E-008  0.7684563E+03  0.7818608E-02  0.9606832E-01
         -2   -1    0    0    0  501 -0.00000000000E+00  0.00000000000E+00  0.62555376001E+03  0.62555376001E+03  0.25500000000E-02 0.  1.
          2   -1    0    0  501    0  0.00000000000E+00 -0.00000000000E+00 -0.20046812223E+04  0.20046812223E+04  0.25500000000E-02 0. -1.
    8880022    1    1    2    0    0  0.44083441625E+03 -0.61057219725E+03 -0.16461707920E+04  0.18167012193E+04  0.15294330000E+03 0.  0.
    8880022    1    1    2    0    0 -0.44083441625E+03  0.61057219725E+03  0.26704332973E+03  0.81353376302E+03  0.15294330000E+03 0.  0.
<mgrwt>
<rscale>  0 0.76845627E+03</rscale>
<asrwt>0</asrwt>
<pdfrwt beam="1">  1        2 0.30841249E+00 0.76845627E+03</pdfrwt>
<pdfrwt beam="2">  1       -2 0.96239041E-01 0.76845627E+03</pdfrwt>
<totfact> 0.62026204E+00</totfact>
</mgrwt>
</event>
<event>
 4    1  0.1496234E-008  0.1209667E+04  0.7818608E-02  0.9104437E-01
          2   -1    0    0  501    0  0.00000000000E+00  0.00000000000E+00  0.16367441200E+04  0.16367441200E+04  0.25500000000E-02 0. -1.
         -2   -1    0    0    0  501 -0.00000000000E+00 -0.00000000000E+00 -0.17530828218E+04  0.17530828218E+04  0.25500000000E-02 0.  1.
    8880022    1    1    2    0    0  0.37142142982E+02 -0.11993842670E+04  0.11283011610E+04  0.16541938585E+04  0.15294330000E+03 0.  0.
    8880022    1    1    2    0    0 -0.37142142982E+02  0.11993842670E+04 -0.12446398628E+04  0.17356330833E+04  0.15294330000E+03 0.  0.
<mgrwt>
<rscale>  0 0.12096668E+04</rscale>
<asrwt>0</asrwt>
<pdfrwt beam="1">  1        2 0.25180679E+00 0.12096668E+04</pdfrwt>
<pdfrwt beam="2">  1       -2 0.26970505E+00 0.12096668E+04</pdfrwt>
<totfact> 0.50307359E-01</totfact>
</mgrwt>
</event>
<event>
 4    1  0.1033139E-008  0.9180218E+03  0.7818608E-02  0.9403330E-01
          2   -1    0    0  501    0  0.00000000000E+00  0.00000000000E+00  0.16646659745E+04  0.16646659745E+04  0.25500000000E-02 0. -1.
         -2   -1    0    0    0  501 -0.00000000000E+00 -0.00000000000E+00 -0.52230034773E+03  0.52230034774E+03  0.25500000000E-02 0.  1.
    8880022    1    1    2    0    0 -0.29595108997E+03 -0.85544452977E+03  0.37959164921E+03  0.99340518638E+03  0.15294330000E+03 0.  0.
    8880022    1    1    2    0    0  0.29595108997E+03  0.85544452977E+03  0.76277397754E+03  0.11935611358E+04  0.15294330000E+03 0.  0.
<mgrwt>
<rscale>  0 0.91802181E+03</rscale>
<asrwt>0</asrwt>
<pdfrwt beam="1">  1        2 0.25610245E+00 0.91802181E+03</pdfrwt>
<pdfrwt beam="2">  1       -2 0.80353901E-01 0.91802181E+03</pdfrwt>
<totfact> 0.14141671E+01</totfact>
</mgrwt>
</event>
<event>
 4    1  0.1033139E-008  0.1182203E+04  0.7818608E-02  0.9128579E-01
         -2   -1    0    0    0  501 -0.00000000000E+00  0.00000000000E+00  0.15714696745E+04  0.15714696745E+04  0.25500000000E-02 0.  1.
          2   -1    0    0  501    0  0.00000000000E+00 -0.00000000000E+00 -0.10390724969E+04  0.10390724969E+04  0.25500000000E-02 0. -1.
    8880022    1    1    2    0    0 -0.31109275725E+03 -0.11302356585E+04  0.76165579024E+03  0.14063152360E+04  0.15294330000E+03 0.  0.
    8880022    1    1    2    0    0  0.31109275725E+03  0.11302356585E+04 -0.22925861272E+03  0.12042269353E+04  0.15294330000E+03 0. -1.
<mgrwt>
<rscale>  0 0.11822026E+04</rscale>
<asrwt>0</asrwt>
<pdfrwt beam="1">  1        2 0.15985731E+00 0.11822026E+04</pdfrwt>
<pdfrwt beam="2">  1       -2 0.24176456E+00 0.11822026E+04</pdfrwt>
<totfact> 0.16754154E+00</totfact>
</mgrwt>
</event>
<event>
 4    1  0.1033139E-008  0.9765845E+03  0.7818608E-02  0.9334606E-01
          2   -1    0    0  501    0  0.00000000000E+00  0.00000000000E+00  0.25496395776E+04  0.25496395776E+04  0.25500000000E-02 0. -1.
         -2   -1    0    0    0  501 -0.00000000000E+00 -0.00000000000E+00 -0.64209840195E+03  0.64209840196E+03  0.25500000000E-02 0.  1.
    8880022    1    1    2    0    0 -0.45047839555E+03  0.85287443302E+03  0.19848574453E+04  0.22120977181E+04  0.15294330000E+03 0.  0.
    8880022    1    1    2    0    0  0.45047839555E+03 -0.85287443302E+03 -0.77316269604E+02  0.97964026148E+03  0.15294330000E+03 0.  0.
<mgrwt>
<rscale>  0 0.97658447E+03</rscale>
<asrwt>0</asrwt>
<pdfrwt beam="1">  1        2 0.39225223E+00 0.97658447E+03</pdfrwt>
<pdfrwt beam="2">  1       -2 0.98784373E-01 0.97658447E+03</pdfrwt>
<totfact> 0.28055816E+00</totfact>
</mgrwt>
</event>
<event>
 4    1  0.1033139E-008  0.1890863E+04  0.7818608E-02  0.8659418E-01
          2   -1    0    0  501    0  0.00000000000E+00  0.00000000000E+00  0.18242434515E+04  0.18242434515E+04  0.25500000000E-02 0. -1.
         -2   -1    0    0    0  501 -0.00000000000E+00 -0.00000000000E+00 -0.20364660457E+04  0.20364660457E+04  0.25500000000E-02 0.  1.
    8880022    1    1    2    0    0  0.18846502745E+04 -0.81406607328E+01 -0.48036857534E+03  0.19509276124E+04  0.15294330000E+03 0.  0.
    8880022    1    1    2    0    0 -0.18846502745E+04  0.81406607328E+01  0.26814598113E+03  0.19097818849E+04  0.15294330000E+03 0.  0.
<mgrwt>
<rscale>  0 0.18908634E+04</rscale>
<asrwt>0</asrwt>
<pdfrwt beam="1">  1        2 0.28065284E+00 0.18908634E+04</pdfrwt>
<pdfrwt beam="2">  1       -2 0.31330247E+00 0.18908634E+04</pdfrwt>
<totfact> 0.19856715E-01</totfact>
</mgrwt>
</event>
<event>
 4    1  0.1033139E-008  0.6699756E+03  0.7818608E-02  0.9770002E-01
         -2   -1    0    0    0  501 -0.00000000000E+00  0.00000000000E+00  0.16784496784E+04  0.16784496784E+04  0.25500000000E-02 0.  1.
          2   -1    0    0  501    0  0.00000000000E+00 -0.00000000000E+00 -0.68084894435E+03  0.68084894435E+03  0.25500000000E-02 0. -1.
    8880022    1    1    2    0    0  0.17889358558E+03  0.62727401844E+03 -0.42042687952E+03  0.79096524778E+03  0.15294330000E+03 0.  0.
    8880022    1    1    2    0    0 -0.17889358558E+03 -0.62727401844E+03  0.14180276135E+04  0.15683333749E+04  0.15294330000E+03 0.  0.
<mgrwt>
<rscale>  0 0.66997557E+03</rscale>
<asrwt>0</asrwt>
<pdfrwt beam="1">  1        2 0.10474599E+00 0.66997557E+03</pdfrwt>
<pdfrwt beam="2">  1       -2 0.25822303E+00 0.66997557E+03</pdfrwt>
<totfact> 0.25392082E+00</totfact>
</mgrwt>
</event>
<event>
 4    1  0.1033139E-008  0.2102574E+03  0.7818608E-02  0.1141362E+00
         -2   -1    0    0    0  501 -0.00000000000E+00  0.00000000000E+00  0.24975911789E+03  0.24975911791E+03  0.25500000000E-02 0.  1.
          2   -1    0    0  501    0  0.00000000000E+00 -0.00000000000E+00 -0.12312312875E+04  0.12312312875E+04  0.25500000000E-02 0. -1.
    8880022    1    1    2    0    0  0.69476430798E+02 -0.12644974426E+03  0.19446764352E+03  0.28640151824E+03  0.15294330000E+03 0.  0.
    8880022    1    1    2    0    0 -0.69476430798E+02  0.12644974426E+03 -0.11759398131E+04  0.11945888871E+04  0.15294330000E+03 0. -1.
<mgrwt>
<rscale>  0 0.21025738E+03</rscale>
<asrwt>0</asrwt>
<pdfrwt beam="1">  1        2 0.18942019E+00 0.21025738E+03</pdfrwt>
<pdfrwt beam="2">  1       -2 0.38424481E-01 0.21025738E+03</pdfrwt>
<totfact> 0.12672564E+02</totfact>
</mgrwt>
</event>
<event>
 4    1  0.1033139E-008  0.7859311E+03  0.7818608E-02  0.9580608E-01
         -2   -1    0    0    0  501 -0.00000000000E+00  0.00000000000E+00  0.21844265346E+04  0.21844265346E+04  0.25500000000E-02 0.  1.
          2   -1    0    0  501    0  0.00000000000E+00 -0.00000000000E+00 -0.58879044942E+03  0.58879044943E+03  0.25500000000E-02 0. -1.
    8880022    1    1    2    0    0  0.55961505674E+03  0.53021407065E+03  0.17974717188E+04  0.19617829150E+04  0.15294330000E+03 0.  0.
    8880022    1    1    2    0    0 -0.55961505674E+03 -0.53021407065E+03 -0.20183563363E+03  0.81143406908E+03  0.15294330000E+03 0.  0.
<mgrwt>
<rscale>  0 0.78593106E+03</rscale>
<asrwt>0</asrwt>
<pdfrwt beam="1">  1        2 0.90583145E-01 0.78593106E+03</pdfrwt>
<pdfrwt beam="2">  1       -2 0.33606562E+00 0.78593106E+03</pdfrwt>
<totfact> 0.10087875E+00</totfact>
</mgrwt>
</event>
<event>
 4    1  0.1033139E-008  0.1424287E+04  0.7818608E-02  0.8936423E-01
          2   -1    0    0  501    0  0.00000000000E+00  0.00000000000E+00  0.92983949849E+03  0.92983949849E+03  0.25500000000E-02 0. -1.
         -2   -1    0    0    0  501 -0.00000000000E+00 -0.00000000000E+00 -0.27098527036E+04  0.27098527036E+04  0.25500000000E-02 0.  1.
    8880022    1    1    2    0    0 -0.73004795436E+03 -0.12133559892E+04 -0.16934544134E+04  0.22127770506E+04  0.15294330000E+03 0.  0.
    8880022    1    1    2    0    0  0.73004795436E+03  0.12133559892E+04 -0.86558791709E+02  0.14269151515E+04  0.15294330000E+03 0.  0.
<mgrwt>
<rscale>  0 0.14242873E+04</rscale>
<asrwt>0</asrwt>
<pdfrwt beam="1">  1        2 0.14305223E+00 0.14242873E+04</pdfrwt>
<pdfrwt beam="2">  1       -2 0.41690041E+00 0.14242873E+04</pdfrwt>
<totfact> 0.15435175E-01</totfact>
</mgrwt>
</event>
<event>
 4    1  0.1033139E-008  0.6322907E+03  0.7818608E-02  0.9840589E-01
          2   -1    0    0  501    0  0.00000000000E+00  0.00000000000E+00  0.11768078514E+04  0.11768078514E+04  0.25500000000E-02 0. -1.
         -2   -1    0    0    0  501 -0.00000000000E+00 -0.00000000000E+00 -0.73977308460E+03  0.73977308460E+03  0.25500000000E-02 0.  1.
    8880022    1    1    2    0    0 -0.54984127388E+03 -0.27216611151E+03 -0.48618186311E+03  0.79759906955E+03  0.15294330000E+03 0.  0.
    8880022    1    1    2    0    0  0.54984127388E+03  0.27216611151E+03  0.92321662994E+03  0.11189818665E+04  0.15294330000E+03 0.  0.
<mgrwt>
<rscale>  0 0.63229065E+03</rscale>
<asrwt>0</asrwt>
<pdfrwt beam="1">  1        2 0.18104736E+00 0.63229065E+03</pdfrwt>
<pdfrwt beam="2">  1       -2 0.11381124E+00 0.63229065E+03</pdfrwt>
<totfact> 0.12246006E+01</totfact>
</mgrwt>
</event>
<event>
 4    1  0.1033139E-008  0.1031481E+04  0.7818608E-02  0.9274675E-01
          2   -1    0    0  501    0  0.00000000000E+00  0.00000000000E+00  0.20478429145E+04  0.20478429145E+04  0.25500000000E-02 0. -1.
         -2   -1    0    0    0  501 -0.00000000000E+00 -0.00000000000E+00 -0.12846069158E+04  0.12846069158E+04  0.25500000000E-02 0.  1.
    8880022    1    1    2    0    0  0.10090311553E+04  0.14972675205E+03 -0.90424827870E+03  0.13717210267E+04  0.15294330000E+03 0.  0.
    8880022    1    1    2    0    0 -0.10090311553E+04 -0.14972675205E+03  0.16674842774E+04  0.19607288036E+04  0.15294330000E+03 0.  0.
<mgrwt>
<rscale>  0 0.10314813E+04</rscale>
<asrwt>0</asrwt>
<pdfrwt beam="1">  1        2 0.31505276E+00 0.10314813E+04</pdfrwt>
<pdfrwt beam="2">  1       -2 0.19763183E+00 0.10314813E+04</pdfrwt>
<totfact> 0.86138820E-01</totfact>
</mgrwt>
</event>
<event>
 4    1  0.1033139E-008  0.1202026E+04  0.7818608E-02  0.9111085E-01
         -2   -1    0    0    0  501 -0.00000000000E+00  0.00000000000E+00  0.12290929403E+04  0.12290929403E+04  0.25500000000E-02 0.  1.
          2   -1    0    0  501    0  0.00000000000E+00 -0.00000000000E+00 -0.34401301556E+04  0.34401301556E+04  0.25500000000E-02 0. -1.
    8880022    1    1    2    0    0 -0.79281638776E+03 -0.89045914080E+03  0.78865819690E+03  0.14376538911E+04  0.15294330000E+03 0.  0.
    8880022    1    1    2    0    0  0.79281638776E+03  0.89045914080E+03 -0.29996954122E+04  0.32315692047E+04  0.15294330000E+03 0.  0.
<mgrwt>
<rscale>  0 0.12020262E+04</rscale>
<asrwt>0</asrwt>
<pdfrwt beam="1">  1        2 0.52925079E+00 0.12020262E+04</pdfrwt>
<pdfrwt beam="2">  1       -2 0.18909122E+00 0.12020262E+04</pdfrwt>
<totfact> 0.13941971E-01</totfact>
</mgrwt>
</event>
<event>
 4    1  0.1033139E-008  0.1230804E+04  0.7818608E-02  0.9086313E-01
          2   -1    0    0  501    0  0.00000000000E+00  0.00000000000E+00  0.21930963412E+04  0.21930963412E+04  0.25500000000E-02 0. -1.
         -2   -1    0    0    0  501 -0.00000000000E+00 -0.00000000000E+00 -0.92076772996E+03  0.92076772996E+03  0.25500000000E-02 0.  1.
    8880022    1    1    2    0    0  0.77349801973E+03 -0.94508629568E+03  0.14143375215E+04  0.18748945492E+04  0.15294330000E+03 0.  0.
    8880022    1    1    2    0    0 -0.77349801973E+03  0.94508629568E+03 -0.14200891026E+03  0.12389695220E+04  0.15294330000E+03 0.  0.
<mgrwt>
<rscale>  0 0.12308042E+04</rscale>
<asrwt>0</asrwt>
<pdfrwt beam="1">  1        2 0.33739944E+00 0.12308042E+04</pdfrwt>
<pdfrwt beam="2">  1       -2 0.14165657E+00 0.12308042E+04</pdfrwt>
<totfact> 0.17638754E+00</totfact>
</mgrwt>
</event>
<event>
 4    1  0.1033139E-008  0.4741303E+03  0.7818608E-02  0.1020761E+00
         -2   -1    0    0    0  501 -0.00000000000E+00  0.00000000000E+00  0.85944753603E+03  0.85944753603E+03  0.25500000000E-02 0.  1.
          2   -1    0    0  501    0  0.00000000000E+00 -0.00000000000E+00 -0.23734295840E+04  0.23734295840E+04  0.25500000000E-02 0. -1.
    8880022    1    1    2    0    0 -0.44769071626E+03  0.31318817346E+02 -0.22817608417E+04  0.23305003835E+04  0.15294330000E+03 0.  0.
    8880022    1    1    2    0    0  0.44769071626E+03 -0.31318817346E+02  0.76777879367E+03  0.90237673660E+03  0.15294330000E+03 0.  0.
<mgrwt>
<rscale>  0 0.47413026E+03</rscale>
<asrwt>0</asrwt>
<pdfrwt beam="1">  1        2 0.36514301E+00 0.47413026E+03</pdfrwt>
<pdfrwt beam="2">  1       -2 0.13222270E+00 0.47413026E+03</pdfrwt>
<totfact> 0.19217295E+00</totfact>
</mgrwt>
</event>
<event>
 4    1  0.1033139E-008  0.6213283E+03  0.7818608E-02  0.9862119E-01
         -2   -1    0    0    0  501 -0.00000000000E+00  0.00000000000E+00  0.43870085884E+03  0.43870085885E+03  0.25500000000E-02 0.  1.
          2   -1    0    0  501    0  0.00000000000E+00 -0.00000000000E+00 -0.20519270976E+04  0.20519270976E+04  0.25500000000E-02 0. -1.
    8880022    1    1    2    0    0  0.44914096504E+03  0.40116032318E+03  0.13452102662E+03  0.63572381660E+03  0.15294330000E+03 0.  0.
    8880022    1    1    2    0    0 -0.44914096504E+03 -0.40116032318E+03 -0.17477472653E+04  0.18549041398E+04  0.15294330000E+03 0.  0.
<mgrwt>
<rscale>  0 0.62132831E+03</rscale>
<asrwt>0</asrwt>
<pdfrwt beam="1">  1        2 0.31568109E+00 0.62132831E+03</pdfrwt>
<pdfrwt beam="2">  1       -2 0.67492441E-01 0.62132831E+03</pdfrwt>
<totfact> 0.13313048E+01</totfact>
</mgrwt>
</event>
<event>
 4    1  0.1033139E-008  0.1107409E+04  0.7818608E-02  0.9198000E-01
         -2   -1    0    0    0  501 -0.00000000000E+00  0.00000000000E+00  0.99518648272E+03  0.99518648272E+03  0.25500000000E-02 0.  1.
          2   -1    0    0  501    0  0.00000000000E+00 -0.00000000000E+00 -0.14432185970E+04  0.14432185970E+04  0.25500000000E-02 0. -1.
    8880022    1    1    2    0    0 -0.69927884454E+03 -0.84496933678E+03  0.24208516087E+03  0.11335611852E+04  0.15294330000E+03 0.  0.
    8880022    1    1    2    0    0  0.69927884454E+03  0.84496933678E+03 -0.69011727515E+03  0.13048438945E+04  0.15294330000E+03 0. -1.
<mgrwt>
<rscale>  0 0.11074095E+04</rscale>
<asrwt>0</asrwt>
<pdfrwt beam="1">  1        2 0.22203363E+00 0.11074095E+04</pdfrwt>
<pdfrwt beam="2">  1       -2 0.15310561E+00 0.11074095E+04</pdfrwt>
<totfact> 0.38041472E+00</totfact>
</mgrwt>
</event>
<event>
 4    1  0.1033139E-008  0.8928116E+03  0.7818608E-02  0.9434612E-01
          2   -1    0    0  501    0  0.00000000000E+00  0.00000000000E+00  0.12819366694E+04  0.12819366694E+04  0.25500000000E-02 0. -1.
         -2   -1    0    0    0  501 -0.00000000000E+00 -0.00000000000E+00 -0.22762048854E+04  0.22762048854E+04  0.25500000000E-02 0.  1.
    8880022    1    1    2    0    0  0.87955562298E+03 -0.10142311544E+02 -0.20138631505E+04  0.22028975015E+04  0.15294330000E+03 0.  0.
    8880022    1    1    2    0    0 -0.87955562298E+03  0.10142311544E+02  0.10195949345E+04  0.13552440533E+04  0.15294330000E+03 0.  0.
<mgrwt>
<rscale>  0 0.89281163E+03</rscale>
<asrwt>0</asrwt>
<pdfrwt beam="1">  1        2 0.19722103E+00 0.89281163E+03</pdfrwt>
<pdfrwt beam="2">  1       -2 0.35018537E+00 0.89281163E+03</pdfrwt>
<totfact> 0.27114082E-01</totfact>
</mgrwt>
</event>
<event>
 4    1  0.1033139E-008  0.6253420E+03  0.7818608E-02  0.9854181E-01
          2   -1    0    0  501    0  0.00000000000E+00  0.00000000000E+00  0.79859339145E+03  0.79859339145E+03  0.25500000000E-02 0. -1.
         -2   -1    0    0    0  501 -0.00000000000E+00 -0.00000000000E+00 -0.70101107614E+03  0.70101107615E+03  0.25500000000E-02 0.  1.
    8880022    1    1    2    0    0  0.57151049189E+03 -0.20257515840E+03 -0.36289792045E+03  0.72301278745E+03  0.15294330000E+03 0.  0.
    8880022    1    1    2    0    0 -0.57151049189E+03  0.20257515840E+03  0.46048023575E+03  0.77659168015E+03  0.15294330000E+03 0.  0.
<mgrwt>
<rscale>  0 0.62534198E+03</rscale>
<asrwt>0</asrwt>
<pdfrwt beam="1">  1        2 0.12286052E+00 0.62534198E+03</pdfrwt>
<pdfrwt beam="2">  1       -2 0.10784786E+00 0.62534198E+03</pdfrwt>
<totfact> 0.24447335E+01</totfact>
</mgrwt>
</event>
<event>
 4    1  0.1033139E-008  0.6927983E+03  0.7818608E-02  0.9729628E-01
         -2   -1    0    0    0  501 -0.00000000000E+00  0.00000000000E+00  0.64863986609E+03  0.64863986609E+03  0.25500000000E-02 0.  1.
          2   -1    0    0  501    0  0.00000000000E+00 -0.00000000000E+00 -0.98656851582E+03  0.98656851583E+03  0.25500000000E-02 0. -1.
    8880022    1    1    2    0    0  0.58047648971E+03  0.34586836086E+03  0.23980738864E+03  0.73312830720E+03  0.15294330000E+03 0.  0.
    8880022    1    1    2    0    0 -0.58047648971E+03 -0.34586836086E+03 -0.57773603837E+03  0.90208007472E+03  0.15294330000E+03 0.  0.
<mgrwt>
<rscale>  0 0.69279833E+03</rscale>
<asrwt>0</asrwt>
<pdfrwt beam="1">  1        2 0.15177977E+00 0.69279833E+03</pdfrwt>
<pdfrwt beam="2">  1       -2 0.99790749E-01 0.69279833E+03</pdfrwt>
<totfact> 0.21811416E+01</totfact>
</mgrwt>
</event>
<event>
 4    1  0.1033139E-008  0.3871838E+03  0.7818608E-02  0.1048310E+00
         -2   -1    0    0    0  501 -0.00000000000E+00  0.00000000000E+00  0.14656813157E+04  0.14656813157E+04  0.25500000000E-02 0.  1.
          2   -1    0    0  501    0  0.00000000000E+00 -0.00000000000E+00 -0.10669060596E+04  0.10669060596E+04  0.25500000000E-02 0. -1.
    8880022    1    1    2    0    0  0.23164762440E+03 -0.26992413976E+03  0.14034545522E+04  0.14558832358E+04  0.15294330000E+03 0.  0.
    8880022    1    1    2    0    0 -0.23164762440E+03  0.26992413976E+03 -0.10046792960E+04  0.10767041395E+04  0.15294330000E+03 0.  0.
<mgrwt>
<rscale>  0 0.38718383E+03</rscale>
<asrwt>0</asrwt>
<pdfrwt beam="1">  1        2 0.16413939E+00 0.38718383E+03</pdfrwt>
<pdfrwt beam="2">  1       -2 0.22548943E+00 0.38718383E+03</pdfrwt>
<totfact> 0.23312646E+00</totfact>
</mgrwt>
</event>
<event>
 4    1  0.1052663E-008  0.1019091E+04  0.7818608E-02  0.9287851E-01
          2   -1    0    0  501    0  0.00000000000E+00  0.00000000000E+00  0.11086363016E+04  0.11086363016E+04  0.25500000000E-02 0. -1.
         -2   -1    0    0    0  501 -0.00000000000E+00 -0.00000000000E+00 -0.22802893067E+04  0.22802893067E+04  0.25500000000E-02 0.  1.
    8880022    1    1    2    0    0  0.10073534377E+04  0.19833724784E+02 -0.18864684151E+04  0.21441336383E+04  0.15294330000E+03 0.  0.
    8880022    1    1    2    0    0 -0.10073534377E+04 -0.19833724784E+02  0.71481540997E+03  0.12447919699E+04  0.15294330000E+03 0.  0.
<mgrwt>
<rscale>  0 0.10190908E+04</rscale>
<asrwt>0</asrwt>
<pdfrwt beam="1">  1        2 0.17055943E+00 0.10190908E+04</pdfrwt>
<pdfrwt beam="2">  1       -2 0.35081374E+00 0.10190908E+04</pdfrwt>
<totfact> 0.33363140E-01</totfact>
</mgrwt>
</event>
<event>
 4    1  0.1033139E-008  0.2299494E+04  0.7818608E-02  0.8478120E-01
         -2   -1    0    0    0  501 -0.00000000000E+00  0.00000000000E+00  0.34676549502E+04  0.34676549502E+04  0.25500000000E-02 0.  1.
          2   -1    0    0  501    0  0.00000000000E+00 -0.00000000000E+00 -0.16349305356E+04  0.16349305356E+04  0.25500000000E-02 0. -1.
    8880022    1    1    2    0    0 -0.17941993834E+04  0.14300810233E+04  0.25436848811E+03  0.23135207242E+04  0.15294330000E+03 0.  0.
    8880022    1    1    2    0    0  0.17941993834E+04 -0.14300810233E+04  0.15783559264E+04  0.27890647616E+04  0.15294330000E+03 0.  0.
<mgrwt>
<rscale>  0 0.22994945E+04</rscale>
<asrwt>0</asrwt>
<pdfrwt beam="1">  1        2 0.25152778E+00 0.22994945E+04</pdfrwt>
<pdfrwt beam="2">  1       -2 0.53348537E+00 0.22994945E+04</pdfrwt>
<totfact> 0.95095628E-03</totfact>
</mgrwt>
</event>
<event>
 4    1  0.1033139E-008  0.5849912E+03  0.7818608E-02  0.9937043E-01
          2   -1    0    0  501    0  0.00000000000E+00  0.00000000000E+00  0.22101870986E+04  0.22101870986E+04  0.25500000000E-02 0. -1.
         -2   -1    0    0    0  501 -0.00000000000E+00 -0.00000000000E+00 -0.20161759073E+03  0.20161759075E+03  0.25500000000E-02 0.  1.
    8880022    1    1    2    0    0  0.44828594851E+03 -0.34331142152E+03  0.15851686184E+04  0.16896668978E+04  0.15294330000E+03 0.  0.
    8880022    1    1    2    0    0 -0.44828594851E+03  0.34331142152E+03  0.42340088951E+03  0.72213779159E+03  0.15294330000E+03 0.  0.
<mgrwt>
<rscale>  0 0.58499118E+03</rscale>
<asrwt>0</asrwt>
<pdfrwt beam="1">  1        2 0.34002880E+00 0.58499118E+03</pdfrwt>
<pdfrwt beam="2">  1       -2 0.31018090E-01 0.58499118E+03</pdfrwt>
<totfact> 0.51949357E+01</totfact>
</mgrwt>
</event>
<event>
 4    1  0.1033139E-008  0.8486983E+03  0.7818608E-02  0.9492086E-01
          2   -1    0    0  501    0  0.00000000000E+00  0.00000000000E+00  0.26728851999E+04  0.26728851999E+04  0.25500000000E-02 0. -1.
         -2   -1    0    0    0  501 -0.00000000000E+00 -0.00000000000E+00 -0.72165940418E+03  0.72165940418E+03  0.25500000000E-02 0.  1.
    8880022    1    1    2    0    0  0.72321027434E+03 -0.41697012491E+03 -0.36789685198E+03  0.92500645008E+03  0.15294330000E+03 0.  0.
    8880022    1    1    2    0    0 -0.72321027434E+03  0.41697012491E+03  0.23191226477E+04  0.24695381540E+04  0.15294330000E+03 0.  0.
<mgrwt>
<rscale>  0 0.84869832E+03</rscale>
<asrwt>0</asrwt>
<pdfrwt beam="1">  1        2 0.41121311E+00 0.84869832E+03</pdfrwt>
<pdfrwt beam="2">  1       -2 0.11102452E+00 0.84869832E+03</pdfrwt>
<totfact> 0.18352109E+00</totfact>
</mgrwt>
</event>
<event>
 4    1  0.1033139E-008  0.1155500E+04  0.7818608E-02  0.9152725E-01
         -2   -1    0    0    0  501 -0.00000000000E+00  0.00000000000E+00  0.92686596074E+03  0.92686596074E+03  0.25500000000E-02 0.  1.
          2   -1    0    0  501    0  0.00000000000E+00 -0.00000000000E+00 -0.21198384619E+04  0.21198384619E+04  0.25500000000E-02 0. -1.
    8880022    1    1    2    0    0 -0.10319196036E+04  0.49692086477E+03 -0.14588327794E+04  0.18610140100E+04  0.15294330000E+03 0.  0.
    8880022    1    1    2    0    0  0.10319196036E+04 -0.49692086477E+03  0.26586027820E+03  0.11856904127E+04  0.15294330000E+03 0.  0.
<mgrwt>
<rscale>  0 0.11554999E+04</rscale>
<asrwt>0</asrwt>
<pdfrwt beam="1">  1        2 0.32612899E+00 0.11554999E+04</pdfrwt>
<pdfrwt beam="2">  1       -2 0.14259476E+00 0.11554999E+04</pdfrwt>
<totfact> 0.19213960E+00</totfact>
</mgrwt>
</event>
<event>
 4    1  0.1033139E-008  0.1388887E+04  0.7818608E-02  0.8961902E-01
          2   -1    0    0  501    0  0.00000000000E+00  0.00000000000E+00  0.13889841920E+04  0.13889841920E+04  0.25500000000E-02 0. -1.
         -2   -1    0    0    0  501 -0.00000000000E+00 -0.00000000000E+00 -0.22545518166E+04  0.22545518166E+04  0.25500000000E-02 0.  1.
    8880022    1    1    2    0    0  0.13313839090E+04  0.36473560242E+03 -0.15617014787E+04  0.20899565389E+04  0.15294330000E+03 0.  0.
    8880022    1    1    2    0    0 -0.13313839090E+04 -0.36473560242E+03  0.69613385410E+03  0.15535794697E+04  0.15294330000E+03 0.  0.
<mgrwt>
<rscale>  0 0.13888869E+04</rscale>
<asrwt>0</asrwt>
<pdfrwt beam="1">  1        2 0.21368988E+00 0.13888869E+04</pdfrwt>
<pdfrwt beam="2">  1       -2 0.34685412E+00 0.13888869E+04</pdfrwt>
<totfact> 0.22854093E-01</totfact>
</mgrwt>
</event>
<event>
 4    1  0.1033139E-008  0.4501974E+03  0.7818608E-02  0.1027663E+00
         -2   -1    0    0    0  501 -0.00000000000E+00  0.00000000000E+00  0.14021598139E+03  0.14021598141E+03  0.25500000000E-02 0.  1.
          2   -1    0    0  501    0  0.00000000000E+00 -0.00000000000E+00 -0.26130103803E+04  0.26130103803E+04  0.25500000000E-02 0. -1.
    8880022    1    1    2    0    0  0.25291717459E+03 -0.33958642049E+03 -0.31620675566E+03  0.55014943381E+03  0.15294330000E+03 0.  0.
    8880022    1    1    2    0    0 -0.25291717459E+03  0.33958642049E+03 -0.21565876433E+04  0.22030769279E+04  0.15294330000E+03 0.  0.
<mgrwt>
<rscale>  0 0.45019739E+03</rscale>
<asrwt>0</asrwt>
<pdfrwt beam="1">  1        2 0.40200156E+00 0.45019739E+03</pdfrwt>
<pdfrwt beam="2">  1       -2 0.21571691E-01 0.45019739E+03</pdfrwt>
<totfact> 0.61295653E+01</totfact>
</mgrwt>
</event>
<event>
 4    1  0.1033139E-008  0.7464824E+03  0.7818608E-02  0.9640885E-01
         -2   -1    0    0    0  501 -0.00000000000E+00  0.00000000000E+00  0.10417277363E+04  0.10417277363E+04  0.25500000000E-02 0.  1.
          2   -1    0    0  501    0  0.00000000000E+00 -0.00000000000E+00 -0.99485662070E+03  0.99485662070E+03  0.25500000000E-02 0. -1.
    8880022    1    1    2    0    0 -0.69033539866E+03 -0.23933539510E+03  0.71581378238E+03  0.10342269664E+04  0.15294330000E+03 0.  0.
    8880022    1    1    2    0    0  0.69033539866E+03  0.23933539510E+03 -0.66894266678E+03  0.10023573906E+04  0.15294330000E+03 0.  0.
<mgrwt>
<rscale>  0 0.74648245E+03</rscale>
<asrwt>0</asrwt>
<pdfrwt beam="1">  1        2 0.15305486E+00 0.74648245E+03</pdfrwt>
<pdfrwt beam="2">  1       -2 0.16026581E+00 0.74648245E+03</pdfrwt>
<totfact> 0.64897271E+00</totfact>
</mgrwt>
</event>
<event>
 4    1  0.1033139E-008  0.7199626E+03  0.7818608E-02  0.9683690E-01
         -2   -1    0    0    0  501 -0.00000000000E+00  0.00000000000E+00  0.28899073753E+03  0.28899073754E+03  0.25500000000E-02 0.  1.
          2   -1    0    0  501    0  0.00000000000E+00 -0.00000000000E+00 -0.18633653656E+04  0.18633653656E+04  0.25500000000E-02 0. -1.
    8880022    1    1    2    0    0  0.70352939333E+03  0.97702623430E+00 -0.99535876178E+03  0.12284483219E+04  0.15294330000E+03 0.  0.
    8880022    1    1    2    0    0 -0.70352939333E+03 -0.97702623430E+00 -0.57901586629E+03  0.92390778127E+03  0.15294330000E+03 0.  0.
<mgrwt>
<rscale>  0 0.71996265E+03</rscale>
<asrwt>0</asrwt>
<pdfrwt beam="1">  1        2 0.28667159E+00 0.71996265E+03</pdfrwt>
<pdfrwt beam="2">  1       -2 0.44460115E-01 0.71996265E+03</pdfrwt>
<totfact> 0.39417497E+01</totfact>
</mgrwt>
</event>
<event>
 4    1  0.1033139E-008  0.1578909E+04  0.7818608E-02  0.8833611E-01
          2   -1    0    0  501    0  0.00000000000E+00  0.00000000000E+00  0.37852852566E+04  0.37852852566E+04  0.25500000000E-02 0. -1.
         -2   -1    0    0    0  501 -0.00000000000E+00 -0.00000000000E+00 -0.76973988900E+03  0.76973988901E+03  0.25500000000E-02 0.  1.
    8880022    1    1    2    0    0 -0.37393090535E+03  0.15263476506E+04  0.23732231481E+04  0.28504633371E+04  0.15294330000E+03 0.  0.
    8880022    1    1    2    0    0  0.37393090535E+03 -0.15263476506E+04  0.64232221946E+03  0.17045618085E+04  0.15294330000E+03 0.  0.
<mgrwt>
<rscale>  0 0.15789088E+04</rscale>
<asrwt>0</asrwt>
<pdfrwt beam="1">  1        2 0.58235158E+00 0.15789088E+04</pdfrwt>
<pdfrwt beam="2">  1       -2 0.11842152E+00 0.15789088E+04</pdfrwt>
<totfact> 0.26358478E-01</totfact>
</mgrwt>
</event>
<event>
 4    1  0.1033139E-008  0.3205325E+03  0.7818608E-02  0.1075404E+00
         -2   -1    0    0    0  501 -0.00000000000E+00  0.00000000000E+00  0.22463984089E+03  0.22463984090E+03  0.25500000000E-02 0.  1.
          2   -1    0    0  501    0  0.00000000000E+00 -0.00000000000E+00 -0.23693908903E+04  0.23693908903E+04  0.25500000000E-02 0. -1.
    8880022    1    1    2    0    0  0.26918391052E+03  0.83002689287E+02  0.92754295033E+02  0.33368313768E+03  0.15294330000E+03 0.  0.
    8880022    1    1    2    0    0 -0.26918391052E+03 -0.83002689287E+02 -0.22375053445E+04  0.22603475935E+04  0.15294330000E+03 0.  0.
<mgrwt>
<rscale>  0 0.32053249E+03</rscale>
<asrwt>0</asrwt>
<pdfrwt beam="1">  1        2 0.36452166E+00 0.32053249E+03</pdfrwt>
<pdfrwt beam="2">  1       -2 0.34559977E-01 0.32053249E+03</pdfrwt>
<totfact> 0.36941637E+01</totfact>
</mgrwt>
</event>
<event>
 4    1  0.1033139E-008  0.8244814E+03  0.7818608E-02  0.9525242E-01
          2   -1    0    0  501    0  0.00000000000E+00  0.00000000000E+00  0.29096278384E+04  0.29096278384E+04  0.25500000000E-02 0. -1.
         -2   -1    0    0    0  501 -0.00000000000E+00 -0.00000000000E+00 -0.84800539790E+03  0.84800539791E+03  0.25500000000E-02 0.  1.
    8880022    1    1    2    0    0  0.32916285476E+03 -0.74029028816E+03  0.26300113602E+04  0.27562164834E+04  0.15294330000E+03 0.  0.
    8880022    1    1    2    0    0 -0.32916285476E+03  0.74029028816E+03 -0.56838891976E+03  0.10014167528E+04  0.15294330000E+03 0.  0.
<mgrwt>
<rscale>  0 0.82448138E+03</rscale>
<asrwt>0</asrwt>
<pdfrwt beam="1">  1        2 0.44763504E+00 0.82448138E+03</pdfrwt>
<pdfrwt beam="2">  1       -2 0.13046237E+00 0.82448138E+03</pdfrwt>
<totfact> 0.89433955E-01</totfact>
</mgrwt>
</event>
<event>
 4    1  0.1033139E-008  0.6359346E+03  0.7818608E-02  0.9833536E-01
          2   -1    0    0  501    0  0.00000000000E+00  0.00000000000E+00  0.11423314233E+04  0.11423314233E+04  0.25500000000E-02 0. -1.
         -2   -1    0    0    0  501 -0.00000000000E+00 -0.00000000000E+00 -0.37709100976E+03  0.37709100977E+03  0.25500000000E-02 0.  1.
    8880022    1    1    2    0    0 -0.55728403741E+03  0.26543482920E+03  0.57051753444E+03  0.85434364106E+03  0.15294330000E+03 0.  0.
    8880022    1    1    2    0    0  0.55728403741E+03 -0.26543482920E+03  0.19472287906E+03  0.66507879198E+03  0.15294330000E+03 0.  0.
<mgrwt>
<rscale>  0 0.63593459E+03</rscale>
<asrwt>0</asrwt>
<pdfrwt beam="1">  1        2 0.17574330E+00 0.63593459E+03</pdfrwt>
<pdfrwt beam="2">  1       -2 0.58014001E-01 0.63593459E+03</pdfrwt>
<totfact> 0.58656413E+01</totfact>
</mgrwt>
</event>
<event>
 4    1  0.2053281E-008  0.1360830E+04  0.7818608E-02  0.8982670E-01
         -2   -1    0    0    0  501 -0.00000000000E+00  0.00000000000E+00  0.19442887706E+04  0.19442887706E+04  0.25500000000E-02 0.  1.
          2   -1    0    0  501    0  0.00000000000E+00 -0.00000000000E+00 -0.24023915291E+04  0.24023915291E+04  0.25500000000E-02 0. -1.
    8880022    1    1    2    0    0  0.38206407302E+03 -0.12971099990E+04 -0.19174672548E+04  0.23512846769E+04  0.15294330000E+03 0.  0.
    8880022    1    1    2    0    0 -0.38206407302E+03  0.12971099990E+04  0.14593644964E+04  0.19953956229E+04  0.15294330000E+03 0.  0.
<mgrwt>
<rscale>  0 0.13608302E+04</rscale>
<asrwt>0</asrwt>
<pdfrwt beam="1">  1        2 0.36959870E+00 0.13608302E+04</pdfrwt>
<pdfrwt beam="2">  1       -2 0.29912135E+00 0.13608302E+04</pdfrwt>
<totfact> 0.12193345E-01</totfact>
</mgrwt>
</event>
<event>
 4    1  0.1033139E-008  0.1144328E+04  0.7818608E-02  0.9163032E-01
          2   -1    0    0  501    0  0.00000000000E+00  0.00000000000E+00  0.89082185917E+03  0.89082185918E+03  0.25500000000E-02 0. -1.
         -2   -1    0    0    0  501 -0.00000000000E+00 -0.00000000000E+00 -0.26089860971E+04  0.26089860971E+04  0.25500000000E-02 0.  1.
    8880022    1    1    2    0    0 -0.69086777043E+03  0.89933088067E+03 -0.20153069509E+04  0.23175305971E+04  0.15294330000E+03 0.  0.
    8880022    1    1    2    0    0  0.69086777043E+03 -0.89933088067E+03  0.29714271297E+03  0.11822773592E+04  0.15294330000E+03 0.  0.
<mgrwt>
<rscale>  0 0.11443277E+04</rscale>
<asrwt>0</asrwt>
<pdfrwt beam="1">  1        2 0.13704952E+00 0.11443277E+04</pdfrwt>
<pdfrwt beam="2">  1       -2 0.40138247E+00 0.11443277E+04</pdfrwt>
<totfact> 0.21514020E-01</totfact>
</mgrwt>
</event>
<event>
 4    1  0.1033139E-008  0.9992725E+03  0.7818608E-02  0.9309343E-01
         -2   -1    0    0    0  501 -0.00000000000E+00  0.00000000000E+00  0.61523959187E+03  0.61523959187E+03  0.25500000000E-02 0.  1.
          2   -1    0    0  501    0  0.00000000000E+00 -0.00000000000E+00 -0.25040288994E+04  0.25040288994E+04  0.25500000000E-02 0. -1.
    8880022    1    1    2    0    0 -0.97905125537E+03 -0.12888941242E+03 -0.18695049394E+04  0.21198099473E+04  0.15294330000E+03 0.  0.
    8880022    1    1    2    0    0  0.97905125537E+03  0.12888941242E+03 -0.19284368160E+02  0.99945854398E+03  0.15294330000E+03 0.  0.
<mgrwt>
<rscale>  0 0.99927248E+03</rscale>
<asrwt>0</asrwt>
<pdfrwt beam="1">  1        2 0.38523521E+00 0.99927248E+03</pdfrwt>
<pdfrwt beam="2">  1       -2 0.94652246E-01 0.99927248E+03</pdfrwt>
<totfact> 0.32848277E+00</totfact>
</mgrwt>
</event>
<event>
 4    1  0.1033139E-008  0.4650055E+03  0.7818608E-02  0.1023339E+00
         -2   -1    0    0    0  501 -0.00000000000E+00  0.00000000000E+00  0.67135158269E+03  0.67135158269E+03  0.25500000000E-02 0.  1.
          2   -1    0    0  501    0  0.00000000000E+00 -0.00000000000E+00 -0.14193051404E+04  0.14193051404E+04  0.25500000000E-02 0. -1.
    8880022    1    1    2    0    0  0.35936045432E+03 -0.25238572080E+03 -0.12930759197E+04  0.13741453618E+04  0.15294330000E+03 0. -1.
    8880022    1    1    2    0    0 -0.35936045432E+03  0.25238572080E+03  0.54512236204E+03  0.71651136125E+03  0.15294330000E+03 0.  0.
<mgrwt>
<rscale>  0 0.46500553E+03</rscale>
<asrwt>0</asrwt>
<pdfrwt beam="1">  1        2 0.21835464E+00 0.46500553E+03</pdfrwt>
<pdfrwt beam="2">  1       -2 0.10328486E+00 0.46500553E+03</pdfrwt>
<totfact> 0.11573787E+01</totfact>
</mgrwt>
</event>
<event>
 4    1  0.1033139E-008  0.4862196E+03  0.7818608E-02  0.1017440E+00
         -2   -1    0    0    0  501 -0.00000000000E+00  0.00000000000E+00  0.25950365018E+03  0.25950365019E+03  0.25500000000E-02 0.  1.
          2   -1    0    0  501    0  0.00000000000E+00 -0.00000000000E+00 -0.14605389675E+04  0.14605389675E+04  0.25500000000E-02 0. -1.
    8880022    1    1    2    0    0  0.45137422753E+03 -0.96328137112E+02 -0.72984939669E+02  0.49166681575E+03  0.15294330000E+03 0.  0.
    8880022    1    1    2    0    0 -0.45137422753E+03  0.96328137112E+02 -0.11280503777E+04  0.12283758020E+04  0.15294330000E+03 0.  0.
<mgrwt>
<rscale>  0 0.48621956E+03</rscale>
<asrwt>0</asrwt>
<pdfrwt beam="1">  1        2 0.22469830E+00 0.48621956E+03</pdfrwt>
<pdfrwt beam="2">  1       -2 0.39923639E-01 0.48621956E+03</pdfrwt>
<totfact> 0.83337574E+01</totfact>
</mgrwt>
</event>
<event>
 4    1  0.1033139E-008  0.1775708E+04  0.7818608E-02  0.8719325E-01
         -2   -1    0    0    0  501 -0.00000000000E+00  0.00000000000E+00  0.12335732151E+04  0.12335732151E+04  0.25500000000E-02 0.  1.
          2   -1    0    0  501    0  0.00000000000E+00 -0.00000000000E+00 -0.27730837163E+04  0.27730837163E+04  0.25500000000E-02 0. -1.
    8880022    1    1    2    0    0 -0.15440284549E+04  0.86355344160E+03 -0.20937690592E+03  0.17880097197E+04  0.15294330000E+03 0.  0.
    8880022    1    1    2    0    0  0.15440284549E+04 -0.86355344160E+03 -0.13301335952E+04  0.22186472117E+04  0.15294330000E+03 0.  0.
<mgrwt>
<rscale>  0 0.17757083E+04</rscale>
<asrwt>0</asrwt>
<pdfrwt beam="1">  1        2 0.42662826E+00 0.17757083E+04</pdfrwt>
<pdfrwt beam="2">  1       -2 0.18978050E+00 0.17757083E+04</pdfrwt>
<totfact> 0.34146967E-01</totfact>
</mgrwt>
</event>
<event>
 4    1  0.1033139E-008  0.9182284E+03  0.7818608E-02  0.9403078E-01
          2   -1    0    0  501    0  0.00000000000E+00  0.00000000000E+00  0.19844369276E+04  0.19844369276E+04  0.25500000000E-02 0. -1.
         -2   -1    0    0    0  501 -0.00000000000E+00 -0.00000000000E+00 -0.57798989871E+03  0.57798989872E+03  0.25500000000E-02 0.  1.
    8880022    1    1    2    0    0 -0.90402366841E+03 -0.49930229063E+02  0.13626492746E+04  0.16431544417E+04  0.15294330000E+03 0.  0.
    8880022    1    1    2    0    0  0.90402366841E+03  0.49930229063E+02  0.43797754329E+02  0.91927238462E+03  0.15294330000E+03 0.  0.
<mgrwt>
<rscale>  0 0.91822844E+03</rscale>
<asrwt>0</asrwt>
<pdfrwt beam="1">  1        2 0.30529798E+00 0.91822844E+03</pdfrwt>
<pdfrwt beam="2">  1       -2 0.88921525E-01 0.91822844E+03</pdfrwt>
<totfact> 0.74887103E+00</totfact>
</mgrwt>
</event>
<event>
 4    1  0.1033139E-008  0.1462564E+04  0.7818608E-02  0.8909736E-01
         -2   -1    0    0    0  501 -0.00000000000E+00  0.00000000000E+00  0.18174224452E+04  0.18174224452E+04  0.25500000000E-02 0.  1.
          2   -1    0    0  501    0  0.00000000000E+00 -0.00000000000E+00 -0.14619937965E+04  0.14619937965E+04  0.25500000000E-02 0. -1.
    8880022    1    1    2    0    0  0.46236724535E+03 -0.13791004350E+04  0.90167832603E+03  0.17181725572E+04  0.15294330000E+03 0.  0.
    8880022    1    1    2    0    0 -0.46236724535E+03  0.13791004350E+04 -0.54624967731E+03  0.15612436845E+04  0.15294330000E+03 0.  0.
<mgrwt>
<rscale>  0 0.14625639E+04</rscale>
<asrwt>0</asrwt>
<pdfrwt beam="1">  1        2 0.22492212E+00 0.14625639E+04</pdfrwt>
<pdfrwt beam="2">  1       -2 0.27960345E+00 0.14625639E+04</pdfrwt>
<totfact> 0.53358033E-01</totfact>
</mgrwt>
</event>
<event>
 4    1  0.1033139E-008  0.2306723E+04  0.7818608E-02  0.8475275E-01
          2   -1    0    0  501    0  0.00000000000E+00  0.00000000000E+00  0.33230536707E+04  0.33230536707E+04  0.25500000000E-02 0. -1.
         -2   -1    0    0    0  501 -0.00000000000E+00 -0.00000000000E+00 -0.17260155424E+04  0.17260155424E+04  0.25500000000E-02 0.  1.
    8880022    1    1    2    0    0  0.17279201832E+04  0.15204844810E+04  0.14773182320E+04  0.27392411409E+04  0.15294330000E+03 0.  0.
    8880022    1    1    2    0    0 -0.17279201832E+04 -0.15204844810E+04  0.11971989629E+03  0.23098280722E+04  0.15294330000E+03 0.  0.
<mgrwt>
<rscale>  0 0.23067234E+04</rscale>
<asrwt>0</asrwt>
<pdfrwt beam="1">  1        2 0.51123903E+00 0.23067234E+04</pdfrwt>
<pdfrwt beam="2">  1       -2 0.26554085E+00 0.23067234E+04</pdfrwt>
<totfact> 0.47711446E-02</totfact>
</mgrwt>
</event>
<event>
 4    1  0.1033139E-008  0.8599247E+03  0.7818608E-02  0.9477112E-01
          2   -1    0    0  501    0  0.00000000000E+00  0.00000000000E+00  0.19990220342E+04  0.19990220342E+04  0.25500000000E-02 0. -1.
         -2   -1    0    0    0  501 -0.00000000000E+00 -0.00000000000E+00 -0.77247656585E+03  0.77247656585E+03  0.25500000000E-02 0.  1.
    8880022    1    1    2    0    0 -0.73246223118E+03  0.42376629622E+03 -0.38709014747E+03  0.94303193435E+03  0.15294330000E+03 0.  0.
    8880022    1    1    2    0    0  0.73246223118E+03 -0.42376629622E+03  0.16136356158E+04  0.18284666657E+04  0.15294330000E+03 0.  0.
<mgrwt>
<rscale>  0 0.85992468E+03</rscale>
<asrwt>0</asrwt>
<pdfrwt beam="1">  1        2 0.30754185E+00 0.85992468E+03</pdfrwt>
<pdfrwt beam="2">  1       -2 0.11884255E+00 0.85992468E+03</pdfrwt>
<totfact> 0.37056388E+00</totfact>
</mgrwt>
</event>
<event>
 4    1  0.1033139E-008  0.9325724E+03  0.7818608E-02  0.9385756E-01
          2   -1    0    0  501    0  0.00000000000E+00  0.00000000000E+00  0.37935251938E+04  0.37935251938E+04  0.25500000000E-02 0. -1.
         -2   -1    0    0    0  501 -0.00000000000E+00 -0.00000000000E+00 -0.50998516885E+03  0.50998516886E+03  0.25500000000E-02 0.  1.
    8880022    1    1    2    0    0 -0.35530411730E+02 -0.91925908319E+03  0.32382271399E+04  0.33698377312E+04  0.15294330000E+03 0.  0.
    8880022    1    1    2    0    0  0.35530411730E+02  0.91925908319E+03  0.45312885081E+02  0.93367263146E+03  0.15294330000E+03 0.  0.
<mgrwt>
<rscale>  0 0.93257242E+03</rscale>
<asrwt>0</asrwt>
<pdfrwt beam="1">  1        2 0.58361926E+00 0.93257242E+03</pdfrwt>
<pdfrwt beam="2">  1       -2 0.78459256E-01 0.93257242E+03</pdfrwt>
<totfact> 0.75943089E-01</totfact>
</mgrwt>
</event>
<event>
 4    1  0.1033139E-008  0.7715061E+03  0.7818608E-02  0.9602202E-01
         -2   -1    0    0    0  501 -0.00000000000E+00  0.00000000000E+00  0.38445642485E+03  0.38445642486E+03  0.25500000000E-02 0.  1.
          2   -1    0    0  501    0  0.00000000000E+00 -0.00000000000E+00 -0.24814883535E+04  0.24814883535E+04  0.25500000000E-02 0. -1.
    8880022    1    1    2    0    0 -0.69648008732E+03  0.29452594975E+03 -0.19273074378E+04  0.20759902842E+04  0.15294330000E+03 0.  0.
    8880022    1    1    2    0    0  0.69648008732E+03 -0.29452594975E+03 -0.16972449085E+03  0.78995449420E+03  0.15294330000E+03 0.  0.
<mgrwt>
<rscale>  0 0.77150612E+03</rscale>
<asrwt>0</asrwt>
<pdfrwt beam="1">  1        2 0.38176743E+00 0.77150612E+03</pdfrwt>
<pdfrwt beam="2">  1       -2 0.59147144E-01 0.77150612E+03</pdfrwt>
<totfact> 0.99479941E+00</totfact>
</mgrwt>
</event>
<event>
 4    1  0.1033139E-008  0.8917304E+03  0.7818608E-02  0.9435978E-01
          2   -1    0    0  501    0  0.00000000000E+00  0.00000000000E+00  0.15818216853E+04  0.15818216853E+04  0.25500000000E-02 0. -1.
         -2   -1    0    0    0  501 -0.00000000000E+00 -0.00000000000E+00 -0.59821617103E+03  0.59821617103E+03  0.25500000000E-02 0.  1.
    8880022    1    1    2    0    0  0.65378744866E+03 -0.58681630125E+03  0.56249203343E+02  0.89350267225E+03  0.15294330000E+03 0.  0.
    8880022    1    1    2    0    0 -0.65378744866E+03  0.58681630125E+03  0.92735631092E+03  0.12865351841E+04  0.15294330000E+03 0. -1.
<mgrwt>
<rscale>  0 0.89173037E+03</rscale>
<asrwt>0</asrwt>
<pdfrwt beam="1">  1        2 0.24335717E+00 0.89173037E+03</pdfrwt>
<pdfrwt beam="2">  1       -2 0.92033260E-01 0.89173037E+03</pdfrwt>
<totfact> 0.11551481E+01</totfact>
</mgrwt>
</event>
<event>
 4    1  0.1033139E-008  0.4199732E+03  0.7818608E-02  0.1037075E+00
          2   -1    0    0  501    0  0.00000000000E+00  0.00000000000E+00  0.76767946001E+03  0.76767946001E+03  0.25500000000E-02 0. -1.
         -2   -1    0    0    0  501 -0.00000000000E+00 -0.00000000000E+00 -0.45627379151E+03  0.45627379151E+03  0.25500000000E-02 0.  1.
    8880022    1    1    2    0    0  0.23830055273E+03 -0.31015911091E+03 -0.27549352206E+03  0.50226901281E+03  0.15294330000E+03 0.  0.
    8880022    1    1    2    0    0 -0.23830055273E+03  0.31015911091E+03  0.58689919056E+03  0.72168423872E+03  0.15294330000E+03 0.  0.
<mgrwt>
<rscale>  0 0.41997319E+03</rscale>
<asrwt>0</asrwt>
<pdfrwt beam="1">  1        2 0.11810453E+00 0.41997319E+03</pdfrwt>
<pdfrwt beam="2">  1       -2 0.70195969E-01 0.41997319E+03</pdfrwt>
<totfact> 0.70225915E+01</totfact>
</mgrwt>
</event>
<event>
 4    1  0.1033139E-008  0.8467966E+03  0.7818608E-02  0.9494647E-01
          2   -1    0    0  501    0  0.00000000000E+00  0.00000000000E+00  0.19284605857E+04  0.19284605858E+04  0.25500000000E-02 0. -1.
         -2   -1    0    0    0  501 -0.00000000000E+00 -0.00000000000E+00 -0.87952403486E+03  0.87952403487E+03  0.25500000000E-02 0.  1.
    8880022    1    1    2    0    0 -0.56024583283E+03 -0.61627701751E+03 -0.54222808865E+03  0.10055226047E+04  0.15294330000E+03 0.  0.
    8880022    1    1    2    0    0  0.56024583283E+03  0.61627701751E+03  0.15911646395E+04  0.18024620159E+04  0.15294330000E+03 0.  0.
<mgrwt>
<rscale>  0 0.84679656E+03</rscale>
<asrwt>0</asrwt>
<pdfrwt beam="1">  1        2 0.29668624E+00 0.84679656E+03</pdfrwt>
<pdfrwt beam="2">  1       -2 0.13531139E+00 0.84679656E+03</pdfrwt>
<totfact> 0.29261609E+00</totfact>
</mgrwt>
</event>
<event>
 4    1  0.1033139E-008  0.1432324E+04  0.7818608E-02  0.8930748E-01
          2   -1    0    0  501    0  0.00000000000E+00  0.00000000000E+00  0.24160483843E+04  0.24160483843E+04  0.25500000000E-02 0. -1.
         -2   -1    0    0    0  501 -0.00000000000E+00 -0.00000000000E+00 -0.21352840406E+04  0.21352840406E+04  0.25500000000E-02 0.  1.
    8880022    1    1    2    0    0  0.13218369468E+04  0.53000668768E+03 -0.16257628223E+04  0.21667155813E+04  0.15294330000E+03 0.  0.
    8880022    1    1    2    0    0 -0.13218369468E+04 -0.53000668768E+03  0.19065271660E+04  0.23846168435E+04  0.15294330000E+03 0.  0.
<mgrwt>
<rscale>  0 0.14323239E+04</rscale>
<asrwt>0</asrwt>
<pdfrwt beam="1">  1        2 0.37169975E+00 0.14323239E+04</pdfrwt>
<pdfrwt beam="2">  1       -2 0.32850524E+00 0.14323239E+04</pdfrwt>
<totfact> 0.78229296E-02</totfact>
</mgrwt>
</event>
<event>
 4    1  0.1033139E-008  0.1017474E+04  0.7818608E-02  0.9289584E-01
         -2   -1    0    0    0  501 -0.00000000000E+00  0.00000000000E+00  0.89543673883E+03  0.89543673884E+03  0.25500000000E-02 0.  1.
          2   -1    0    0  501    0  0.00000000000E+00 -0.00000000000E+00 -0.13868769922E+04  0.13868769922E+04  0.25500000000E-02 0. -1.
    8880022    1    1    2    0    0  0.87497967118E+03 -0.49625900966E+03  0.21973834730E+03  0.10409318056E+04  0.15294330000E+03 0.  0.
    8880022    1    1    2    0    0 -0.87497967118E+03  0.49625900966E+03 -0.71117860062E+03  0.12413819254E+04  0.15294330000E+03 0.  0.
<mgrwt>
<rscale>  0 0.10174744E+04</rscale>
<asrwt>0</asrwt>
<pdfrwt beam="1">  1        2 0.21336569E+00 0.10174744E+04</pdfrwt>
<pdfrwt beam="2">  1       -2 0.13775950E+00 0.10174744E+04</pdfrwt>
<totfact> 0.54622688E+00</totfact>
</mgrwt>
</event>
<event>
 4    1  0.1033139E-008  0.8236129E+03  0.7818608E-02  0.9526454E-01
         -2   -1    0    0    0  501 -0.00000000000E+00  0.00000000000E+00  0.57068827185E+03  0.57068827186E+03  0.25500000000E-02 0.  1.
          2   -1    0    0  501    0  0.00000000000E+00 -0.00000000000E+00 -0.23373898922E+04  0.23373898922E+04  0.25500000000E-02 0. -1.
    8880022    1    1    2    0    0  0.80796659658E+03 -0.46222145685E+02  0.13600267693E+03  0.83476636796E+03  0.15294330000E+03 0.  0.
    8880022    1    1    2    0    0 -0.80796659658E+03  0.46222145685E+02 -0.19027042973E+04  0.20733117961E+04  0.15294330000E+03 0.  0.
<mgrwt>
<rscale>  0 0.82361287E+03</rscale>
<asrwt>0</asrwt>
<pdfrwt beam="1">  1        2 0.35959844E+00 0.82361287E+03</pdfrwt>
<pdfrwt beam="2">  1       -2 0.87798197E-01 0.82361287E+03</pdfrwt>
<totfact> 0.49861944E+00</totfact>
</mgrwt>
</event>
<event>
 4    1  0.1033139E-008  0.1045545E+04  0.7818608E-02  0.9259956E-01
          2   -1    0    0  501    0  0.00000000000E+00  0.00000000000E+00  0.17843333075E+04  0.17843333075E+04  0.25500000000E-02 0. -1.
         -2   -1    0    0    0  501 -0.00000000000E+00 -0.00000000000E+00 -0.11792319260E+04  0.11792319260E+04  0.25500000000E-02 0.  1.
    8880022    1    1    2    0    0  0.71102690832E+03  0.75114134513E+03  0.13296628345E+04  0.16914985933E+04  0.15294330000E+03 0.  0.
    8880022    1    1    2    0    0 -0.71102690832E+03 -0.75114134513E+03 -0.72456145299E+03  0.12720666401E+04  0.15294330000E+03 0.  0.
<mgrwt>
<rscale>  0 0.10455449E+04</rscale>
<asrwt>0</asrwt>
<pdfrwt beam="1">  1        2 0.27451282E+00 0.10455449E+04</pdfrwt>
<pdfrwt beam="2">  1       -2 0.18142030E+00 0.10455449E+04</pdfrwt>
<totfact> 0.15437123E+00</totfact>
</mgrwt>
</event>
<event>
 4    1  0.1033139E-008  0.7071418E+03  0.7818608E-02  0.9705096E-01
         -2   -1    0    0    0  501 -0.00000000000E+00  0.00000000000E+00  0.36469574791E+03  0.36469574792E+03  0.25500000000E-02 0.  1.
          2   -1    0    0  501    0  0.00000000000E+00 -0.00000000000E+00 -0.20534245686E+04  0.20534245686E+04  0.25500000000E-02 0. -1.
    8880022    1    1    2    0    0  0.58363728493E+03 -0.36881614243E+03 -0.15412970839E+04  0.16957730335E+04  0.15294330000E+03 0.  0.
    8880022    1    1    2    0    0 -0.58363728493E+03  0.36881614243E+03 -0.14743173679E+03  0.72234728303E+03  0.15294330000E+03 0.  0.
<mgrwt>
<rscale>  0 0.70714177E+03</rscale>
<asrwt>0</asrwt>
<pdfrwt beam="1">  1        2 0.31591147E+00 0.70714177E+03</pdfrwt>
<pdfrwt beam="2">  1       -2 0.56107039E-01 0.70714177E+03</pdfrwt>
<totfact> 0.19382878E+01</totfact>
</mgrwt>
</event>
<event>
 4    1  0.1033139E-008  0.1499823E+04  0.7818608E-02  0.8884571E-01
         -2   -1    0    0    0  501 -0.00000000000E+00  0.00000000000E+00  0.14682784239E+04  0.14682784239E+04  0.25500000000E-02 0.  1.
          2   -1    0    0  501    0  0.00000000000E+00 -0.00000000000E+00 -0.25901765888E+04  0.25901765888E+04  0.25500000000E-02 0. -1.
    8880022    1    1    2    0    0 -0.12272636103E+04  0.84846932355E+03 -0.18579372254E+04  0.23877601531E+04  0.15294330000E+03 0.  0.
    8880022    1    1    2    0    0  0.12272636103E+04 -0.84846932355E+03  0.73603906057E+03  0.16706948596E+04  0.15294330000E+03 0.  0.
<mgrwt>
<rscale>  0 0.14998226E+04</rscale>
<asrwt>0</asrwt>
<pdfrwt beam="1">  1        2 0.39848871E+00 0.14998226E+04</pdfrwt>
<pdfrwt beam="2">  1       -2 0.22588899E+00 0.14998226E+04</pdfrwt>
<totfact> 0.26264828E-01</totfact>
</mgrwt>
</event>
<event>
 4    1  0.1033139E-008  0.7646886E+03  0.7818608E-02  0.9612584E-01
         -2   -1    0    0    0  501 -0.00000000000E+00  0.00000000000E+00  0.68530268511E+03  0.68530268512E+03  0.25500000000E-02 0.  1.
          2   -1    0    0  501    0  0.00000000000E+00 -0.00000000000E+00 -0.90841173184E+03  0.90841173184E+03  0.25500000000E-02 0. -1.
    8880022    1    1    2    0    0 -0.43485888974E+03 -0.61012681512E+03  0.84771085217E+02  0.76937297485E+03  0.15294330000E+03 0.  1.
    8880022    1    1    2    0    0  0.43485888974E+03  0.61012681512E+03 -0.30788013194E+03  0.82434144211E+03  0.15294330000E+03 0.  0.
<mgrwt>
<rscale>  0 0.76468859E+03</rscale>
<asrwt>0</asrwt>
<pdfrwt beam="1">  1        2 0.13975565E+00 0.76468859E+03</pdfrwt>
<pdfrwt beam="2">  1       -2 0.10543118E+00 0.76468859E+03</pdfrwt>
<totfact> 0.21360100E+01</totfact>
</mgrwt>
</event>
<event>
 4    1  0.1033139E-008  0.1561954E+04  0.7818608E-02  0.8844268E-01
         -2   -1    0    0    0  501 -0.00000000000E+00  0.00000000000E+00  0.13990232542E+04  0.13990232542E+04  0.25500000000E-02 0.  1.
          2   -1    0    0  501    0  0.00000000000E+00 -0.00000000000E+00 -0.25673970637E+04  0.25673970637E+04  0.25500000000E-02 0. -1.
    8880022    1    1    2    0    0  0.87740764144E+03 -0.12831462272E+04 -0.17074045354E+04  0.23140722353E+04  0.15294330000E+03 0.  0.
    8880022    1    1    2    0    0 -0.87740764144E+03  0.12831462272E+04  0.53903072597E+03  0.16523480826E+04  0.15294330000E+03 0.  0.
<mgrwt>
<rscale>  0 0.15619539E+04</rscale>
<asrwt>0</asrwt>
<pdfrwt beam="1">  1        2 0.39498416E+00 0.15619539E+04</pdfrwt>
<pdfrwt beam="2">  1       -2 0.21523435E+00 0.15619539E+04</pdfrwt>
<totfact> 0.31427357E-01</totfact>
</mgrwt>
</event>
<event>
 4    1  0.1033139E-008  0.5555319E+03  0.7818608E-02  0.1000222E+00
         -2   -1    0    0    0  501 -0.00000000000E+00  0.00000000000E+00  0.90330123302E+03  0.90330123303E+03  0.25500000000E-02 0.  1.
          2   -1    0    0  501    0  0.00000000000E+00 -0.00000000000E+00 -0.18184851843E+04  0.18184851843E+04  0.25500000000E-02 0. -1.
    8880022    1    1    2    0    0  0.34670163480E+03 -0.40622904416E+03 -0.16839992424E+04  0.17732651131E+04  0.15294330000E+03 0.  0.
    8880022    1    1    2    0    0 -0.34670163480E+03  0.40622904416E+03  0.76881529107E+03  0.94852130429E+03  0.15294330000E+03 0.  1.
<mgrwt>
<rscale>  0 0.55553192E+03</rscale>
<asrwt>0</asrwt>
<pdfrwt beam="1">  1        2 0.27976695E+00 0.55553192E+03</pdfrwt>
<pdfrwt beam="2">  1       -2 0.13896942E+00 0.55553192E+03</pdfrwt>
<totfact> 0.33118816E+00</totfact>
</mgrwt>
</event>
<event>
 4    1  0.1033139E-008  0.1079859E+04  0.7818608E-02  0.9225048E-01
         -2   -1    0    0    0  501 -0.00000000000E+00  0.00000000000E+00  0.11835075477E+04  0.11835075477E+04  0.25500000000E-02 0.  1.
          2   -1    0    0  501    0  0.00000000000E+00 -0.00000000000E+00 -0.30474087688E+04  0.30474087688E+04  0.25500000000E-02 0. -1.
    8880022    1    1    2    0    0 -0.57248122660E+03 -0.90275596157E+03 -0.26721388330E+04  0.28820861674E+04  0.15294330000E+03 0.  0.
    8880022    1    1    2    0    0  0.57248122660E+03  0.90275596157E+03  0.80823761181E+03  0.13488301491E+04  0.15294330000E+03 0.  0.
<mgrwt>
<rscale>  0 0.10798587E+04</rscale>
<asrwt>0</asrwt>
<pdfrwt beam="1">  1        2 0.46883211E+00 0.10798587E+04</pdfrwt>
<pdfrwt beam="2">  1       -2 0.18207809E+00 0.10798587E+04</pdfrwt>
<totfact> 0.28615374E-01</totfact>
</mgrwt>
</event>
<event>
 4    1  0.1033139E-008  0.3184168E+03  0.7818608E-02  0.1076380E+00
          2   -1    0    0  501    0  0.00000000000E+00  0.00000000000E+00  0.11806265730E+04  0.11806265730E+04  0.25500000000E-02 0. -1.
         -2   -1    0    0    0  501 -0.00000000000E+00 -0.00000000000E+00 -0.14610877998E+03  0.14610878000E+03  0.25500000000E-02 0.  1.
    8880022    1    1    2    0    0 -0.47737206994E+02 -0.27517038427E+03  0.91339646466E+02  0.33125845701E+03  0.15294330000E+03 0.  0.
    8880022    1    1    2    0    0  0.47737206994E+02  0.27517038427E+03  0.94317814656E+03  0.99547689600E+03  0.15294330000E+03 0. -1.
<mgrwt>
<rscale>  0 0.31841676E+03</rscale>
<asrwt>0</asrwt>
<pdfrwt beam="1">  1        2 0.18163485E+00 0.31841676E+03</pdfrwt>
<pdfrwt beam="2">  1       -2 0.22478275E-01 0.31841676E+03</pdfrwt>
<totfact> 0.35199229E+02</totfact>
</mgrwt>
</event>
<event>
 4    1  0.1033139E-008  0.1267370E+04  0.7818608E-02  0.9055849E-01
         -2   -1    0    0    0  501 -0.00000000000E+00  0.00000000000E+00  0.23755158242E+04  0.23755158242E+04  0.25500000000E-02 0.  1.
          2   -1    0    0  501    0  0.00000000000E+00 -0.00000000000E+00 -0.13910259503E+04  0.13910259503E+04  0.25500000000E-02 0. -1.
    8880022    1    1    2    0    0  0.85702303370E+02 -0.12551855075E+04 -0.85782940984E+03  0.15303916141E+04  0.15294330000E+03 0.  0.
    8880022    1    1    2    0    0 -0.85702303370E+02  0.12551855075E+04  0.18423192837E+04  0.22361501603E+04  0.15294330000E+03 0.  0.
<mgrwt>
<rscale>  0 0.12673702E+04</rscale>
<asrwt>0</asrwt>
<pdfrwt beam="1">  1        2 0.21400399E+00 0.12673702E+04</pdfrwt>
<pdfrwt beam="2">  1       -2 0.36546397E+00 0.12673702E+04</pdfrwt>
<totfact> 0.17666788E-01</totfact>
</mgrwt>
</event>
<event>
 4    1  0.1033139E-008  0.1089497E+04  0.7818608E-02  0.9215490E-01
         -2   -1    0    0    0  501 -0.00000000000E+00  0.00000000000E+00  0.89780839669E+03  0.89780839669E+03  0.25500000000E-02 0.  1.
          2   -1    0    0  501    0  0.00000000000E+00 -0.00000000000E+00 -0.14983921776E+04  0.14983921776E+04  0.25500000000E-02 0. -1.
    8880022    1    1    2    0    0  0.10727749234E+04  0.11298538548E+03 -0.71123526476E+03  0.13010991463E+04  0.15294330000E+03 0.  0.
    8880022    1    1    2    0    0 -0.10727749234E+04 -0.11298538548E+03  0.11065148389E+03  0.10951014280E+04  0.15294330000E+03 0.  0.
<mgrwt>
<rscale>  0 0.10894969E+04</rscale>
<asrwt>0</asrwt>
<pdfrwt beam="1">  1        2 0.23052187E+00 0.10894969E+04</pdfrwt>
<pdfrwt beam="2">  1       -2 0.13812437E+00 0.10894969E+04</pdfrwt>
<totfact> 0.46537858E+00</totfact>
</mgrwt>
</event>
<event>
 4    1  0.1033139E-008  0.8535173E+03  0.7818608E-02  0.9485628E-01
          2   -1    0    0  501    0  0.00000000000E+00  0.00000000000E+00  0.16397074835E+04  0.16397074835E+04  0.25500000000E-02 0. -1.
         -2   -1    0    0    0  501 -0.00000000000E+00 -0.00000000000E+00 -0.78172120119E+03  0.78172120120E+03  0.25500000000E-02 0.  1.
    8880022    1    1    2    0    0  0.13128489586E+03  0.82937586441E+03  0.12244448704E+04  0.14925672320E+04  0.15294330000E+03 0. -1.
    8880022    1    1    2    0    0 -0.13128489586E+03 -0.82937586441E+03 -0.36645858817E+03  0.92886145264E+03  0.15294330000E+03 0.  0.
<mgrwt>
<rscale>  0 0.85351725E+03</rscale>
<asrwt>0</asrwt>
<pdfrwt beam="1">  1        2 0.25226269E+00 0.85351725E+03</pdfrwt>
<pdfrwt beam="2">  1       -2 0.12026480E+00 0.85351725E+03</pdfrwt>
<totfact> 0.56683431E+00</totfact>
</mgrwt>
</event>
<event>
 4    1  0.1033139E-008  0.5137355E+03  0.7818608E-02  0.1010255E+00
          2   -1    0    0  501    0  0.00000000000E+00  0.00000000000E+00  0.27501495470E+04  0.27501495470E+04  0.25500000000E-02 0. -1.
         -2   -1    0    0    0  501 -0.00000000000E+00 -0.00000000000E+00 -0.23256785781E+03  0.23256785783E+03  0.25500000000E-02 0.  1.
    8880022    1    1    2    0    0 -0.18640588168E+03 -0.45363567267E+03  0.11582388873E+03  0.52663013819E+03  0.15294330000E+03 0.  0.
    8880022    1    1    2    0    0  0.18640588168E+03  0.45363567267E+03  0.24017578004E+04  0.24560872666E+04  0.15294330000E+03 0.  0.
<mgrwt>
<rscale>  0 0.51373547E+03</rscale>
<asrwt>0</asrwt>
<pdfrwt beam="1">  1        2 0.42309990E+00 0.51373547E+03</pdfrwt>
<pdfrwt beam="2">  1       -2 0.35779673E-01 0.51373547E+03</pdfrwt>
<totfact> 0.20050301E+01</totfact>
</mgrwt>
</event>
<event>
 4    1  0.1033139E-008  0.7015823E+03  0.7818608E-02  0.9714530E-01
         -2   -1    0    0    0  501 -0.00000000000E+00  0.00000000000E+00  0.24743234725E+03  0.24743234727E+03  0.25500000000E-02 0.  1.
          2   -1    0    0  501    0  0.00000000000E+00 -0.00000000000E+00 -0.26553760269E+04  0.26553760269E+04  0.25500000000E-02 0. -1.
    8880022    1    1    2    0    0  0.64268721564E+03 -0.23617627874E+03 -0.19308916402E+04  0.20544002217E+04  0.15294330000E+03 0. -1.
    8880022    1    1    2    0    0 -0.64268721564E+03  0.23617627874E+03 -0.47705203943E+03  0.84840815244E+03  0.15294330000E+03 0.  0.
<mgrwt>
<rscale>  0 0.70158232E+03</rscale>
<asrwt>0</asrwt>
<pdfrwt beam="1">  1        2 0.40851937E+00 0.70158232E+03</pdfrwt>
<pdfrwt beam="2">  1       -2 0.38066517E-01 0.70158232E+03</pdfrwt>
<totfact> 0.19458930E+01</totfact>
</mgrwt>
</event>
<event>
 4    1  0.1033139E-008  0.1561262E+04  0.7818608E-02  0.8844706E-01
         -2   -1    0    0    0  501 -0.00000000000E+00  0.00000000000E+00  0.22620447456E+04  0.22620447456E+04  0.25500000000E-02 0.  1.
          2   -1    0    0  501    0  0.00000000000E+00 -0.00000000000E+00 -0.23132004752E+04  0.23132004752E+04  0.25500000000E-02 0. -1.
    8880022    1    1    2    0    0  0.13654517140E+03 -0.15477415479E+04  0.16463588285E+04  0.22689287181E+04  0.15294330000E+03 0.  0.
    8880022    1    1    2    0    0 -0.13654517140E+03  0.15477415479E+04 -0.16975145580E+04  0.23063165027E+04  0.15294330000E+03 0.  0.
<mgrwt>
<rscale>  0 0.15612624E+04</rscale>
<asrwt>0</asrwt>
<pdfrwt beam="1">  1        2 0.35587700E+00 0.15612624E+04</pdfrwt>
<pdfrwt beam="2">  1       -2 0.34800688E+00 0.15612624E+04</pdfrwt>
<totfact> 0.66463711E-02</totfact>
</mgrwt>
</event>
<event>
 4    1  0.1033139E-008  0.5484808E+03  0.7818608E-02  0.1001846E+00
         -2   -1    0    0    0  501 -0.00000000000E+00  0.00000000000E+00  0.42189212768E+03  0.42189212769E+03  0.25500000000E-02 0.  1.
          2   -1    0    0  501    0  0.00000000000E+00 -0.00000000000E+00 -0.84611312690E+03  0.84611312690E+03  0.25500000000E-02 0. -1.
    8880022    1    1    2    0    0  0.43509498805E+03 -0.29687008258E+03 -0.46353174152E+03  0.71811755512E+03  0.15294330000E+03 0. -1.
    8880022    1    1    2    0    0 -0.43509498805E+03  0.29687008258E+03  0.39310742312E+02  0.54988769947E+03  0.15294330000E+03 0.  0.
<mgrwt>
<rscale>  0 0.54848076E+03</rscale>
<asrwt>0</asrwt>
<pdfrwt beam="1">  1        2 0.13017125E+00 0.54848076E+03</pdfrwt>
<pdfrwt beam="2">  1       -2 0.64906481E-01 0.54848076E+03</pdfrwt>
<totfact> 0.72125343E+01</totfact>
</mgrwt>
</event>
<event>
 4    1  0.1033139E-008  0.1238920E+04  0.7818608E-02  0.9079456E-01
          2   -1    0    0  501    0  0.00000000000E+00  0.00000000000E+00  0.93978657190E+03  0.93978657190E+03  0.25500000000E-02 0. -1.
         -2   -1    0    0    0  501 -0.00000000000E+00 -0.00000000000E+00 -0.17972135930E+04  0.17972135930E+04  0.25500000000E-02 0.  1.
    8880022    1    1    2    0    0 -0.40492337467E+03  0.11608476637E+04 -0.15383547522E+02  0.12390151509E+04  0.15294330000E+03 0.  0.
    8880022    1    1    2    0    0  0.40492337467E+03 -0.11608476637E+04 -0.84204347355E+03  0.14979850139E+04  0.15294330000E+03 0.  0.
<mgrwt>
<rscale>  0 0.12389196E+04</rscale>
<asrwt>0</asrwt>
<pdfrwt beam="1">  1        2 0.14458255E+00 0.12389196E+04</pdfrwt>
<pdfrwt beam="2">  1       -2 0.27649440E+00 0.12389196E+04</pdfrwt>
<totfact> 0.11865405E+00</totfact>
</mgrwt>
</event>
<event>
 4    1  0.1033139E-008  0.2246405E+04  0.7818608E-02  0.8499358E-01
         -2   -1    0    0    0  501 -0.00000000000E+00  0.00000000000E+00  0.19493766472E+04  0.19493766472E+04  0.25500000000E-02 0.  1.
          2   -1    0    0  501    0  0.00000000000E+00 -0.00000000000E+00 -0.29389595864E+04  0.29389595864E+04  0.25500000000E-02 0. -1.
    8880022    1    1    2    0    0 -0.35836879231E+03 -0.22123555716E+04 -0.13385804180E+04  0.26149827064E+04  0.15294330000E+03 0.  0.
    8880022    1    1    2    0    0  0.35836879231E+03  0.22123555716E+04  0.34899747873E+03  0.22733535272E+04  0.15294330000E+03 0.  0.
<mgrwt>
<rscale>  0 0.22464054E+04</rscale>
<asrwt>0</asrwt>
<pdfrwt beam="1">  1        2 0.45214763E+00 0.22464054E+04</pdfrwt>
<pdfrwt beam="2">  1       -2 0.29990410E+00 0.22464054E+04</pdfrwt>
<totfact> 0.52223763E-02</totfact>
</mgrwt>
</event>
<event>
 4    1  0.1033139E-008  0.8538610E+03  0.7818608E-02  0.9485170E-01
          2   -1    0    0  501    0  0.00000000000E+00  0.00000000000E+00  0.86115422122E+03  0.86115422122E+03  0.25500000000E-02 0. -1.
         -2   -1    0    0    0  501 -0.00000000000E+00 -0.00000000000E+00 -0.94041093070E+03  0.94041093070E+03  0.25500000000E-02 0.  1.
    8880022    1    1    2    0    0 -0.66095360176E+03  0.51848550761E+03  0.24483062552E+03  0.88826830040E+03  0.15294330000E+03 0.  0.
    8880022    1    1    2    0    0  0.66095360176E+03 -0.51848550761E+03 -0.32408733500E+03  0.91329685152E+03  0.15294330000E+03 0.  0.
<mgrwt>
<rscale>  0 0.85386096E+03</rscale>
<asrwt>0</asrwt>
<pdfrwt beam="1">  1        2 0.13248526E+00 0.85386096E+03</pdfrwt>
<pdfrwt beam="2">  1       -2 0.14467860E+00 0.85386096E+03</pdfrwt>
<totfact> 0.10329280E+01</totfact>
</mgrwt>
</event>
<event>
 4    1  0.1033139E-008  0.7922432E+03  0.7818608E-02  0.9571313E-01
         -2   -1    0    0    0  501 -0.00000000000E+00  0.00000000000E+00  0.18153766568E+04  0.18153766568E+04  0.25500000000E-02 0.  1.
          2   -1    0    0  501    0  0.00000000000E+00 -0.00000000000E+00 -0.15355196286E+04  0.15355196286E+04  0.25500000000E-02 0. -1.
    8880022    1    1    2    0    0  0.68080932432E+03  0.37517511254E+03 -0.13348828151E+04  0.15522762268E+04  0.15294330000E+03 0.  0.
    8880022    1    1    2    0    0 -0.68080932432E+03 -0.37517511254E+03  0.16147398433E+04  0.17986200587E+04  0.15294330000E+03 0.  0.
<mgrwt>
<rscale>  0 0.79224324E+03</rscale>
<asrwt>0</asrwt>
<pdfrwt beam="1">  1        2 0.23623379E+00 0.79224324E+03</pdfrwt>
<pdfrwt beam="2">  1       -2 0.27928872E+00 0.79224324E+03</pdfrwt>
<totfact> 0.53666423E-01</totfact>
</mgrwt>
</event>
<event>
 4    1  0.1033139E-008  0.1187903E+04  0.7818608E-02  0.9123511E-01
         -2   -1    0    0    0  501 -0.00000000000E+00  0.00000000000E+00  0.17310409089E+04  0.17310409089E+04  0.25500000000E-02 0.  1.
          2   -1    0    0  501    0  0.00000000000E+00 -0.00000000000E+00 -0.19019073230E+04  0.19019073230E+04  0.25500000000E-02 0. -1.
    8880022    1    1    2    0    0 -0.68488672855E+03  0.95846357018E+03  0.12876421512E+04  0.17518950336E+04  0.15294330000E+03 0.  0.
    8880022    1    1    2    0    0  0.68488672855E+03 -0.95846357018E+03 -0.14585085654E+04  0.18810531982E+04  0.15294330000E+03 0.  0.
<mgrwt>
<rscale>  0 0.11879032E+04</rscale>
<asrwt>0</asrwt>
<pdfrwt beam="1">  1        2 0.29260113E+00 0.11879032E+04</pdfrwt>
<pdfrwt beam="2">  1       -2 0.26631399E+00 0.11879032E+04</pdfrwt>
<totfact> 0.37711255E-01</totfact>
</mgrwt>
</event>
<event>
 4    1  0.1033139E-008  0.1012093E+04  0.7818608E-02  0.9295380E-01
          2   -1    0    0  501    0  0.00000000000E+00  0.00000000000E+00  0.16355993136E+04  0.16355993136E+04  0.25500000000E-02 0. -1.
         -2   -1    0    0    0  501 -0.00000000000E+00 -0.00000000000E+00 -0.85490464029E+03  0.85490464030E+03  0.25500000000E-02 0.  1.
    8880022    1    1    2    0    0 -0.87304113043E+03 -0.48861009009E+03  0.10343182037E+04  0.14471165935E+04  0.15294330000E+03 0.  0.
    8880022    1    1    2    0    0  0.87304113043E+03  0.48861009009E+03 -0.25362353048E+03  0.10433873604E+04  0.15294330000E+03 0.  0.
<mgrwt>
<rscale>  0 0.10120930E+04</rscale>
<asrwt>0</asrwt>
<pdfrwt beam="1">  1        2 0.25163066E+00 0.10120930E+04</pdfrwt>
<pdfrwt beam="2">  1       -2 0.13152379E+00 0.10120930E+04</pdfrwt>
<totfact> 0.44601108E+00</totfact>
</mgrwt>
</event>
<event>
 4    1  0.1033139E-008  0.1521259E+04  0.7818608E-02  0.8870438E-01
         -2   -1    0    0    0  501 -0.00000000000E+00  0.00000000000E+00  0.17969304442E+04  0.17969304442E+04  0.25500000000E-02 0.  1.
          2   -1    0    0  501    0  0.00000000000E+00 -0.00000000000E+00 -0.24251245854E+04  0.24251245854E+04  0.25500000000E-02 0. -1.
    8880022    1    1    2    0    0  0.14892904915E+04  0.26990912040E+03 -0.17597166474E+04  0.23261193936E+04  0.15294330000E+03 0.  0.
    8880022    1    1    2    0    0 -0.14892904915E+04 -0.26990912040E+03  0.11315225062E+04  0.18959356361E+04  0.15294330000E+03 0.  0.
<mgrwt>
<rscale>  0 0.15212589E+04</rscale>
<asrwt>0</asrwt>
<pdfrwt beam="1">  1        2 0.37309609E+00 0.15212589E+04</pdfrwt>
<pdfrwt beam="2">  1       -2 0.27645084E+00 0.15212589E+04</pdfrwt>
<totfact> 0.15917980E-01</totfact>
</mgrwt>
</event>
<event>
 4    1  0.1033139E-008  0.1651556E+03  0.7818608E-02  0.1182996E+00
          2   -1    0    0  501    0  0.00000000000E+00  0.00000000000E+00  0.33881063939E+04  0.33881063939E+04  0.25500000000E-02 0. -1.
         -2   -1    0    0    0  501 -0.00000000000E+00 -0.00000000000E+00 -0.19653230819E+02  0.19653230985E+02  0.25500000000E-02 0.  1.
    8880022    1    1    2    0    0  0.58446398904E+02 -0.21650116035E+02  0.37504521410E+03  0.40979906625E+03  0.15294330000E+03 0.  0.
    8880022    1    1    2    0    0 -0.58446398904E+02  0.21650116035E+02  0.29934079490E+04  0.29979605586E+04  0.15294330000E+03 0. -1.
<mgrwt>
<rscale>  0 0.16515557E+03</rscale>
<asrwt>0</asrwt>
<pdfrwt beam="1">  1        2 0.52124763E+00 0.16515557E+03</pdfrwt>
<pdfrwt beam="2">  1       -2 0.30235711E-02 0.16515557E+03</pdfrwt>
<totfact> 0.52003107E+02</totfact>
</mgrwt>
</event>
<event>
 4    1  0.1094865E-008  0.8882507E+03  0.7818608E-02  0.9440389E-01
         -2   -1    0    0    0  501 -0.00000000000E+00  0.00000000000E+00  0.25837885981E+04  0.25837885981E+04  0.25500000000E-02 0.  1.
          2   -1    0    0  501    0  0.00000000000E+00 -0.00000000000E+00 -0.15807922864E+04  0.15807922864E+04  0.25500000000E-02 0. -1.
    8880022    1    1    2    0    0  0.82527032322E+03  0.29073460519E+03  0.23718889756E+04  0.25327547616E+04  0.15294330000E+03 0.  1.
    8880022    1    1    2    0    0 -0.82527032322E+03 -0.29073460519E+03 -0.13688926638E+04  0.16318261228E+04  0.15294330000E+03 0.  0.
<mgrwt>
<rscale>  0 0.88825074E+03</rscale>
<asrwt>0</asrwt>
<pdfrwt beam="1">  1        2 0.24319882E+00 0.88825074E+03</pdfrwt>
<pdfrwt beam="2">  1       -2 0.39750593E+00 0.88825074E+03</pdfrwt>
<totfact> 0.91871443E-02</totfact>
</mgrwt>
</event>
<event>
 4    1  0.1033139E-008  0.3651762E+03  0.7818608E-02  0.1056553E+00
          2   -1    0    0  501    0  0.00000000000E+00  0.00000000000E+00  0.41046088716E+04  0.41046088716E+04  0.25500000000E-02 0. -1.
         -2   -1    0    0    0  501 -0.00000000000E+00 -0.00000000000E+00 -0.14320776410E+03  0.14320776412E+03  0.25500000000E-02 0.  1.
    8880022    1    1    2    0    0  0.31714608837E+03  0.96852093359E+02  0.38482133377E+04  0.38655011984E+04  0.15294330000E+03 0.  0.
    8880022    1    1    2    0    0 -0.31714608837E+03 -0.96852093359E+02  0.11318776978E+03  0.38231543730E+03  0.15294330000E+03 0.  0.
<mgrwt>
<rscale>  0 0.36517615E+03</rscale>
<asrwt>0</asrwt>
<pdfrwt beam="1">  1        2 0.63147833E+00 0.36517615E+03</pdfrwt>
<pdfrwt beam="2">  1       -2 0.22031962E-01 0.36517615E+03</pdfrwt>
<totfact> 0.63094135E+00</totfact>
</mgrwt>
</event>
<event>
 4    1  0.1033139E-008  0.8922566E+03  0.7818608E-02  0.9435313E-01
         -2   -1    0    0    0  501 -0.00000000000E+00  0.00000000000E+00  0.53837944396E+03  0.53837944397E+03  0.25500000000E-02 0.  1.
          2   -1    0    0  501    0  0.00000000000E+00 -0.00000000000E+00 -0.25077517725E+04  0.25077517725E+04  0.25500000000E-02 0. -1.
    8880022    1    1    2    0    0 -0.87645607745E+03  0.67490720740E+02 -0.90519437526E+01  0.89230255171E+03  0.15294330000E+03 0.  0.
    8880022    1    1    2    0    0  0.87645607745E+03 -0.67490720740E+02 -0.19603203848E+04  0.21538286647E+04  0.15294330000E+03 0.  0.
<mgrwt>
<rscale>  0 0.89225664E+03</rscale>
<asrwt>0</asrwt>
<pdfrwt beam="1">  1        2 0.38580796E+00 0.89225664E+03</pdfrwt>
<pdfrwt beam="2">  1       -2 0.82827608E-01 0.89225664E+03</pdfrwt>
<totfact> 0.45161531E+00</totfact>
</mgrwt>
</event>
<event>
 4    1  0.1033139E-008  0.2823056E+03  0.7818608E-02  0.1094436E+00
          2   -1    0    0  501    0  0.00000000000E+00  0.00000000000E+00  0.11765387679E+04  0.11765387679E+04  0.25500000000E-02 0. -1.
         -2   -1    0    0    0  501 -0.00000000000E+00 -0.00000000000E+00 -0.17112141695E+03  0.17112141697E+03  0.25500000000E-02 0.  1.
    8880022    1    1    2    0    0  0.22200555427E+03  0.83775333898E+02 -0.21040778469E+02  0.28308857283E+03  0.15294330000E+03 0.  1.
    8880022    1    1    2    0    0 -0.22200555427E+03 -0.83775333898E+02  0.10264581294E+04  0.10645716120E+04  0.15294330000E+03 0.  0.
<mgrwt>
<rscale>  0 0.28230555E+03</rscale>
<asrwt>0</asrwt>
<pdfrwt beam="1">  1        2 0.18100597E+00 0.28230555E+03</pdfrwt>
<pdfrwt beam="2">  1       -2 0.26326371E-01 0.28230555E+03</pdfrwt>
<totfact> 0.26889193E+02</totfact>
</mgrwt>
</event>
<event>
 4    1  0.1070216E-008  0.1886667E+04  0.7818608E-02  0.8661522E-01
         -2   -1    0    0    0  501 -0.00000000000E+00  0.00000000000E+00  0.26727129800E+04  0.26727129800E+04  0.25500000000E-02 0.  1.
          2   -1    0    0  501    0  0.00000000000E+00 -0.00000000000E+00 -0.20706983535E+04  0.20706983535E+04  0.25500000000E-02 0. -1.
    8880022    1    1    2    0    0  0.15589430962E+04 -0.10515777846E+04  0.17177651055E+04  0.25515148491E+04  0.15294330000E+03 0.  0.
    8880022    1    1    2    0    0 -0.15589430962E+04  0.10515777846E+04 -0.11157504789E+04  0.21918964844E+04  0.15294330000E+03 0.  0.
<mgrwt>
<rscale>  0 0.18866667E+04</rscale>
<asrwt>0</asrwt>
<pdfrwt beam="1">  1        2 0.31856898E+00 0.18866667E+04</pdfrwt>
<pdfrwt beam="2">  1       -2 0.41118661E+00 0.18866667E+04</pdfrwt>
<totfact> 0.34246165E-02</totfact>
</mgrwt>
</event>
<event>
 4    1  0.1033139E-008  0.2051152E+03  0.7818608E-02  0.1145494E+00
         -2   -1    0    0    0  501 -0.00000000000E+00  0.00000000000E+00  0.10565037050E+04  0.10565037050E+04  0.25500000000E-02 0.  1.
          2   -1    0    0  501    0  0.00000000000E+00 -0.00000000000E+00 -0.33613252416E+03  0.33613252417E+03  0.25500000000E-02 0. -1.
    8880022    1    1    2    0    0  0.10028140763E+03 -0.92866840952E+02 -0.29358569699E+03  0.35814078985E+03  0.15294330000E+03 0.  0.
    8880022    1    1    2    0    0 -0.10028140763E+03  0.92866840952E+02  0.10139568778E+04  0.10344954393E+04  0.15294330000E+03 0.  1.
<mgrwt>
<rscale>  0 0.20511525E+03</rscale>
<asrwt>0</asrwt>
<pdfrwt beam="1">  1        2 0.51712697E-01 0.20511525E+03</pdfrwt>
<pdfrwt beam="2">  1       -2 0.16253903E+00 0.20511525E+03</pdfrwt>
<totfact> 0.25442712E+01</totfact>
</mgrwt>
</event>
<event>
 4    1  0.1033139E-008  0.3942836E+03  0.7818608E-02  0.1045777E+00
          2   -1    0    0  501    0  0.00000000000E+00  0.00000000000E+00  0.12066408167E+04  0.12066408167E+04  0.25500000000E-02 0. -1.
         -2   -1    0    0    0  501 -0.00000000000E+00 -0.00000000000E+00 -0.96535242058E+03  0.96535242058E+03  0.25500000000E-02 0.  1.
    8880022    1    1    2    0    0 -0.24142175646E+03 -0.27163114239E+03 -0.89028929933E+03  0.97369124035E+03  0.15294330000E+03 0.  0.
    8880022    1    1    2    0    0  0.24142175646E+03  0.27163114239E+03  0.11315776954E+04  0.11983019969E+04  0.15294330000E+03 0.  0.
<mgrwt>
<rscale>  0 0.39428365E+03</rscale>
<asrwt>0</asrwt>
<pdfrwt beam="1">  1        2 0.18563705E+00 0.39428365E+03</pdfrwt>
<pdfrwt beam="2">  1       -2 0.14851576E+00 0.39428365E+03</pdfrwt>
<totfact> 0.63081788E+00</totfact>
</mgrwt>
</event>
<event>
 4    1  0.1033139E-008  0.5640240E+03  0.7818608E-02  0.9982991E-01
          2   -1    0    0  501    0  0.00000000000E+00  0.00000000000E+00  0.23803650488E+04  0.23803650488E+04  0.25500000000E-02 0. -1.
         -2   -1    0    0    0  501 -0.00000000000E+00 -0.00000000000E+00 -0.55280599920E+03  0.55280599921E+03  0.25500000000E-02 0.  1.
    8880022    1    1    2    0    0  0.46088775905E+01  0.54287215983E+03 -0.36328143935E+03  0.67089230199E+03  0.15294330000E+03 0.  0.
    8880022    1    1    2    0    0 -0.46088775905E+01 -0.54287215983E+03  0.21908404889E+04  0.22622787460E+04  0.15294330000E+03 0.  0.
<mgrwt>
<rscale>  0 0.56402400E+03</rscale>
<asrwt>0</asrwt>
<pdfrwt beam="1">  1        2 0.36621001E+00 0.56402400E+03</pdfrwt>
<pdfrwt beam="2">  1       -2 0.85047077E-01 0.56402400E+03</pdfrwt>
<totfact> 0.53350858E+00</totfact>
</mgrwt>
</event>
<event>
 4    1  0.1033139E-008  0.1117664E+04  0.7818608E-02  0.9188145E-01
         -2   -1    0    0    0  501 -0.00000000000E+00  0.00000000000E+00  0.17501234118E+04  0.17501234118E+04  0.25500000000E-02 0.  1.
          2   -1    0    0  501    0  0.00000000000E+00 -0.00000000000E+00 -0.13472720581E+04  0.13472720581E+04  0.25500000000E-02 0. -1.
    8880022    1    1    2    0    0  0.85290935113E+03 -0.70592237904E+03 -0.86055253331E+03  0.14105754436E+04  0.15294330000E+03 0.  0.
    8880022    1    1    2    0    0 -0.85290935113E+03  0.70592237904E+03  0.12634038870E+04  0.16868200263E+04  0.15294330000E+03 0.  0.
<mgrwt>
<rscale>  0 0.11176638E+04</rscale>
<asrwt>0</asrwt>
<pdfrwt beam="1">  1        2 0.20727262E+00 0.11176638E+04</pdfrwt>
<pdfrwt beam="2">  1       -2 0.26924976E+00 0.11176638E+04</pdfrwt>
<totfact> 0.74762723E-01</totfact>
</mgrwt>
</event>
<event>
 4    1  0.1033139E-008  0.8379201E+03  0.7818608E-02  0.9506695E-01
          2   -1    0    0  501    0  0.00000000000E+00  0.00000000000E+00  0.99631384844E+03  0.99631384844E+03  0.25500000000E-02 0. -1.
         -2   -1    0    0    0  501 -0.00000000000E+00 -0.00000000000E+00 -0.13206747589E+04  0.13206747589E+04  0.25500000000E-02 0.  1.
    8880022    1    1    2    0    0  0.45915710776E+03  0.68402716634E+03 -0.95335935838E+03  0.12692533762E+04  0.15294330000E+03 0.  0.
    8880022    1    1    2    0    0 -0.45915710776E+03 -0.68402716634E+03  0.62899844794E+03  0.10477352311E+04  0.15294330000E+03 0.  0.
<mgrwt>
<rscale>  0 0.83792008E+03</rscale>
<asrwt>0</asrwt>
<pdfrwt beam="1">  1        2 0.15327905E+00 0.83792008E+03</pdfrwt>
<pdfrwt beam="2">  1       -2 0.20318073E+00 0.83792008E+03</pdfrwt>
<totfact> 0.32493682E+00</totfact>
</mgrwt>
</event>
<event>
 4    1  0.1033139E-008  0.9310268E+03  0.7818608E-02  0.9387606E-01
          2   -1    0    0  501    0  0.00000000000E+00  0.00000000000E+00  0.12244451617E+04  0.12244451617E+04  0.25500000000E-02 0. -1.
         -2   -1    0    0    0  501 -0.00000000000E+00 -0.00000000000E+00 -0.13783426086E+04  0.13783426086E+04  0.25500000000E-02 0.  1.
    8880022    1    1    2    0    0 -0.80983881421E+03 -0.43310551306E+03  0.83067124156E+03  0.12477281976E+04  0.15294330000E+03 0.  0.
    8880022    1    1    2    0    0  0.80983881421E+03  0.43310551306E+03 -0.98456868846E+03  0.13550595728E+04  0.15294330000E+03 0.  0.
<mgrwt>
<rscale>  0 0.93102682E+03</rscale>
<asrwt>0</asrwt>
<pdfrwt beam="1">  1        2 0.18837618E+00 0.93102682E+03</pdfrwt>
<pdfrwt beam="2">  1       -2 0.21205271E+00 0.93102682E+03</pdfrwt>
<totfact> 0.20385364E+00</totfact>
</mgrwt>
</event>
<event>
 4    1  0.1033139E-008  0.1339994E+04  0.7818608E-02  0.8998437E-01
         -2   -1    0    0    0  501 -0.00000000000E+00  0.00000000000E+00  0.14086647998E+04  0.14086647998E+04  0.25500000000E-02 0.  1.
          2   -1    0    0  501    0  0.00000000000E+00 -0.00000000000E+00 -0.19048014699E+04  0.19048014699E+04  0.25500000000E-02 0. -1.
    8880022    1    1    2    0    0 -0.32434782472E+03 -0.12911199800E+04 -0.12009588173E+04  0.17994126953E+04  0.15294330000E+03 0.  0.
    8880022    1    1    2    0    0  0.32434782472E+03  0.12911199800E+04  0.70482214724E+03  0.15140535745E+04  0.15294330000E+03 0.  0.
<mgrwt>
<rscale>  0 0.13399940E+04</rscale>
<asrwt>0</asrwt>
<pdfrwt beam="1">  1        2 0.29304638E+00 0.13399940E+04</pdfrwt>
<pdfrwt beam="2">  1       -2 0.21671766E+00 0.13399940E+04</pdfrwt>
<totfact> 0.74733091E-01</totfact>
</mgrwt>
</event>
<event>
 4    1  0.1033139E-008  0.7427421E+03  0.7818608E-02  0.9646806E-01
          2   -1    0    0  501    0  0.00000000000E+00  0.00000000000E+00  0.98931228402E+03  0.98931228402E+03  0.25500000000E-02 0. -1.
         -2   -1    0    0    0  501 -0.00000000000E+00 -0.00000000000E+00 -0.62919488014E+03  0.62919488014E+03  0.25500000000E-02 0.  1.
    8880022    1    1    2    0    0  0.35899951009E+03 -0.63197594035E+03 -0.92873801791E+02  0.74852617422E+03  0.15294330000E+03 0.  0.
    8880022    1    1    2    0    0 -0.35899951009E+03  0.63197594035E+03  0.45299120567E+03  0.86998098994E+03  0.15294330000E+03 0.  0.
<mgrwt>
<rscale>  0 0.74274214E+03</rscale>
<asrwt>0</asrwt>
<pdfrwt beam="1">  1        2 0.15220189E+00 0.74274214E+03</pdfrwt>
<pdfrwt beam="2">  1       -2 0.96799212E-01 0.74274214E+03</pdfrwt>
<totfact> 0.23213361E+01</totfact>
</mgrwt>
</event>
<event>
 4    1  0.1033139E-008  0.6197800E+03  0.7818608E-02  0.9865198E-01
         -2   -1    0    0    0  501 -0.00000000000E+00  0.00000000000E+00  0.26050094079E+03  0.26050094080E+03  0.25500000000E-02 0.  1.
          2   -1    0    0  501    0  0.00000000000E+00 -0.00000000000E+00 -0.18554084379E+04  0.18554084379E+04  0.25500000000E-02 0. -1.
    8880022    1    1    2    0    0 -0.10782209176E+03  0.59085532750E+03 -0.31814339380E+03  0.69666526649E+03  0.15294330000E+03 0.  1.
    8880022    1    1    2    0    0  0.10782209176E+03 -0.59085532750E+03 -0.12767641033E+04  0.14192441122E+04  0.15294330000E+03 0. -1.
<mgrwt>
<rscale>  0 0.61978002E+03</rscale>
<asrwt>0</asrwt>
<pdfrwt beam="1">  1        2 0.28544744E+00 0.61978002E+03</pdfrwt>
<pdfrwt beam="2">  1       -2 0.40077069E-01 0.61978002E+03</pdfrwt>
<totfact> 0.49483514E+01</totfact>
</mgrwt>
</event>
<event>
 4    1  0.1033139E-008  0.1087147E+04  0.7818608E-02  0.9217811E-01
         -2   -1    0    0    0  501 -0.00000000000E+00  0.00000000000E+00  0.67424652367E+03  0.67424652367E+03  0.25500000000E-02 0.  1.
          2   -1    0    0  501    0  0.00000000000E+00 -0.00000000000E+00 -0.25884272237E+04  0.25884272237E+04  0.25500000000E-02 0. -1.
    8880022    1    1    2    0    0  0.10740436346E+04 -0.70187738556E+02 -0.18839321292E+04  0.21751064268E+04  0.15294330000E+03 0. -1.
    8880022    1    1    2    0    0 -0.10740436346E+04  0.70187738556E+02 -0.30248570799E+02  0.10875673205E+04  0.15294330000E+03 0.  0.
<mgrwt>
<rscale>  0 0.10871466E+04</rscale>
<asrwt>0</asrwt>
<pdfrwt beam="1">  1        2 0.39821957E+00 0.10871466E+04</pdfrwt>
<pdfrwt beam="2">  1       -2 0.10373024E+00 0.10871466E+04</pdfrwt>
<totfact> 0.23348358E+00</totfact>
</mgrwt>
</event>
<event>
 4    1  0.1033139E-008  0.1129025E+04  0.7818608E-02  0.9177355E-01
          2   -1    0    0  501    0  0.00000000000E+00  0.00000000000E+00  0.29348264215E+04  0.29348264215E+04  0.25500000000E-02 0. -1.
         -2   -1    0    0    0  501 -0.00000000000E+00 -0.00000000000E+00 -0.58611009848E+03  0.58611009849E+03  0.25500000000E-02 0.  1.
    8880022    1    1    2    0    0  0.10793396556E+04  0.29382360570E+03  0.27850103994E+03  0.11628675272E+04  0.15294330000E+03 0.  0.
    8880022    1    1    2    0    0 -0.10793396556E+04 -0.29382360570E+03  0.20702152830E+04  0.23580689928E+04  0.15294330000E+03 0.  0.
<mgrwt>
<rscale>  0 0.11290253E+04</rscale>
<asrwt>0</asrwt>
<pdfrwt beam="1">  1        2 0.45151176E+00 0.11290253E+04</pdfrwt>
<pdfrwt beam="2">  1       -2 0.90170784E-01 0.11290253E+04</pdfrwt>
<totfact> 0.20119549E+00</totfact>
</mgrwt>
</event>
<event>
 4    1  0.1033139E-008  0.7950191E+03  0.7818608E-02  0.9567255E-01
          2   -1    0    0  501    0  0.00000000000E+00  0.00000000000E+00  0.34744045557E+04  0.34744045557E+04  0.25500000000E-02 0. -1.
         -2   -1    0    0    0  501 -0.00000000000E+00 -0.00000000000E+00 -0.65728109722E+03  0.65728109723E+03  0.25500000000E-02 0.  1.
    8880022    1    1    2    0    0  0.71625534372E+03  0.30926051180E+03  0.31654114229E+04  0.32637225542E+04  0.15294330000E+03 0.  0.
    8880022    1    1    2    0    0 -0.71625534372E+03 -0.30926051180E+03 -0.34828796443E+03  0.86796309873E+03  0.15294330000E+03 0.  0.
<mgrwt>
<rscale>  0 0.79501914E+03</rscale>
<asrwt>0</asrwt>
<pdfrwt beam="1">  1        2 0.53452378E+00 0.79501914E+03</pdfrwt>
<pdfrwt beam="2">  1       -2 0.10112017E+00 0.79501914E+03</pdfrwt>
<totfact> 0.73337281E-01</totfact>
</mgrwt>
</event>
<event>
 4    1  0.1033139E-008  0.8338723E+03  0.7818608E-02  0.9512242E-01
          2   -1    0    0  501    0  0.00000000000E+00  0.00000000000E+00  0.17856289382E+04  0.17856289382E+04  0.25500000000E-02 0. -1.
         -2   -1    0    0    0  501 -0.00000000000E+00 -0.00000000000E+00 -0.45092322649E+03  0.45092322650E+03  0.25500000000E-02 0.  1.
    8880022    1    1    2    0    0  0.52130198234E+03  0.63261015679E+03  0.25432484569E+03  0.87179363809E+03  0.15294330000E+03 0.  0.
    8880022    1    1    2    0    0 -0.52130198234E+03 -0.63261015679E+03  0.10803808660E+04  0.13647585266E+04  0.15294330000E+03 0.  0.
<mgrwt>
<rscale>  0 0.83387230E+03</rscale>
<asrwt>0</asrwt>
<pdfrwt beam="1">  1        2 0.27471214E+00 0.83387230E+03</pdfrwt>
<pdfrwt beam="2">  1       -2 0.69372804E-01 0.83387230E+03</pdfrwt>
<totfact> 0.16975712E+01</totfact>
</mgrwt>
</event>
<event>
 4    1  0.1033139E-008  0.5645443E+03  0.7818608E-02  0.9981824E-01
         -2   -1    0    0    0  501 -0.00000000000E+00  0.00000000000E+00  0.73785269272E+03  0.73785269272E+03  0.25500000000E-02 0.  1.
          2   -1    0    0  501    0  0.00000000000E+00 -0.00000000000E+00 -0.10621040911E+04  0.10621040911E+04  0.25500000000E-02 0. -1.
    8880022    1    1    2    0    0  0.53472605203E+03  0.96884950625E+02  0.53109949417E+03  0.77509803903E+03  0.15294330000E+03 0.  0.
    8880022    1    1    2    0    0 -0.53472605203E+03 -0.96884950625E+02 -0.85535089253E+03  0.10248587448E+04  0.15294330000E+03 0.  0.
<mgrwt>
<rscale>  0 0.56454433E+03</rscale>
<asrwt>0</asrwt>
<pdfrwt beam="1">  1        2 0.16340063E+00 0.56454433E+03</pdfrwt>
<pdfrwt beam="2">  1       -2 0.11351580E+00 0.56454433E+03</pdfrwt>
<totfact> 0.14597455E+01</totfact>
</mgrwt>
</event>
<event>
 4    1  0.1033139E-008  0.3450966E+03  0.7818608E-02  0.1064646E+00
         -2   -1    0    0    0  501 -0.00000000000E+00  0.00000000000E+00  0.50195017419E+03  0.50195017420E+03  0.25500000000E-02 0.  1.
          2   -1    0    0  501    0  0.00000000000E+00 -0.00000000000E+00 -0.32032313911E+03  0.32032313912E+03  0.25500000000E-02 0. -1.
    8880022    1    1    2    0    0  0.27778748955E+03 -0.13614008597E+03  0.30017731825E+03  0.45738177463E+03  0.15294330000E+03 0.  0.
    8880022    1    1    2    0    0 -0.27778748955E+03  0.13614008597E+03 -0.11855028317E+03  0.36489153869E+03  0.15294330000E+03 0.  0.
<mgrwt>
<rscale>  0 0.34509660E+03</rscale>
<asrwt>0</asrwt>
<pdfrwt beam="1">  1        2 0.49280483E-01 0.34509660E+03</pdfrwt>
<pdfrwt beam="2">  1       -2 0.77223103E-01 0.34509660E+03</pdfrwt>
<totfact> 0.15721559E+02</totfact>
</mgrwt>
</event>
<event>
 4    1  0.1033139E-008  0.9632358E+03  0.7818608E-02  0.9349812E-01
          2   -1    0    0  501    0  0.00000000000E+00  0.00000000000E+00  0.12995154802E+04  0.12995154802E+04  0.25500000000E-02 0. -1.
         -2   -1    0    0    0  501 -0.00000000000E+00 -0.00000000000E+00 -0.77993622559E+03  0.77993622559E+03  0.25500000000E-02 0.  1.
    8880022    1    1    2    0    0  0.84404947611E+03  0.43819176565E+03  0.56215324050E+03  0.11152755088E+04  0.15294330000E+03 0.  0.
    8880022    1    1    2    0    0 -0.84404947611E+03 -0.43819176565E+03 -0.42573985919E+02  0.96417619702E+03  0.15294330000E+03 0.  0.
<mgrwt>
<rscale>  0 0.96323579E+03</rscale>
<asrwt>0</asrwt>
<pdfrwt beam="1">  1        2 0.19992546E+00 0.96323579E+03</pdfrwt>
<pdfrwt beam="2">  1       -2 0.11999019E+00 0.96323579E+03</pdfrwt>
<totfact> 0.87560641E+00</totfact>
</mgrwt>
</event>
<event>
 4    1  0.1033139E-008  0.9932631E+03  0.7818608E-02  0.9315965E-01
         -2   -1    0    0    0  501 -0.00000000000E+00  0.00000000000E+00  0.71690820653E+03  0.71690820654E+03  0.25500000000E-02 0.  1.
          2   -1    0    0  501    0  0.00000000000E+00 -0.00000000000E+00 -0.25743860408E+04  0.25743860408E+04  0.25500000000E-02 0. -1.
    8880022    1    1    2    0    0  0.55205600291E+03  0.81142717221E+03  0.19398117608E+03  0.10120277841E+04  0.15294330000E+03 0.  0.
    8880022    1    1    2    0    0 -0.55205600291E+03 -0.81142717221E+03 -0.20514590103E+04  0.22792664632E+04  0.15294330000E+03 0.  0.
<mgrwt>
<rscale>  0 0.99326308E+03</rscale>
<asrwt>0</asrwt>
<pdfrwt beam="1">  1        2 0.39605939E+00 0.99326308E+03</pdfrwt>
<pdfrwt beam="2">  1       -2 0.11029357E+00 0.99326308E+03</pdfrwt>
<totfact> 0.20776649E+00</totfact>
</mgrwt>
</event>
<event>
 4    1  0.1033139E-008  0.9781997E+03  0.7818608E-02  0.9332783E-01
         -2   -1    0    0    0  501 -0.00000000000E+00  0.00000000000E+00  0.38279446005E+03  0.38279446006E+03  0.25500000000E-02 0.  1.
          2   -1    0    0  501    0  0.00000000000E+00 -0.00000000000E+00 -0.25281352600E+04  0.25281352600E+04  0.25500000000E-02 0. -1.
    8880022    1    1    2    0    0  0.29411163845E+03 -0.92031591290E+03 -0.12270048226E+04  0.15692085659E+04  0.15294330000E+03 0.  0.
    8880022    1    1    2    0    0 -0.29411163845E+03  0.92031591290E+03 -0.91833597736E+03  0.13417211542E+04  0.15294330000E+03 0.  0.
<mgrwt>
<rscale>  0 0.97819972E+03</rscale>
<asrwt>0</asrwt>
<pdfrwt beam="1">  1        2 0.38894388E+00 0.97819972E+03</pdfrwt>
<pdfrwt beam="2">  1       -2 0.58891457E-01 0.97819972E+03</pdfrwt>
<totfact> 0.91686904E+00</totfact>
</mgrwt>
</event>
<event>
 4    1  0.1033139E-008  0.1018977E+04  0.7818608E-02  0.9287973E-01
         -2   -1    0    0    0  501 -0.00000000000E+00  0.00000000000E+00  0.96877872374E+03  0.96877872374E+03  0.25500000000E-02 0.  1.
          2   -1    0    0  501    0  0.00000000000E+00 -0.00000000000E+00 -0.25976621070E+04  0.25976621070E+04  0.25500000000E-02 0. -1.
    8880022    1    1    2    0    0  0.94103015335E+03  0.35970012556E+03 -0.21811467039E+04  0.24074290284E+04  0.15294330000E+03 0.  0.
    8880022    1    1    2    0    0 -0.94103015335E+03 -0.35970012556E+03  0.55226332057E+03  0.11590118024E+04  0.15294330000E+03 0.  0.
<mgrwt>
<rscale>  0 0.10189767E+04</rscale>
<asrwt>0</asrwt>
<pdfrwt beam="1">  1        2 0.39964032E+00 0.10189767E+04</pdfrwt>
<pdfrwt beam="2">  1       -2 0.14904288E+00 0.10189767E+04</pdfrwt>
<totfact> 0.93472697E-01</totfact>
</mgrwt>
</event>
<event>
 4    1  0.1033139E-008  0.1134094E+04  0.7818608E-02  0.9172584E-01
          2   -1    0    0  501    0  0.00000000000E+00  0.00000000000E+00  0.34590688907E+04  0.34590688907E+04  0.25500000000E-02 0. -1.
         -2   -1    0    0    0  501 -0.00000000000E+00 -0.00000000000E+00 -0.10199767013E+04  0.10199767013E+04  0.25500000000E-02 0.  1.
    8880022    1    1    2    0    0  0.51324477256E+03 -0.99967828847E+03  0.30047945712E+04  0.32116909791E+04  0.15294330000E+03 0.  0.
    8880022    1    1    2    0    0 -0.51324477256E+03  0.99967828847E+03 -0.56570238183E+03  0.12673546129E+04  0.15294330000E+03 0.  0.
<mgrwt>
<rscale>  0 0.11340937E+04</rscale>
<asrwt>0</asrwt>
<pdfrwt beam="1">  1        2 0.53216445E+00 0.11340937E+04</pdfrwt>
<pdfrwt beam="2">  1       -2 0.15691949E+00 0.11340937E+04</pdfrwt>
<totfact> 0.23154249E-01</totfact>
</mgrwt>
</event>
<event>
 4    1  0.1033139E-008  0.5207122E+03  0.7818608E-02  0.1008510E+00
         -2   -1    0    0    0  501 -0.00000000000E+00  0.00000000000E+00  0.29486365787E+04  0.29486365787E+04  0.25500000000E-02 0.  1.
          2   -1    0    0  501    0  0.00000000000E+00 -0.00000000000E+00 -0.45838092320E+03  0.45838092321E+03  0.25500000000E-02 0. -1.
    8880022    1    1    2    0    0 -0.46747294551E+03 -0.17093441168E+03 -0.27795785810E+03  0.59025566644E+03  0.15294330000E+03 0.  0.
    8880022    1    1    2    0    0  0.46747294551E+03  0.17093441168E+03  0.27682135136E+04  0.28167618355E+04  0.15294330000E+03 0.  0.
<mgrwt>
<rscale>  0 0.52071219E+03</rscale>
<asrwt>0</asrwt>
<pdfrwt beam="1">  1        2 0.70520147E-01 0.52071219E+03</pdfrwt>
<pdfrwt beam="2">  1       -2 0.45363637E+00 0.52071219E+03</pdfrwt>
<totfact> 0.25225018E-01</totfact>
</mgrwt>
</event>
<event>
 4    1  0.1033139E-008  0.8450159E+03  0.7818608E-02  0.9497051E-01
         -2   -1    0    0    0  501 -0.00000000000E+00  0.00000000000E+00  0.44685257722E+03  0.44685257722E+03  0.25500000000E-02 0.  1.
          2   -1    0    0  501    0  0.00000000000E+00 -0.00000000000E+00 -0.17672132007E+04  0.17672132007E+04  0.25500000000E-02 0. -1.
    8880022    1    1    2    0    0 -0.79068234658E+03  0.25589385869E+03 -0.31758109569E+03  0.90272346012E+03  0.15294330000E+03 0.  0.
    8880022    1    1    2    0    0  0.79068234658E+03 -0.25589385869E+03 -0.10027795278E+04  0.13113423178E+04  0.15294330000E+03 0.  0.
<mgrwt>
<rscale>  0 0.84501591E+03</rscale>
<asrwt>0</asrwt>
<pdfrwt beam="1">  1        2 0.27187895E+00 0.84501591E+03</pdfrwt>
<pdfrwt beam="2">  1       -2 0.68746552E-01 0.84501591E+03</pdfrwt>
<totfact> 0.17697858E+01</totfact>
</mgrwt>
</event>
<event>
 4    1  0.1033139E-008  0.1144932E+04  0.7818608E-02  0.9162471E-01
          2   -1    0    0  501    0  0.00000000000E+00  0.00000000000E+00  0.16037529813E+04  0.16037529813E+04  0.25500000000E-02 0. -1.
         -2   -1    0    0    0  501 -0.00000000000E+00 -0.00000000000E+00 -0.22089220849E+04  0.22089220849E+04  0.25500000000E-02 0.  1.
    8880022    1    1    2    0    0 -0.27208478109E+03  0.11015663398E+04 -0.18156520450E+04  0.21465000654E+04  0.15294330000E+03 0.  0.
    8880022    1    1    2    0    0  0.27208478109E+03 -0.11015663398E+04  0.12104829414E+04  0.16661750008E+04  0.15294330000E+03 0.  0.
<mgrwt>
<rscale>  0 0.11449324E+04</rscale>
<asrwt>0</asrwt>
<pdfrwt beam="1">  1        2 0.24673123E+00 0.11449324E+04</pdfrwt>
<pdfrwt beam="2">  1       -2 0.33983417E+00 0.11449324E+04</pdfrwt>
<totfact> 0.19755976E-01</totfact>
</mgrwt>
</event>
<event>
 4    1  0.1033139E-008  0.7240734E+03  0.7818608E-02  0.9676927E-01
          2   -1    0    0  501    0  0.00000000000E+00  0.00000000000E+00  0.73251663297E+03  0.73251663297E+03  0.25500000000E-02 0. -1.
         -2   -1    0    0    0  501 -0.00000000000E+00 -0.00000000000E+00 -0.11474259358E+04  0.11474259358E+04  0.25500000000E-02 0.  1.
    8880022    1    1    2    0    0 -0.70772893369E+03  0.32235213002E+01 -0.78401198447E+03  0.10672193212E+04  0.15294330000E+03 0.  0.
    8880022    1    1    2    0    0  0.70772893369E+03 -0.32235213002E+01  0.36910268160E+03  0.81272324764E+03  0.15294330000E+03 0.  0.
<mgrwt>
<rscale>  0 0.72407340E+03</rscale>
<asrwt>0</asrwt>
<pdfrwt beam="1">  1        2 0.11269487E+00 0.72407340E+03</pdfrwt>
<pdfrwt beam="2">  1       -2 0.17652707E+00 0.72407340E+03</pdfrwt>
<totfact> 0.75686434E+00</totfact>
</mgrwt>
</event>
<event>
 4    1  0.1033139E-008  0.1434485E+04  0.7818608E-02  0.8929228E-01
          2   -1    0    0  501    0  0.00000000000E+00  0.00000000000E+00  0.21651581300E+04  0.21651581300E+04  0.25500000000E-02 0. -1.
         -2   -1    0    0    0  501 -0.00000000000E+00 -0.00000000000E+00 -0.98363171470E+03  0.98363171470E+03  0.25500000000E-02 0.  1.
    8880022    1    1    2    0    0  0.13675766443E+04  0.40507911320E+03  0.88018627548E+03  0.16829956918E+04  0.15294330000E+03 0.  0.
    8880022    1    1    2    0    0 -0.13675766443E+04 -0.40507911320E+03  0.30134013982E+03  0.14657941529E+04  0.15294330000E+03 0.  0.
<mgrwt>
<rscale>  0 0.14344848E+04</rscale>
<asrwt>0</asrwt>
<pdfrwt beam="1">  1        2 0.33310125E+00 0.14344848E+04</pdfrwt>
<pdfrwt beam="2">  1       -2 0.15132796E+00 0.14344848E+04</pdfrwt>
<totfact> 0.15022756E+00</totfact>
</mgrwt>
</event>
<event>
 4    1  0.1033139E-008  0.3350879E+03  0.7818608E-02  0.1068908E+00
         -2   -1    0    0    0  501 -0.00000000000E+00  0.00000000000E+00  0.33883645705E+03  0.33883645706E+03  0.25500000000E-02 0.  1.
          2   -1    0    0  501    0  0.00000000000E+00 -0.00000000000E+00 -0.13580639346E+04  0.13580639346E+04  0.25500000000E-02 0. -1.
    8880022    1    1    2    0    0  0.21456492100E+03  0.20701247347E+03 -0.12473216549E+04  0.12915476117E+04  0.15294330000E+03 0. -1.
    8880022    1    1    2    0    0 -0.21456492100E+03 -0.20701247347E+03  0.22809417732E+03  0.40535277998E+03  0.15294330000E+03 0.  0.
<mgrwt>
<rscale>  0 0.33508793E+03</rscale>
<asrwt>0</asrwt>
<pdfrwt beam="1">  1        2 0.20893291E+00 0.33508793E+03</pdfrwt>
<pdfrwt beam="2">  1       -2 0.52128687E-01 0.33508793E+03</pdfrwt>
<totfact> 0.57498276E+01</totfact>
</mgrwt>
</event>
<event>
 4    1  0.1033139E-008  0.6259323E+03  0.7818608E-02  0.9853019E-01
          2   -1    0    0  501    0  0.00000000000E+00  0.00000000000E+00  0.16806476659E+04  0.16806476659E+04  0.25500000000E-02 0. -1.
         -2   -1    0    0    0  501 -0.00000000000E+00 -0.00000000000E+00 -0.35582379805E+03  0.35582379806E+03  0.25500000000E-02 0.  1.
    8880022    1    1    2    0    0  0.45875480720E+03  0.39742118672E+03  0.64466889982E+02  0.62924335968E+03  0.15294330000E+03 0.  0.
    8880022    1    1    2    0    0 -0.45875480720E+03 -0.39742118672E+03  0.12603569779E+04  0.14072281043E+04  0.15294330000E+03 0.  0.
<mgrwt>
<rscale>  0 0.62593229E+03</rscale>
<asrwt>0</asrwt>
<pdfrwt beam="1">  1        2 0.25856119E+00 0.62593229E+03</pdfrwt>
<pdfrwt beam="2">  1       -2 0.54742121E-01 0.62593229E+03</pdfrwt>
<totfact> 0.32917366E+01</totfact>
</mgrwt>
</event>
<event>
 4    1  0.1033139E-008  0.8218919E+03  0.7818608E-02  0.9528859E-01
         -2   -1    0    0    0  501 -0.00000000000E+00  0.00000000000E+00  0.80282834059E+03  0.80282834060E+03  0.25500000000E-02 0.  1.
          2   -1    0    0  501    0  0.00000000000E+00 -0.00000000000E+00 -0.15710442570E+04  0.15710442570E+04  0.25500000000E-02 0. -1.
    8880022    1    1    2    0    0  0.86248559099E+02  0.80291704330E+03 -0.11929922174E+04  0.14487017209E+04  0.15294330000E+03 0.  0.
    8880022    1    1    2    0    0 -0.86248559099E+02 -0.80291704330E+03  0.42477630092E+03  0.92517087676E+03  0.15294330000E+03 0.  0.
<mgrwt>
<rscale>  0 0.82189187E+03</rscale>
<asrwt>0</asrwt>
<pdfrwt beam="1">  1        2 0.24169912E+00 0.82189187E+03</pdfrwt>
<pdfrwt beam="2">  1       -2 0.12351205E+00 0.82189187E+03</pdfrwt>
<totfact> 0.58127254E+00</totfact>
</mgrwt>
</event>
<event>
 4    1  0.1033139E-008  0.4967901E+03  0.7818608E-02  0.1014620E+00
          2   -1    0    0  501    0  0.00000000000E+00  0.00000000000E+00  0.97477317632E+03  0.97477317632E+03  0.25500000000E-02 0. -1.
         -2   -1    0    0    0  501 -0.00000000000E+00 -0.00000000000E+00 -0.59668298462E+03  0.59668298462E+03  0.25500000000E-02 0.  1.
    8880022    1    1    2    0    0 -0.45805920294E+03  0.11657832122E+03 -0.40711233109E+03  0.64229342322E+03  0.15294330000E+03 0.  0.
    8880022    1    1    2    0    0  0.45805920294E+03 -0.11657832122E+03  0.78520252279E+03  0.92916273773E+03  0.15294330000E+03 0.  0.
<mgrwt>
<rscale>  0 0.49679009E+03</rscale>
<asrwt>0</asrwt>
<pdfrwt beam="1">  1        2 0.14996510E+00 0.49679009E+03</pdfrwt>
<pdfrwt beam="2">  1       -2 0.91797383E-01 0.49679009E+03</pdfrwt>
<totfact> 0.27649425E+01</totfact>
</mgrwt>
</event>
<event>
 4    1  0.1033139E-008  0.3478990E+03  0.7818608E-02  0.1063481E+00
         -2   -1    0    0    0  501 -0.00000000000E+00  0.00000000000E+00  0.33730534014E+03  0.33730534015E+03  0.25500000000E-02 0.  1.
          2   -1    0    0  501    0  0.00000000000E+00 -0.00000000000E+00 -0.72429219549E+03  0.72429219549E+03  0.25500000000E-02 0. -1.
    8880022    1    1    2    0    0  0.17194519093E+03 -0.26091546291E+03 -0.57054177526E+03  0.66824516294E+03  0.15294330000E+03 0. -1.
    8880022    1    1    2    0    0 -0.17194519093E+03  0.26091546291E+03  0.18355491991E+03  0.39335237270E+03  0.15294330000E+03 0.  1.
<mgrwt>
<rscale>  0 0.34789895E+03</rscale>
<asrwt>0</asrwt>
<pdfrwt beam="1">  1        2 0.11142957E+00 0.34789895E+03</pdfrwt>
<pdfrwt beam="2">  1       -2 0.51893129E-01 0.34789895E+03</pdfrwt>
<totfact> 0.14351929E+02</totfact>
</mgrwt>
</event>
<event>
 4    1  0.1033139E-008  0.7667415E+03  0.7818608E-02  0.9609446E-01
          2   -1    0    0  501    0  0.00000000000E+00  0.00000000000E+00  0.79051678047E+03  0.79051678048E+03  0.25500000000E-02 0. -1.
         -2   -1    0    0    0  501 -0.00000000000E+00 -0.00000000000E+00 -0.17309427803E+04  0.17309427803E+04  0.25500000000E-02 0.  1.
    8880022    1    1    2    0    0 -0.59327206955E+03  0.46100875468E+03  0.48191814745E+03  0.90561447331E+03  0.15294330000E+03 0.  0.
    8880022    1    1    2    0    0  0.59327206955E+03 -0.46100875468E+03 -0.14223441473E+04  0.16158450875E+04  0.15294330000E+03 0.  0.
<mgrwt>
<rscale>  0 0.76674146E+03</rscale>
<asrwt>0</asrwt>
<pdfrwt beam="1">  1        2 0.12161797E+00 0.76674146E+03</pdfrwt>
<pdfrwt beam="2">  1       -2 0.26629889E+00 0.76674146E+03</pdfrwt>
<totfact> 0.18452709E+00</totfact>
</mgrwt>
</event>
<event>
 4    1  0.1033139E-008  0.7938848E+03  0.7818608E-02  0.9568911E-01
          2   -1    0    0  501    0  0.00000000000E+00  0.00000000000E+00  0.23216363546E+04  0.23216363546E+04  0.25500000000E-02 0. -1.
         -2   -1    0    0    0  501 -0.00000000000E+00 -0.00000000000E+00 -0.47183464683E+03  0.47183464684E+03  0.25500000000E-02 0.  1.
    8880022    1    1    2    0    0 -0.54268595216E+03  0.55888578951E+03  0.14714013469E+02  0.79402111030E+03  0.15294330000E+03 0.  0.
    8880022    1    1    2    0    0  0.54268595216E+03 -0.55888578951E+03  0.18350876943E+04  0.19994498912E+04  0.15294330000E+03 0.  0.
<mgrwt>
<rscale>  0 0.79388477E+03</rscale>
<asrwt>0</asrwt>
<pdfrwt beam="1">  1        2 0.35717483E+00 0.79388477E+03</pdfrwt>
<pdfrwt beam="2">  1       -2 0.72589945E-01 0.79388477E+03</pdfrwt>
<totfact> 0.78422558E+00</totfact>
</mgrwt>
</event>
<event>
 4    1  0.1610943E-008  0.1615006E+04  0.7818608E-02  0.8811382E-01
         -2   -1    0    0    0  501 -0.00000000000E+00  0.00000000000E+00  0.19526046750E+04  0.19526046750E+04  0.25500000000E-02 0.  1.
          2   -1    0    0  501    0  0.00000000000E+00 -0.00000000000E+00 -0.26941080803E+04  0.26941080803E+04  0.25500000000E-02 0. -1.
    8880022    1    1    2    0    0 -0.12488439731E+04 -0.10125416792E+04  0.12789719899E+04  0.20601002221E+04  0.15294330000E+03 0.  0.
    8880022    1    1    2    0    0  0.12488439731E+04  0.10125416792E+04 -0.20204753952E+04  0.25866125332E+04  0.15294330000E+03 0.  0.
<mgrwt>
<rscale>  0 0.16150058E+04</rscale>
<asrwt>0</asrwt>
<pdfrwt beam="1">  1        2 0.41447816E+00 0.16150058E+04</pdfrwt>
<pdfrwt beam="2">  1       -2 0.30040072E+00 0.16150058E+04</pdfrwt>
<totfact> 0.78260085E-02</totfact>
</mgrwt>
</event>
<event>
 4    1  0.1033139E-008  0.4897947E+03  0.7818608E-02  0.1016477E+00
          2   -1    0    0  501    0  0.00000000000E+00  0.00000000000E+00  0.57716766794E+03  0.57716766794E+03  0.25500000000E-02 0. -1.
         -2   -1    0    0    0  501 -0.00000000000E+00 -0.00000000000E+00 -0.69837674530E+03  0.69837674530E+03  0.25500000000E-02 0.  1.
    8880022    1    1    2    0    0 -0.44065384818E+03 -0.14943701403E+03 -0.46639822578E+03  0.67633290110E+03  0.15294330000E+03 0.  0.
    8880022    1    1    2    0    0  0.44065384818E+03  0.14943701403E+03  0.34518914842E+03  0.59921151214E+03  0.15294330000E+03 0. -1.
<mgrwt>
<rscale>  0 0.48979474E+03</rscale>
<asrwt>0</asrwt>
<pdfrwt beam="1">  1        2 0.88795026E-01 0.48979474E+03</pdfrwt>
<pdfrwt beam="2">  1       -2 0.10744258E+00 0.48979474E+03</pdfrwt>
<totfact> 0.37494936E+01</totfact>
</mgrwt>
</event>
<event>
 4    1  0.1033139E-008  0.5855586E+03  0.7818608E-02  0.9935829E-01
          2   -1    0    0  501    0  0.00000000000E+00  0.00000000000E+00  0.13062595257E+04  0.13062595257E+04  0.25500000000E-02 0. -1.
         -2   -1    0    0    0  501 -0.00000000000E+00 -0.00000000000E+00 -0.11678511637E+04  0.11678511637E+04  0.25500000000E-02 0.  1.
    8880022    1    1    2    0    0  0.41563167615E+03 -0.38306331412E+03 -0.10199930663E+04  0.11761227407E+04  0.15294330000E+03 0.  0.
    8880022    1    1    2    0    0 -0.41563167615E+03  0.38306331412E+03  0.11584014283E+04  0.12979879487E+04  0.15294330000E+03 0.  0.
<mgrwt>
<rscale>  0 0.58555858E+03</rscale>
<asrwt>0</asrwt>
<pdfrwt beam="1">  1        2 0.20096300E+00 0.58555858E+03</pdfrwt>
<pdfrwt beam="2">  1       -2 0.17966941E+00 0.58555858E+03</pdfrwt>
<totfact> 0.31575202E+00</totfact>
</mgrwt>
</event>
<event>
 4    1  0.1033139E-008  0.9279545E+03  0.7818608E-02  0.9391296E-01
         -2   -1    0    0    0  501 -0.00000000000E+00  0.00000000000E+00  0.10203083997E+04  0.10203083997E+04  0.25500000000E-02 0.  1.
          2   -1    0    0  501    0  0.00000000000E+00 -0.00000000000E+00 -0.10990949998E+04  0.10990949998E+04  0.25500000000E-02 0. -1.
    8880022    1    1    2    0    0 -0.74942315812E+03 -0.52542641827E+03 -0.54995813035E+03  0.10786814122E+04  0.15294330000E+03 0.  0.
    8880022    1    1    2    0    0  0.74942315812E+03  0.52542641827E+03  0.47117153023E+03  0.10407219873E+04  0.15294330000E+03 0.  0.
<mgrwt>
<rscale>  0 0.92795455E+03</rscale>
<asrwt>0</asrwt>
<pdfrwt beam="1">  1        2 0.16909154E+00 0.92795455E+03</pdfrwt>
<pdfrwt beam="2">  1       -2 0.15697052E+00 0.92795455E+03</pdfrwt>
<totfact> 0.57797080E+00</totfact>
</mgrwt>
</event>
<event>
 4    1  0.1033139E-008  0.8270031E+03  0.7818608E-02  0.9521733E-01
         -2   -1    0    0    0  501 -0.00000000000E+00  0.00000000000E+00  0.63779200461E+03  0.63779200461E+03  0.25500000000E-02 0.  1.
          2   -1    0    0  501    0  0.00000000000E+00 -0.00000000000E+00 -0.16701882991E+04  0.16701882991E+04  0.25500000000E-02 0. -1.
    8880022    1    1    2    0    0  0.80369876768E+03 -0.12087533977E+03 -0.12066166414E+04  0.14628253243E+04  0.15294330000E+03 0.  0.
    8880022    1    1    2    0    0 -0.80369876768E+03  0.12087533977E+03  0.17422034696E+03  0.84515497942E+03  0.15294330000E+03 0.  0.
<mgrwt>
<rscale>  0 0.82700315E+03</rscale>
<asrwt>0</asrwt>
<pdfrwt beam="1">  1        2 0.25695204E+00 0.82700315E+03</pdfrwt>
<pdfrwt beam="2">  1       -2 0.98121847E-01 0.82700315E+03</pdfrwt>
<totfact> 0.89549111E+00</totfact>
</mgrwt>
</event>
<event>
 4    1  0.1033139E-008  0.9003947E+03  0.7818608E-02  0.9425088E-01
         -2   -1    0    0    0  501 -0.00000000000E+00  0.00000000000E+00  0.12294026277E+04  0.12294026277E+04  0.25500000000E-02 0.  1.
          2   -1    0    0  501    0  0.00000000000E+00 -0.00000000000E+00 -0.20488440946E+04  0.20488440946E+04  0.25500000000E-02 0. -1.
    8880022    1    1    2    0    0 -0.15928453752E+03  0.87289594177E+03 -0.17595297541E+04  0.19765261187E+04  0.15294330000E+03 0.  0.
    8880022    1    1    2    0    0  0.15928453752E+03 -0.87289594177E+03  0.94008828731E+03  0.13017206037E+04  0.15294330000E+03 0.  0.
<mgrwt>
<rscale>  0 0.90039466E+03</rscale>
<asrwt>0</asrwt>
<pdfrwt beam="1">  1        2 0.31520678E+00 0.90039466E+03</pdfrwt>
<pdfrwt beam="2">  1       -2 0.18913887E+00 0.90039466E+03</pdfrwt>
<totfact> 0.10002643E+00</totfact>
</mgrwt>
</event>
<event>
 4    1  0.1033139E-008  0.3618239E+03  0.7818608E-02  0.1057864E+00
         -2   -1    0    0    0  501 -0.00000000000E+00  0.00000000000E+00  0.94635988583E+02  0.94635988618E+02  0.25500000000E-02 0.  1.
          2   -1    0    0  501    0  0.00000000000E+00 -0.00000000000E+00 -0.21522310990E+04  0.21522310990E+04  0.25500000000E-02 0. -1.
    8880022    1    1    2    0    0  0.15804439543E+03  0.28730965107E+03 -0.17002682800E+04  0.17383408019E+04  0.15294330000E+03 0.  0.
    8880022    1    1    2    0    0 -0.15804439543E+03 -0.28730965107E+03 -0.35732683040E+03  0.50852628571E+03  0.15294330000E+03 0.  0.
<mgrwt>
<rscale>  0 0.36182388E+03</rscale>
<asrwt>0</asrwt>
<pdfrwt beam="1">  1        2 0.33111244E+00 0.36182388E+03</pdfrwt>
<pdfrwt beam="2">  1       -2 0.14559384E-01 0.36182388E+03</pdfrwt>
<totfact> 0.21869761E+02</totfact>
</mgrwt>
</event>
<event>
 4    1  0.1033139E-008  0.9744319E+03  0.7818608E-02  0.9337041E-01
          2   -1    0    0  501    0  0.00000000000E+00  0.00000000000E+00  0.23763566175E+04  0.23763566175E+04  0.25500000000E-02 0. -1.
         -2   -1    0    0    0  501 -0.00000000000E+00 -0.00000000000E+00 -0.88139323598E+03  0.88139323599E+03  0.25500000000E-02 0.  1.
    8880022    1    1    2    0    0  0.80809848877E+03  0.52259222321E+03  0.19518169161E+04  0.21815376976E+04  0.15294330000E+03 0.  0.
    8880022    1    1    2    0    0 -0.80809848877E+03 -0.52259222321E+03 -0.45685353457E+03  0.10762121558E+04  0.15294330000E+03 0.  0.
<mgrwt>
<rscale>  0 0.97443186E+03</rscale>
<asrwt>0</asrwt>
<pdfrwt beam="1">  1        2 0.36559332E+00 0.97443186E+03</pdfrwt>
<pdfrwt beam="2">  1       -2 0.13559896E+00 0.97443186E+03</pdfrwt>
<totfact> 0.16123892E+00</totfact>
</mgrwt>
</event>
<event>
 4    1  0.1033139E-008  0.7519587E+03  0.7818608E-02  0.9632282E-01
          2   -1    0    0  501    0  0.00000000000E+00  0.00000000000E+00  0.26167006733E+04  0.26167006733E+04  0.25500000000E-02 0. -1.
         -2   -1    0    0    0  501 -0.00000000000E+00 -0.00000000000E+00 -0.15750190889E+04  0.15750190889E+04  0.25500000000E-02 0.  1.
    8880022    1    1    2    0    0  0.38305312133E+03 -0.62874522281E+03 -0.14259433008E+04  0.16120658172E+04  0.15294330000E+03 0.  0.
    8880022    1    1    2    0    0 -0.38305312133E+03  0.62874522281E+03  0.24676248851E+04  0.25796539450E+04  0.15294330000E+03 0.  0.
<mgrwt>
<rscale>  0 0.75195871E+03</rscale>
<asrwt>0</asrwt>
<pdfrwt beam="1">  1        2 0.40256933E+00 0.75195871E+03</pdfrwt>
<pdfrwt beam="2">  1       -2 0.24231063E+00 0.75195871E+03</pdfrwt>
<totfact> 0.22817917E-01</totfact>
</mgrwt>
</event>
<event>
 4    1  0.1033139E-008  0.5710592E+03  0.7818608E-02  0.9967337E-01
         -2   -1    0    0    0  501 -0.00000000000E+00  0.00000000000E+00  0.62862680620E+03  0.62862680620E+03  0.25500000000E-02 0.  1.
          2   -1    0    0  501    0  0.00000000000E+00 -0.00000000000E+00 -0.62657245609E+03  0.62657245610E+03  0.25500000000E-02 0. -1.
    8880022    1    1    2    0    0 -0.42559724230E+03 -0.34868891905E+03  0.26135734143E+03  0.62802570637E+03  0.15294330000E+03 0.  0.
    8880022    1    1    2    0    0  0.42559724230E+03  0.34868891905E+03 -0.25930299133E+03  0.62717355593E+03  0.15294330000E+03 0.  0.
<mgrwt>
<rscale>  0 0.57105922E+03</rscale>
<asrwt>0</asrwt>
<pdfrwt beam="1">  1        2 0.96395763E-01 0.57105922E+03</pdfrwt>
<pdfrwt beam="2">  1       -2 0.96711816E-01 0.57105922E+03</pdfrwt>
<totfact> 0.43235059E+01</totfact>
</mgrwt>
</event>
<event>
 4    1  0.1033139E-008  0.6810533E+03  0.7818608E-02  0.9750194E-01
          2   -1    0    0  501    0  0.00000000000E+00  0.00000000000E+00  0.10006601619E+04  0.10006601619E+04  0.25500000000E-02 0. -1.
         -2   -1    0    0    0  501 -0.00000000000E+00 -0.00000000000E+00 -0.70776052102E+03  0.70776052102E+03  0.25500000000E-02 0.  1.
    8880022    1    1    2    0    0  0.64730670238E+03 -0.14641008236E+03  0.64824192417E+03  0.94023992918E+03  0.15294330000E+03 0.  0.
    8880022    1    1    2    0    0 -0.64730670238E+03  0.14641008236E+03 -0.35534228327E+03  0.76818075376E+03  0.15294330000E+03 0.  0.
<mgrwt>
<rscale>  0 0.68105325E+03</rscale>
<asrwt>0</asrwt>
<pdfrwt beam="1">  1        2 0.15394772E+00 0.68105325E+03</pdfrwt>
<pdfrwt beam="2">  1       -2 0.10888623E+00 0.68105325E+03</pdfrwt>
<totfact> 0.17363380E+01</totfact>
</mgrwt>
</event>
<event>
 4    1  0.1033139E-008  0.1309135E+04  0.7818608E-02  0.9022353E-01
         -2   -1    0    0    0  501 -0.00000000000E+00  0.00000000000E+00  0.26783837577E+04  0.26783837577E+04  0.25500000000E-02 0.  1.
          2   -1    0    0  501    0  0.00000000000E+00 -0.00000000000E+00 -0.98668857863E+03  0.98668857863E+03  0.25500000000E-02 0. -1.
    8880022    1    1    2    0    0 -0.47639376018E+03  0.12097481857E+04 -0.24060294651E+03  0.13310608996E+04  0.15294330000E+03 0.  0.
    8880022    1    1    2    0    0  0.47639376018E+03 -0.12097481857E+04  0.19322981256E+04  0.23340114367E+04  0.15294330000E+03 0.  0.
<mgrwt>
<rscale>  0 0.13091346E+04</rscale>
<asrwt>0</asrwt>
<pdfrwt beam="1">  1        2 0.15179825E+00 0.13091346E+04</pdfrwt>
<pdfrwt beam="2">  1       -2 0.41205903E+00 0.13091346E+04</pdfrwt>
<totfact> 0.15445677E-01</totfact>
</mgrwt>
</event>
<event>
 4    1  0.1033139E-008  0.5983225E+03  0.7818608E-02  0.9908892E-01
          2   -1    0    0  501    0  0.00000000000E+00  0.00000000000E+00  0.11551340661E+04  0.11551340661E+04  0.25500000000E-02 0. -1.
         -2   -1    0    0    0  501 -0.00000000000E+00 -0.00000000000E+00 -0.12156642863E+04  0.12156642863E+04  0.25500000000E-02 0.  1.
    8880022    1    1    2    0    0  0.57306873093E+03 -0.78679381775E+02 -0.10534697946E+04  0.12115232051E+04  0.15294330000E+03 0.  1.
    8880022    1    1    2    0    0 -0.57306873093E+03  0.78679381775E+02  0.99293957440E+03  0.11592751472E+04  0.15294330000E+03 0.  0.
<mgrwt>
<rscale>  0 0.59832255E+03</rscale>
<asrwt>0</asrwt>
<pdfrwt beam="1">  1        2 0.17771293E+00 0.59832255E+03</pdfrwt>
<pdfrwt beam="2">  1       -2 0.18702527E+00 0.59832255E+03</pdfrwt>
<totfact> 0.34399663E+00</totfact>
</mgrwt>
</event>
<event>
 4    1  0.1033139E-008  0.8407954E+03  0.7818608E-02  0.9502775E-01
         -2   -1    0    0    0  501 -0.00000000000E+00  0.00000000000E+00  0.28497074289E+03  0.28497074290E+03  0.25500000000E-02 0.  1.
          2   -1    0    0  501    0  0.00000000000E+00 -0.00000000000E+00 -0.45097493328E+04  0.45097493328E+04  0.25500000000E-02 0. -1.
    8880022    1    1    2    0    0 -0.30136235745E+03 -0.76988698234E+03 -0.37204395609E+04  0.38142636793E+04  0.15294330000E+03 0.  0.
    8880022    1    1    2    0    0  0.30136235745E+03  0.76988698234E+03 -0.50433902905E+03  0.98045639643E+03  0.15294330000E+03 0.  0.
<mgrwt>
<rscale>  0 0.84079539E+03</rscale>
<asrwt>0</asrwt>
<pdfrwt beam="1">  1        2 0.69380754E+00 0.84079539E+03</pdfrwt>
<pdfrwt beam="2">  1       -2 0.43841656E-01 0.84079539E+03</pdfrwt>
<totfact> 0.66240482E-01</totfact>
</mgrwt>
</event>
<event>
 4    1  0.1033139E-008  0.4864569E+03  0.7818608E-02  0.1017376E+00
          2   -1    0    0  501    0  0.00000000000E+00  0.00000000000E+00  0.17494182887E+04  0.17494182887E+04  0.25500000000E-02 0. -1.
         -2   -1    0    0    0  501 -0.00000000000E+00 -0.00000000000E+00 -0.31543406977E+03  0.31543406978E+03  0.25500000000E-02 0.  1.
    8880022    1    1    2    0    0  0.52384562882E+02  0.45880768010E+03 -0.63271283681E+02  0.49055431717E+03  0.15294330000E+03 0.  0.
    8880022    1    1    2    0    0 -0.52384562882E+02 -0.45880768010E+03  0.14972555026E+04  0.15742980413E+04  0.15294330000E+03 0.  0.
<mgrwt>
<rscale>  0 0.48645687E+03</rscale>
<asrwt>0</asrwt>
<pdfrwt beam="1">  1        2 0.26914127E+00 0.48645687E+03</pdfrwt>
<pdfrwt beam="2">  1       -2 0.48528319E-01 0.48645687E+03</pdfrwt>
<totfact> 0.39507538E+01</totfact>
</mgrwt>
</event>
<event>
 4    1  0.1033139E-008  0.1445650E+04  0.7818608E-02  0.8921422E-01
          2   -1    0    0  501    0  0.00000000000E+00  0.00000000000E+00  0.38425737946E+04  0.38425737946E+04  0.25500000000E-02 0. -1.
         -2   -1    0    0    0  501 -0.00000000000E+00 -0.00000000000E+00 -0.89738330850E+03  0.89738330850E+03  0.25500000000E-02 0.  1.
    8880022    1    1    2    0    0 -0.14352606228E+04 -0.80871988820E+02  0.29600755062E+04  0.32942301058E+04  0.15294330000E+03 0.  0.
    8880022    1    1    2    0    0  0.14352606228E+04  0.80871988820E+02 -0.14885020111E+02  0.14457269974E+04  0.15294330000E+03 0.  0.
<mgrwt>
<rscale>  0 0.14456504E+04</rscale>
<asrwt>0</asrwt>
<pdfrwt beam="1">  1        2 0.59116520E+00 0.14456504E+04</pdfrwt>
<pdfrwt beam="2">  1       -2 0.13805897E+00 0.14456504E+04</pdfrwt>
<totfact> 0.16412311E-01</totfact>
</mgrwt>
</event>
<event>
 4    1  0.1033139E-008  0.7521896E+03  0.7818608E-02  0.9631921E-01
          2   -1    0    0  501    0  0.00000000000E+00  0.00000000000E+00  0.77684120683E+03  0.77684120683E+03  0.25500000000E-02 0. -1.
         -2   -1    0    0    0  501 -0.00000000000E+00 -0.00000000000E+00 -0.12826984095E+04  0.12826984095E+04  0.25500000000E-02 0.  1.
    8880022    1    1    2    0    0  0.69759159905E+03 -0.23614292788E+03  0.42405934532E+03  0.86349030268E+03  0.15294330000E+03 0.  0.
    8880022    1    1    2    0    0 -0.69759159905E+03  0.23614292788E+03 -0.92991654800E+03  0.11960493137E+04  0.15294330000E+03 0.  0.
<mgrwt>
<rscale>  0 0.75218959E+03</rscale>
<asrwt>0</asrwt>
<pdfrwt beam="1">  1        2 0.11951403E+00 0.75218959E+03</pdfrwt>
<pdfrwt beam="2">  1       -2 0.19733822E+00 0.75218959E+03</pdfrwt>
<totfact> 0.50636245E+00</totfact>
</mgrwt>
</event>
<event>
 4    1  0.1033139E-008  0.4877991E+03  0.7818608E-02  0.1017014E+00
          2   -1    0    0  501    0  0.00000000000E+00  0.00000000000E+00  0.40202230370E+03  0.40202230371E+03  0.25500000000E-02 0. -1.
         -2   -1    0    0    0  501 -0.00000000000E+00 -0.00000000000E+00 -0.34797664815E+04  0.34797664815E+04  0.25500000000E-02 0.  1.
    8880022    1    1    2    0    0 -0.46314538127E+03 -0.72543547361E+01  0.22926977982E+03  0.53899216581E+03  0.15294330000E+03 0.  0.
    8880022    1    1    2    0    0  0.46314538127E+03  0.72543547361E+01 -0.33070139576E+04  0.33427966194E+04  0.15294330000E+03 0.  1.
<mgrwt>
<rscale>  0 0.48779906E+03</rscale>
<asrwt>0</asrwt>
<pdfrwt beam="1">  1        2 0.61849587E-01 0.48779906E+03</pdfrwt>
<pdfrwt beam="2">  1       -2 0.53534867E+00 0.48779906E+03</pdfrwt>
<totfact> 0.89720509E-02</totfact>
</mgrwt>
</event>
<event>
 4    1  0.1033139E-008  0.6185278E+03  0.7818608E-02  0.9867695E-01
          2   -1    0    0  501    0  0.00000000000E+00  0.00000000000E+00  0.78518939646E+03  0.78518939646E+03  0.25500000000E-02 0. -1.
         -2   -1    0    0    0  501 -0.00000000000E+00 -0.00000000000E+00 -0.97545248661E+03  0.97545248661E+03  0.25500000000E-02 0.  1.
    8880022    1    1    2    0    0  0.43171246476E+03 -0.41570346159E+03  0.52765877356E+03  0.81301934450E+03  0.15294330000E+03 0.  0.
    8880022    1    1    2    0    0 -0.43171246476E+03  0.41570346159E+03 -0.71792186371E+03  0.94762253857E+03  0.15294330000E+03 0.  0.
<mgrwt>
<rscale>  0 0.61852783E+03</rscale>
<asrwt>0</asrwt>
<pdfrwt beam="1">  1        2 0.12079837E+00 0.61852783E+03</pdfrwt>
<pdfrwt beam="2">  1       -2 0.15006961E+00 0.61852783E+03</pdfrwt>
<totfact> 0.10910528E+01</totfact>
</mgrwt>
</event>
<event>
 4    1  0.1033139E-008  0.6399768E+03  0.7818608E-02  0.9825771E-01
         -2   -1    0    0    0  501 -0.00000000000E+00  0.00000000000E+00  0.52274556929E+03  0.52274556930E+03  0.25500000000E-02 0.  1.
          2   -1    0    0  501    0  0.00000000000E+00 -0.00000000000E+00 -0.16536988344E+04  0.16536988344E+04  0.25500000000E-02 0. -1.
    8880022    1    1    2    0    0  0.20636357898E+03  0.58616778466E+03  0.22392687393E+03  0.67802175215E+03  0.15294330000E+03 0.  0.
    8880022    1    1    2    0    0 -0.20636357898E+03 -0.58616778466E+03 -0.13548801391E+04  0.14984226516E+04  0.15294330000E+03 0.  0.
<mgrwt>
<rscale>  0 0.63997676E+03</rscale>
<asrwt>0</asrwt>
<pdfrwt beam="1">  1        2 0.25441520E+00 0.63997676E+03</pdfrwt>
<pdfrwt beam="2">  1       -2 0.80422396E-01 0.63997676E+03</pdfrwt>
<totfact> 0.14838600E+01</totfact>
</mgrwt>
</event>
<event>
 4    1  0.1033139E-008  0.4649285E+03  0.7818608E-02  0.1023361E+00
         -2   -1    0    0    0  501 -0.00000000000E+00  0.00000000000E+00  0.14669241822E+04  0.14669241822E+04  0.25500000000E-02 0.  1.
          2   -1    0    0  501    0  0.00000000000E+00 -0.00000000000E+00 -0.24695547552E+03  0.24695547553E+03  0.25500000000E-02 0. -1.
    8880022    1    1    2    0    0  0.11860259285E+03 -0.42272959377E+03  0.65767713531E+02  0.46955716333E+03  0.15294330000E+03 0.  0.
    8880022    1    1    2    0    0 -0.11860259285E+03  0.42272959377E+03  0.11542009932E+04  0.12443224944E+04  0.15294330000E+03 0.  0.
<mgrwt>
<rscale>  0 0.46492853E+03</rscale>
<asrwt>0</asrwt>
<pdfrwt beam="1">  1        2 0.37993150E-01 0.46492853E+03</pdfrwt>
<pdfrwt beam="2">  1       -2 0.22568065E+00 0.46492853E+03</pdfrwt>
<totfact> 0.13121124E+01</totfact>
</mgrwt>
</event>
<event>
 4    1  0.1033139E-008  0.1262631E+04  0.7818608E-02  0.9059736E-01
          2   -1    0    0  501    0  0.00000000000E+00  0.00000000000E+00  0.16749022721E+04  0.16749022721E+04  0.25500000000E-02 0. -1.
         -2   -1    0    0    0  501 -0.00000000000E+00 -0.00000000000E+00 -0.22546808513E+04  0.22546808513E+04  0.25500000000E-02 0.  1.
    8880022    1    1    2    0    0 -0.75170557877E+03 -0.10028874534E+04  0.12036612013E+04  0.17444301253E+04  0.15294330000E+03 0.  0.
    8880022    1    1    2    0    0  0.75170557877E+03  0.10028874534E+04 -0.17834397806E+04  0.21851529982E+04  0.15294330000E+03 0.  0.
<mgrwt>
<rscale>  0 0.12626307E+04</rscale>
<asrwt>0</asrwt>
<pdfrwt beam="1">  1        2 0.25767727E+00 0.12626307E+04</pdfrwt>
<pdfrwt beam="2">  1       -2 0.34687398E+00 0.12626307E+04</pdfrwt>
<totfact> 0.16005696E-01</totfact>
</mgrwt>
</event>
<event>
 4    1  0.1033139E-008  0.3314292E+03  0.7818608E-02  0.1070506E+00
          2   -1    0    0  501    0  0.00000000000E+00  0.00000000000E+00  0.36222603722E+03  0.36222603723E+03  0.25500000000E-02 0. -1.
         -2   -1    0    0    0  501 -0.00000000000E+00 -0.00000000000E+00 -0.32321346542E+03  0.32321346543E+03  0.25500000000E-02 0.  1.
    8880022    1    1    2    0    0  0.82918069086E+02  0.28209619096E+03  0.10467971615E+03  0.34756749434E+03  0.15294330000E+03 0.  0.
    8880022    1    1    2    0    0 -0.82918069086E+02 -0.28209619096E+03 -0.65667144344E+02  0.33787200831E+03  0.15294330000E+03 0.  1.
<mgrwt>
<rscale>  0 0.33142921E+03</rscale>
<asrwt>0</asrwt>
<pdfrwt beam="1">  1        2 0.55727082E-01 0.33142921E+03</pdfrwt>
<pdfrwt beam="2">  1       -2 0.49725149E-01 0.33142921E+03</pdfrwt>
<totfact> 0.34709200E+02</totfact>
</mgrwt>
</event>
<event>
 4    1  0.1033139E-008  0.7743252E+03  0.7818608E-02  0.9597942E-01
         -2   -1    0    0    0  501 -0.00000000000E+00  0.00000000000E+00  0.47270316206E+03  0.47270316207E+03  0.25500000000E-02 0.  1.
          2   -1    0    0  501    0  0.00000000000E+00 -0.00000000000E+00 -0.42520384671E+04  0.42520384671E+04  0.25500000000E-02 0. -1.
    8880022    1    1    2    0    0  0.18910127763E+03  0.73513846747E+03  0.89224565250E+02  0.77944886658E+03  0.15294330000E+03 0.  0.
    8880022    1    1    2    0    0 -0.18910127763E+03 -0.73513846747E+03 -0.38685598703E+04  0.39452927626E+04  0.15294330000E+03 0.  0.
<mgrwt>
<rscale>  0 0.77432520E+03</rscale>
<asrwt>0</asrwt>
<pdfrwt beam="1">  1        2 0.65415974E+00 0.77432520E+03</pdfrwt>
<pdfrwt beam="2">  1       -2 0.72723566E-01 0.77432520E+03</pdfrwt>
<totfact> 0.40112321E-01</totfact>
</mgrwt>
</event>
<event>
 4    1  0.1033139E-008  0.1054549E+04  0.7818608E-02  0.9250660E-01
          2   -1    0    0  501    0  0.00000000000E+00  0.00000000000E+00  0.37018925356E+04  0.37018925356E+04  0.25500000000E-02 0. -1.
         -2   -1    0    0    0  501 -0.00000000000E+00 -0.00000000000E+00 -0.41063781144E+03  0.41063781145E+03  0.25500000000E-02 0.  1.
    8880022    1    1    2    0    0  0.59863087845E+03  0.85458951182E+03  0.27109998600E+04  0.29088819255E+04  0.15294330000E+03 0.  0.
    8880022    1    1    2    0    0 -0.59863087845E+03 -0.85458951182E+03  0.58025486409E+03  0.12036484215E+04  0.15294330000E+03 0.  0.
<mgrwt>
<rscale>  0 0.10545491E+04</rscale>
<asrwt>0</asrwt>
<pdfrwt beam="1">  1        2 0.56952196E+00 0.10545491E+04</pdfrwt>
<pdfrwt beam="2">  1       -2 0.63175044E-01 0.10545491E+04</pdfrwt>
<totfact> 0.13955613E+00</totfact>
</mgrwt>
</event>
<event>
 4    1  0.1033139E-008  0.7882598E+03  0.7818608E-02  0.9577168E-01
         -2   -1    0    0    0  501 -0.00000000000E+00  0.00000000000E+00  0.10656231767E+04  0.10656231768E+04  0.25500000000E-02 0.  1.
          2   -1    0    0  501    0  0.00000000000E+00 -0.00000000000E+00 -0.10650304979E+04  0.10650304979E+04  0.25500000000E-02 0. -1.
    8880022    1    1    2    0    0 -0.31401259240E+02 -0.77264205512E+03 -0.71634009894E+03  0.10651274923E+04  0.15294330000E+03 0.  0.
    8880022    1    1    2    0    0  0.31401259240E+02  0.77264205512E+03  0.71693277780E+03  0.10655261824E+04  0.15294330000E+03 0.  0.
<mgrwt>
<rscale>  0 0.78825975E+03</rscale>
<asrwt>0</asrwt>
<pdfrwt beam="1">  1        2 0.16385085E+00 0.78825975E+03</pdfrwt>
<pdfrwt beam="2">  1       -2 0.16394203E+00 0.78825975E+03</pdfrwt>
<totfact> 0.54804454E+00</totfact>
</mgrwt>
</event>
<event>
 4    1  0.1033139E-008  0.7463905E+03  0.7818608E-02  0.9641030E-01
         -2   -1    0    0    0  501 -0.00000000000E+00  0.00000000000E+00  0.57052595318E+03  0.57052595318E+03  0.25500000000E-02 0.  1.
          2   -1    0    0  501    0  0.00000000000E+00 -0.00000000000E+00 -0.15737893942E+04  0.15737893942E+04  0.25500000000E-02 0. -1.
    8880022    1    1    2    0    0 -0.42368753401E+03 -0.59514372231E+03 -0.11621583731E+04  0.13811990855E+04  0.15294330000E+03 0.  0.
    8880022    1    1    2    0    0  0.42368753401E+03  0.59514372231E+03  0.15889493207E+03  0.76311626187E+03  0.15294330000E+03 0.  0.
<mgrwt>
<rscale>  0 0.74639053E+03</rscale>
<asrwt>0</asrwt>
<pdfrwt beam="1">  1        2 0.24212144E+00 0.74639053E+03</pdfrwt>
<pdfrwt beam="2">  1       -2 0.87773224E-01 0.74639053E+03</pdfrwt>
<totfact> 0.13254598E+01</totfact>
</mgrwt>
</event>
<event>
 4    1  0.1033139E-008  0.4211152E+03  0.7818608E-02  0.1036704E+00
         -2   -1    0    0    0  501 -0.00000000000E+00  0.00000000000E+00  0.76254680231E+03  0.76254680231E+03  0.25500000000E-02 0.  1.
          2   -1    0    0  501    0  0.00000000000E+00 -0.00000000000E+00 -0.32136197453E+03  0.32136197454E+03  0.25500000000E-02 0. -1.
    8880022    1    1    2    0    0  0.26243390753E+02 -0.39148138472E+03 -0.64296989493E+02  0.42599547652E+03  0.15294330000E+03 0.  0.
    8880022    1    1    2    0    0 -0.26243390753E+02  0.39148138472E+03  0.50548181727E+03  0.65791330033E+03  0.15294330000E+03 0.  0.
<mgrwt>
<rscale>  0 0.42111524E+03</rscale>
<asrwt>0</asrwt>
<pdfrwt beam="1">  1        2 0.49440304E-01 0.42111524E+03</pdfrwt>
<pdfrwt beam="2">  1       -2 0.11731489E+00 0.42111524E+03</pdfrwt>
<totfact> 0.59083459E+01</totfact>
</mgrwt>
</event>
<event>
 4    1  0.1033139E-008  0.1212601E+04  0.7818608E-02  0.9101898E-01
          2   -1    0    0  501    0  0.00000000000E+00  0.00000000000E+00  0.16146228798E+04  0.16146228798E+04  0.25500000000E-02 0. -1.
         -2   -1    0    0    0  501 -0.00000000000E+00 -0.00000000000E+00 -0.98594962856E+03  0.98594962857E+03  0.25500000000E-02 0.  1.
    8880022    1    1    2    0    0 -0.66659533053E+03 -0.10013292755E+04 -0.44938933072E+02  0.12134334812E+04  0.15294330000E+03 0.  0.
    8880022    1    1    2    0    0  0.66659533053E+03  0.10013292755E+04  0.67361218429E+03  0.13871390271E+04  0.15294330000E+03 0.  0.
<mgrwt>
<rscale>  0 0.12126010E+04</rscale>
<asrwt>0</asrwt>
<pdfrwt beam="1">  1        2 0.24840352E+00 0.12126010E+04</pdfrwt>
<pdfrwt beam="2">  1       -2 0.15168456E+00 0.12126010E+04</pdfrwt>
<totfact> 0.30897044E+00</totfact>
</mgrwt>
</event>
<event>
 4    1  0.1033139E-008  0.1823700E+04  0.7818608E-02  0.8693797E-01
         -2   -1    0    0    0  501 -0.00000000000E+00  0.00000000000E+00  0.17051019141E+04  0.17051019141E+04  0.25500000000E-02 0.  1.
          2   -1    0    0  501    0  0.00000000000E+00 -0.00000000000E+00 -0.25223822322E+04  0.25223822322E+04  0.25500000000E-02 0. -1.
    8880022    1    1    2    0    0 -0.15113960906E+04 -0.10090444734E+04 -0.14150669594E+04  0.23083099975E+04  0.15294330000E+03 0.  0.
    8880022    1    1    2    0    0  0.15113960906E+04  0.10090444734E+04  0.59778664128E+03  0.19191741488E+04  0.15294330000E+03 0.  0.
<mgrwt>
<rscale>  0 0.18236997E+04</rscale>
<asrwt>0</asrwt>
<pdfrwt beam="1">  1        2 0.38805881E+00 0.18236997E+04</pdfrwt>
<pdfrwt beam="2">  1       -2 0.26232337E+00 0.18236997E+04</pdfrwt>
<totfact> 0.16494108E-01</totfact>
</mgrwt>
</event>
<event>
 4    1  0.1033139E-008  0.5479663E+03  0.7818608E-02  0.1001966E+00
          2   -1    0    0  501    0  0.00000000000E+00  0.00000000000E+00  0.86415182720E+03  0.86415182721E+03  0.25500000000E-02 0. -1.
         -2   -1    0    0    0  501 -0.00000000000E+00 -0.00000000000E+00 -0.17057232794E+04  0.17057232794E+04  0.25500000000E-02 0.  1.
    8880022    1    1    2    0    0  0.17864518911E+03  0.49493562663E+03  0.72583048728E+03  0.90944869420E+03  0.15294330000E+03 0.  0.
    8880022    1    1    2    0    0 -0.17864518911E+03 -0.49493562663E+03 -0.15674019395E+04  0.16604264124E+04  0.15294330000E+03 0.  0.
<mgrwt>
<rscale>  0 0.54796627E+03</rscale>
<asrwt>0</asrwt>
<pdfrwt beam="1">  1        2 0.13294644E+00 0.54796627E+03</pdfrwt>
<pdfrwt beam="2">  1       -2 0.26241897E+00 0.54796627E+03</pdfrwt>
<totfact> 0.18025294E+00</totfact>
</mgrwt>
</event>
<event>
 4    1  0.1033139E-008  0.1149791E+04  0.7818608E-02  0.9157977E-01
         -2   -1    0    0    0  501 -0.00000000000E+00  0.00000000000E+00  0.13634450426E+04  0.13634450426E+04  0.25500000000E-02 0.  1.
          2   -1    0    0  501    0  0.00000000000E+00 -0.00000000000E+00 -0.16769369460E+04  0.16769369460E+04  0.25500000000E-02 0. -1.
    8880022    1    1    2    0    0 -0.38920428244E+03 -0.10710494399E+04 -0.11440432718E+04  0.16219906094E+04  0.15294330000E+03 0.  0.
    8880022    1    1    2    0    0  0.38920428244E+03  0.10710494399E+04  0.83055136839E+03  0.14183913793E+04  0.15294330000E+03 0.  0.
<mgrwt>
<rscale>  0 0.11497906E+04</rscale>
<asrwt>0</asrwt>
<pdfrwt beam="1">  1        2 0.25799030E+00 0.11497906E+04</pdfrwt>
<pdfrwt beam="2">  1       -2 0.20976078E+00 0.11497906E+04</pdfrwt>
<totfact> 0.11330700E+00</totfact>
</mgrwt>
</event>
<event>
 4    1  0.1033139E-008  0.4799996E+03  0.7818608E-02  0.1019135E+00
         -2   -1    0    0    0  501 -0.00000000000E+00  0.00000000000E+00  0.32236847090E+03  0.32236847091E+03  0.25500000000E-02 0.  1.
          2   -1    0    0  501    0  0.00000000000E+00 -0.00000000000E+00 -0.18787846361E+04  0.18787846361E+04  0.25500000000E-02 0. -1.
    8880022    1    1    2    0    0 -0.10919812805E+03 -0.44168284143E+03  0.88100015421E+02  0.48801765267E+03  0.15294330000E+03 0.  0.
    8880022    1    1    2    0    0  0.10919812805E+03  0.44168284143E+03 -0.16445161806E+04  0.17131354544E+04  0.15294330000E+03 0.  0.
<mgrwt>
<rscale>  0 0.47999960E+03</rscale>
<asrwt>0</asrwt>
<pdfrwt beam="1">  1        2 0.28904378E+00 0.47999960E+03</pdfrwt>
<pdfrwt beam="2">  1       -2 0.49595151E-01 0.47999960E+03</pdfrwt>
<totfact> 0.32263687E+01</totfact>
</mgrwt>
</event>
<event>
 4    1  0.1033139E-008  0.1311720E+04  0.7818608E-02  0.9020323E-01
         -2   -1    0    0    0  501 -0.00000000000E+00  0.00000000000E+00  0.79292027697E+03  0.79292027697E+03  0.25500000000E-02 0.  1.
          2   -1    0    0  501    0  0.00000000000E+00 -0.00000000000E+00 -0.22676608972E+04  0.22676608972E+04  0.25500000000E-02 0. -1.
    8880022    1    1    2    0    0  0.33780588492E+03 -0.12582147562E+04 -0.10550022415E+04  0.16833414898E+04  0.15294330000E+03 0.  0.
    8880022    1    1    2    0    0 -0.33780588492E+03  0.12582147562E+04 -0.41973837870E+03  0.13772396844E+04  0.15294330000E+03 0.  0.
<mgrwt>
<rscale>  0 0.13117198E+04</rscale>
<asrwt>0</asrwt>
<pdfrwt beam="1">  1        2 0.34887090E+00 0.13117198E+04</pdfrwt>
<pdfrwt beam="2">  1       -2 0.12198774E+00 0.13117198E+04</pdfrwt>
<totfact> 0.23291293E+00</totfact>
</mgrwt>
</event>
<event>
 4    1  0.1033139E-008  0.5912729E+03  0.7818608E-02  0.9923679E-01
         -2   -1    0    0    0  501 -0.00000000000E+00  0.00000000000E+00  0.51068801305E+03  0.51068801305E+03  0.25500000000E-02 0.  1.
          2   -1    0    0  501    0  0.00000000000E+00 -0.00000000000E+00 -0.13444388936E+04  0.13444388936E+04  0.25500000000E-02 0. -1.
    8880022    1    1    2    0    0 -0.36242285296E+03 -0.44143144168E+03  0.23295587021E+03  0.63550934889E+03  0.15294330000E+03 0.  0.
    8880022    1    1    2    0    0  0.36242285296E+03  0.44143144168E+03 -0.10667067507E+04  0.12196175577E+04  0.15294330000E+03 0.  0.
<mgrwt>
<rscale>  0 0.59127294E+03</rscale>
<asrwt>0</asrwt>
<pdfrwt beam="1">  1        2 0.20683675E+00 0.59127294E+03</pdfrwt>
<pdfrwt beam="2">  1       -2 0.78567387E-01 0.59127294E+03</pdfrwt>
<totfact> 0.23371375E+01</totfact>
</mgrwt>
</event>
<event>
 4    1  0.1033139E-008  0.1004134E+04  0.7818608E-02  0.9304022E-01
         -2   -1    0    0    0  501 -0.00000000000E+00  0.00000000000E+00  0.23903408816E+04  0.23903408817E+04  0.25500000000E-02 0.  1.
          2   -1    0    0  501    0  0.00000000000E+00 -0.00000000000E+00 -0.59857171734E+03  0.59857171734E+03  0.25500000000E-02 0. -1.
    8880022    1    1    2    0    0  0.27781901259E+03 -0.95273823858E+03  0.83781323392E+02  0.10076232025E+04  0.15294330000E+03 0.  0.
    8880022    1    1    2    0    0 -0.27781901259E+03  0.95273823858E+03  0.17079878409E+04  0.19812893965E+04  0.15294330000E+03 0.  0.
<mgrwt>
<rscale>  0 0.10041341E+04</rscale>
<asrwt>0</asrwt>
<pdfrwt beam="1">  1        2 0.92087957E-01 0.10041341E+04</pdfrwt>
<pdfrwt beam="2">  1       -2 0.36774475E+00 0.10041341E+04</pdfrwt>
<totfact> 0.60614524E-01</totfact>
</mgrwt>
</event>
<event>
 4    1  0.1033139E-008  0.8114521E+03  0.7818608E-02  0.9543587E-01
          2   -1    0    0  501    0  0.00000000000E+00  0.00000000000E+00  0.14524224018E+04  0.14524224019E+04  0.25500000000E-02 0. -1.
         -2   -1    0    0    0  501 -0.00000000000E+00 -0.00000000000E+00 -0.89855859702E+03  0.89855859703E+03  0.25500000000E-02 0.  1.
    8880022    1    1    2    0    0 -0.48912190793E+03  0.62914429799E+03  0.11043559025E+04  0.13704219792E+04  0.15294330000E+03 0.  0.
    8880022    1    1    2    0    0  0.48912190793E+03 -0.62914429799E+03 -0.55049209770E+03  0.98055901972E+03  0.15294330000E+03 0.  0.
<mgrwt>
<rscale>  0 0.81145206E+03</rscale>
<asrwt>0</asrwt>
<pdfrwt beam="1">  1        2 0.22344960E+00 0.81145206E+03</pdfrwt>
<pdfrwt beam="2">  1       -2 0.13823979E+00 0.81145206E+03</pdfrwt>
<totfact> 0.50934354E+00</totfact>
</mgrwt>
</event>
<event>
 4    1  0.1033139E-008  0.4628775E+03  0.7818608E-02  0.1023950E+00
          2   -1    0    0  501    0  0.00000000000E+00  0.00000000000E+00  0.26907379907E+04  0.26907379907E+04  0.25500000000E-02 0. -1.
         -2   -1    0    0    0  501 -0.00000000000E+00 -0.00000000000E+00 -0.12141888593E+03  0.12141888596E+03  0.25500000000E-02 0.  1.
    8880022    1    1    2    0    0  0.38752633444E+03 -0.20171083476E+03  0.45973911281E+03  0.65239223294E+03  0.15294330000E+03 0.  0.
    8880022    1    1    2    0    0 -0.38752633444E+03  0.20171083476E+03  0.21095799919E+04  0.21597646437E+04  0.15294330000E+03 0.  0.
<mgrwt>
<rscale>  0 0.46287749E+03</rscale>
<asrwt>0</asrwt>
<pdfrwt beam="1">  1        2 0.41395968E+00 0.46287749E+03</pdfrwt>
<pdfrwt beam="2">  1       -2 0.18679829E-01 0.46287749E+03</pdfrwt>
<totfact> 0.70873115E+01</totfact>
</mgrwt>
</event>
<event>
 4    1  0.1033139E-008  0.5056875E+03  0.7818608E-02  0.1012305E+00
         -2   -1    0    0    0  501 -0.00000000000E+00  0.00000000000E+00  0.43259024639E+03  0.43259024640E+03  0.25500000000E-02 0.  1.
          2   -1    0    0  501    0  0.00000000000E+00 -0.00000000000E+00 -0.11141753562E+04  0.11141753562E+04  0.25500000000E-02 0. -1.
    8880022    1    1    2    0    0 -0.25421526871E+03  0.40951527685E+03  0.18909628904E+03  0.53988630689E+03  0.15294330000E+03 0.  0.
    8880022    1    1    2    0    0  0.25421526871E+03 -0.40951527685E+03 -0.87068139883E+03  0.10068792957E+04  0.15294330000E+03 0.  0.
<mgrwt>
<rscale>  0 0.50568747E+03</rscale>
<asrwt>0</asrwt>
<pdfrwt beam="1">  1        2 0.17141159E+00 0.50568747E+03</pdfrwt>
<pdfrwt beam="2">  1       -2 0.66552346E-01 0.50568747E+03</pdfrwt>
<totfact> 0.46308573E+01</totfact>
</mgrwt>
</event>
<event>
 4    1  0.1215306E-008  0.1863856E+04  0.7818608E-02  0.8673060E-01
         -2   -1    0    0    0  501 -0.00000000000E+00  0.00000000000E+00  0.23037033188E+04  0.23037033188E+04  0.25500000000E-02 0.  1.
          2   -1    0    0  501    0  0.00000000000E+00 -0.00000000000E+00 -0.25779372691E+04  0.25779372691E+04  0.25500000000E-02 0. -1.
    8880022    1    1    2    0    0 -0.18565380828E+04 -0.61908055094E+02  0.14353485845E+04  0.23524845318E+04  0.15294330000E+03 0.  0.
    8880022    1    1    2    0    0  0.18565380828E+04  0.61908055094E+02 -0.17095825348E+04  0.25291560562E+04  0.15294330000E+03 0.  0.
<mgrwt>
<rscale>  0 0.18638557E+04</rscale>
<asrwt>0</asrwt>
<pdfrwt beam="1">  1        2 0.39660574E+00 0.18638557E+04</pdfrwt>
<pdfrwt beam="2">  1       -2 0.35441589E+00 0.18638557E+04</pdfrwt>
<totfact> 0.41025288E-02</totfact>
</mgrwt>
</event>
<event>
 4    1  0.1033139E-008  0.7751821E+03  0.7818608E-02  0.9596651E-01
          2   -1    0    0  501    0  0.00000000000E+00  0.00000000000E+00  0.12515525577E+04  0.12515525577E+04  0.25500000000E-02 0. -1.
         -2   -1    0    0    0  501 -0.00000000000E+00 -0.00000000000E+00 -0.11387339321E+04  0.11387339321E+04  0.25500000000E-02 0.  1.
    8880022    1    1    2    0    0 -0.26866483872E+03 -0.71086904093E+03 -0.85250129258E+03  0.11522437658E+04  0.15294330000E+03 0.  0.
    8880022    1    1    2    0    0  0.26866483872E+03  0.71086904093E+03  0.96531991816E+03  0.12380427240E+04  0.15294330000E+03 0.  0.
<mgrwt>
<rscale>  0 0.77518207E+03</rscale>
<asrwt>0</asrwt>
<pdfrwt beam="1">  1        2 0.19254655E+00 0.77518207E+03</pdfrwt>
<pdfrwt beam="2">  1       -2 0.17518984E+00 0.77518207E+03</pdfrwt>
<totfact> 0.35286234E+00</totfact>
</mgrwt>
</event>
<event>
 4    1  0.1033139E-008  0.3666115E+03  0.7818608E-02  0.1055996E+00
          2   -1    0    0  501    0  0.00000000000E+00  0.00000000000E+00  0.20140145229E+04  0.20140145229E+04  0.25500000000E-02 0. -1.
         -2   -1    0    0    0  501 -0.00000000000E+00 -0.00000000000E+00 -0.10142255756E+03  0.10142255759E+03  0.25500000000E-02 0.  1.
    8880022    1    1    2    0    0  0.22290364996E+03  0.24764151384E+03  0.15748727190E+04  0.16169811658E+04  0.15294330000E+03 0.  0.
    8880022    1    1    2    0    0 -0.22290364996E+03 -0.24764151384E+03  0.33771924642E+03  0.49845591476E+03  0.15294330000E+03 0.  1.
<mgrwt>
<rscale>  0 0.36661152E+03</rscale>
<asrwt>0</asrwt>
<pdfrwt beam="1">  1        2 0.30984837E+00 0.36661152E+03</pdfrwt>
<pdfrwt beam="2">  1       -2 0.15603472E-01 0.36661152E+03</pdfrwt>
<totfact> 0.23071544E+02</totfact>
</mgrwt>
</event>
<event>
 4    1  0.1033139E-008  0.7769876E+03  0.7818608E-02  0.9593937E-01
         -2   -1    0    0    0  501 -0.00000000000E+00  0.00000000000E+00  0.40698087349E+03  0.40698087350E+03  0.25500000000E-02 0.  1.
          2   -1    0    0  501    0  0.00000000000E+00 -0.00000000000E+00 -0.35008485731E+04  0.35008485731E+04  0.25500000000E-02 0. -1.
    8880022    1    1    2    0    0 -0.96561431303E+02  0.75564139575E+03 -0.30302089232E+04  0.31282384501E+04  0.15294330000E+03 0.  0.
    8880022    1    1    2    0    0  0.96561431303E+02 -0.75564139575E+03 -0.63658776336E+02  0.77959099649E+03  0.15294330000E+03 0.  0.
<mgrwt>
<rscale>  0 0.77698757E+03</rscale>
<asrwt>0</asrwt>
<pdfrwt beam="1">  1        2 0.53859207E+00 0.77698757E+03</pdfrwt>
<pdfrwt beam="2">  1       -2 0.62612444E-01 0.77698757E+03</pdfrwt>
<totfact> 0.20759951E+00</totfact>
</mgrwt>
</event>
<event>
 4    1  0.1033139E-008  0.1011005E+04  0.7818608E-02  0.9296557E-01
         -2   -1    0    0    0  501 -0.00000000000E+00  0.00000000000E+00  0.58944306843E+03  0.58944306843E+03  0.25500000000E-02 0.  1.
          2   -1    0    0  501    0  0.00000000000E+00 -0.00000000000E+00 -0.33694790302E+04  0.33694790302E+04  0.25500000000E-02 0. -1.
    8880022    1    1    2    0    0 -0.94923077308E+03  0.31256978971E+03 -0.10968359921E+02  0.10110642373E+04  0.15294330000E+03 0.  0.
    8880022    1    1    2    0    0  0.94923077308E+03 -0.31256978971E+03 -0.27690676019E+04  0.29478578613E+04  0.15294330000E+03 0.  0.
<mgrwt>
<rscale>  0 0.10110047E+04</rscale>
<asrwt>0</asrwt>
<pdfrwt beam="1">  1        2 0.51838138E+00 0.10110047E+04</pdfrwt>
<pdfrwt beam="2">  1       -2 0.90683551E-01 0.10110047E+04</pdfrwt>
<totfact> 0.10681244E+00</totfact>
</mgrwt>
</event>
<event>
 4    1  0.1033139E-008  0.1181945E+04  0.7818608E-02  0.9128808E-01
         -2   -1    0    0    0  501 -0.00000000000E+00  0.00000000000E+00  0.11047393267E+04  0.11047393267E+04  0.25500000000E-02 0.  1.
          2   -1    0    0  501    0  0.00000000000E+00 -0.00000000000E+00 -0.20924641529E+04  0.20924641529E+04  0.25500000000E-02 0. -1.
    8880022    1    1    2    0    0 -0.59131093318E+03  0.10119063438E+04 -0.14994148601E+04  0.19092510689E+04  0.15294330000E+03 0.  0.
    8880022    1    1    2    0    0  0.59131093318E+03 -0.10119063438E+04  0.51169003391E+03  0.12879524107E+04  0.15294330000E+03 0.  0.
<mgrwt>
<rscale>  0 0.11819453E+04</rscale>
<asrwt>0</asrwt>
<pdfrwt beam="1">  1        2 0.32191756E+00 0.11819453E+04</pdfrwt>
<pdfrwt beam="2">  1       -2 0.16995990E+00 0.11819453E+04</pdfrwt>
<totfact> 0.12335578E+00</totfact>
</mgrwt>
</event>
<event>
 4    1  0.1033139E-008  0.3371974E+03  0.7818608E-02  0.1067996E+00
          2   -1    0    0  501    0  0.00000000000E+00  0.00000000000E+00  0.12291153472E+04  0.12291153472E+04  0.25500000000E-02 0. -1.
         -2   -1    0    0    0  501 -0.00000000000E+00 -0.00000000000E+00 -0.33090794684E+03  0.33090794685E+03  0.25500000000E-02 0.  1.
    8880022    1    1    2    0    0  0.10272580458E+03 -0.28241426980E+03 -0.21296226381E+03  0.39881698753E+03  0.15294330000E+03 0.  0.
    8880022    1    1    2    0    0 -0.10272580458E+03  0.28241426980E+03  0.11111696642E+04  0.11612063065E+04  0.15294330000E+03 0.  0.
<mgrwt>
<rscale>  0 0.33719737E+03</rscale>
<asrwt>0</asrwt>
<pdfrwt beam="1">  1        2 0.18909466E+00 0.33719737E+03</pdfrwt>
<pdfrwt beam="2">  1       -2 0.50908916E-01 0.33719737E+03</pdfrwt>
<totfact> 0.71222562E+01</totfact>
</mgrwt>
</event>
<event>
 4    1  0.1033139E-008  0.6435386E+03  0.7818608E-02  0.9818980E-01
          2   -1    0    0  501    0  0.00000000000E+00  0.00000000000E+00  0.16584529997E+04  0.16584529997E+04  0.25500000000E-02 0. -1.
         -2   -1    0    0    0  501 -0.00000000000E+00 -0.00000000000E+00 -0.10646626434E+04  0.10646626434E+04  0.25500000000E-02 0.  1.
    8880022    1    1    2    0    0 -0.28079598078E+03  0.55848356556E+03 -0.89433234867E+03  0.11018041018E+04  0.15294330000E+03 0.  0.
    8880022    1    1    2    0    0  0.28079598078E+03 -0.55848356556E+03  0.14881227050E+04  0.16213115413E+04  0.15294330000E+03 0.  0.
<mgrwt>
<rscale>  0 0.64353860E+03</rscale>
<asrwt>0</asrwt>
<pdfrwt beam="1">  1        2 0.25514662E+00 0.64353860E+03</pdfrwt>
<pdfrwt beam="2">  1       -2 0.16379425E+00 0.64353860E+03</pdfrwt>
<totfact> 0.25699407E+00</totfact>
</mgrwt>
</event>
<event>
 4    1  0.1033139E-008  0.5787327E+03  0.7818608E-02  0.9950538E-01
         -2   -1    0    0    0  501 -0.00000000000E+00  0.00000000000E+00  0.23170519026E+03  0.23170519027E+03  0.25500000000E-02 0.  1.
          2   -1    0    0  501    0  0.00000000000E+00 -0.00000000000E+00 -0.15927504074E+04  0.15927504074E+04  0.25500000000E-02 0. -1.
    8880022    1    1    2    0    0 -0.48312926219E+03  0.27951031357E+03 -0.40316066383E+03  0.70531558416E+03  0.15294330000E+03 0.  0.
    8880022    1    1    2    0    0  0.48312926219E+03 -0.27951031357E+03 -0.95788455335E+03  0.11191400136E+04  0.15294330000E+03 0.  0.
<mgrwt>
<rscale>  0 0.57873271E+03</rscale>
<asrwt>0</asrwt>
<pdfrwt beam="1">  1        2 0.24503852E+00 0.57873271E+03</pdfrwt>
<pdfrwt beam="2">  1       -2 0.35646953E-01 0.57873271E+03</pdfrwt>
<totfact> 0.86562918E+01</totfact>
</mgrwt>
</event>
<event>
 4    1  0.1033139E-008  0.7015468E+03  0.7818608E-02  0.9714591E-01
          2   -1    0    0  501    0  0.00000000000E+00  0.00000000000E+00  0.15193912645E+04  0.15193912645E+04  0.25500000000E-02 0. -1.
         -2   -1    0    0    0  501 -0.00000000000E+00 -0.00000000000E+00 -0.11334479677E+04  0.11334479677E+04  0.25500000000E-02 0.  1.
    8880022    1    1    2    0    0  0.46636939106E+03  0.50127428477E+03  0.13139439420E+04  0.14895021495E+04  0.15294330000E+03 0.  0.
    8880022    1    1    2    0    0 -0.46636939106E+03 -0.50127428477E+03 -0.92800064521E+03  0.11633370827E+04  0.15294330000E+03 0.  0.
<mgrwt>
<rscale>  0 0.70154684E+03</rscale>
<asrwt>0</asrwt>
<pdfrwt beam="1">  1        2 0.23375250E+00 0.70154684E+03</pdfrwt>
<pdfrwt beam="2">  1       -2 0.17437661E+00 0.70154684E+03</pdfrwt>
<totfact> 0.25499493E+00</totfact>
</mgrwt>
</event>
<event>
 4    1  0.1033139E-008  0.1127239E+04  0.7818608E-02  0.9179042E-01
          2   -1    0    0  501    0  0.00000000000E+00  0.00000000000E+00  0.36850937232E+04  0.36850937232E+04  0.25500000000E-02 0. -1.
         -2   -1    0    0    0  501 -0.00000000000E+00 -0.00000000000E+00 -0.43128482843E+03  0.43128482844E+03  0.25500000000E-02 0.  1.
    8880022    1    1    2    0    0 -0.80233501745E+03 -0.77687462950E+03  0.25485016632E+04  0.27866697060E+04  0.15294330000E+03 0.  0.
    8880022    1    1    2    0    0  0.80233501745E+03  0.77687462950E+03  0.70530723158E+03  0.13297088456E+04  0.15294330000E+03 0.  0.
<mgrwt>
<rscale>  0 0.11272388E+04</rscale>
<asrwt>0</asrwt>
<pdfrwt beam="1">  1        2 0.56693750E+00 0.11272388E+04</pdfrwt>
<pdfrwt beam="2">  1       -2 0.66351512E-01 0.11272388E+04</pdfrwt>
<totfact> 0.12765071E+00</totfact>
</mgrwt>
</event>
<event>
 4    1  0.1033139E-008  0.4280983E+03  0.7818608E-02  0.1034462E+00
          2   -1    0    0  501    0  0.00000000000E+00  0.00000000000E+00  0.34770290838E+03  0.34770290839E+03  0.25500000000E-02 0. -1.
         -2   -1    0    0    0  501 -0.00000000000E+00 -0.00000000000E+00 -0.21891365256E+04  0.21891365256E+04  0.25500000000E-02 0.  1.
    8880022    1    1    2    0    0 -0.39683609473E+03 -0.48965382666E+02  0.18450416502E+03  0.46616513674E+03  0.15294330000E+03 0.  0.
    8880022    1    1    2    0    0  0.39683609473E+03  0.48965382666E+02 -0.20259377823E+04  0.20706742973E+04  0.15294330000E+03 0.  0.
<mgrwt>
<rscale>  0 0.42809829E+03</rscale>
<asrwt>0</asrwt>
<pdfrwt beam="1">  1        2 0.53492756E-01 0.42809829E+03</pdfrwt>
<pdfrwt beam="2">  1       -2 0.33679023E+00 0.42809829E+03</pdfrwt>
<totfact> 0.19681493E+00</totfact>
</mgrwt>
</event>
<event>
 4    1  0.1033139E-008  0.5496745E+03  0.7818608E-02  0.1001569E+00
          2   -1    0    0  501    0  0.00000000000E+00  0.00000000000E+00  0.39714093847E+03  0.39714093848E+03  0.25500000000E-02 0. -1.
         -2   -1    0    0    0  501 -0.00000000000E+00 -0.00000000000E+00 -0.87665540767E+03  0.87665540767E+03  0.25500000000E-02 0.  1.
    8880022    1    1    2    0    0  0.52627762772E+03 -0.42217482189E+02 -0.47129749448E+03  0.72406038323E+03  0.15294330000E+03 0.  1.
    8880022    1    1    2    0    0 -0.52627762772E+03  0.42217482189E+02 -0.82169747177E+01  0.54973596293E+03  0.15294330000E+03 0.  0.
<mgrwt>
<rscale>  0 0.54967455E+03</rscale>
<asrwt>0</asrwt>
<pdfrwt beam="1">  1        2 0.61098606E-01 0.54967455E+03</pdfrwt>
<pdfrwt beam="2">  1       -2 0.13487006E+00 0.54967455E+03</pdfrwt>
<totfact> 0.32623916E+01</totfact>
</mgrwt>
</event>
<event>
 4    1  0.1033139E-008  0.6168238E+03  0.7818608E-02  0.9871104E-01
          2   -1    0    0  501    0  0.00000000000E+00  0.00000000000E+00  0.74556949768E+03  0.74556949769E+03  0.25500000000E-02 0. -1.
         -2   -1    0    0    0  501 -0.00000000000E+00 -0.00000000000E+00 -0.68040272005E+03  0.68040272006E+03  0.25500000000E-02 0.  1.
    8880022    1    1    2    0    0 -0.59568979522E+03  0.47261731758E+02 -0.32390120341E+03  0.69669480119E+03  0.15294330000E+03 0.  0.
    8880022    1    1    2    0    0  0.59568979522E+03 -0.47261731758E+02  0.38906798104E+03  0.72927741656E+03  0.15294330000E+03 0.  0.
<mgrwt>
<rscale>  0 0.61682385E+03</rscale>
<asrwt>0</asrwt>
<pdfrwt beam="1">  1        2 0.11470300E+00 0.61682385E+03</pdfrwt>
<pdfrwt beam="2">  1       -2 0.10467734E+00 0.61682385E+03</pdfrwt>
<totfact> 0.28739377E+01</totfact>
</mgrwt>
</event>
<event>
 4    1  0.1033139E-008  0.1400833E+04  0.7818608E-02  0.8953216E-01
         -2   -1    0    0    0  501 -0.00000000000E+00  0.00000000000E+00  0.13900385741E+04  0.13900385741E+04  0.25500000000E-02 0.  1.
          2   -1    0    0  501    0  0.00000000000E+00 -0.00000000000E+00 -0.22025216378E+04  0.22025216378E+04  0.25500000000E-02 0. -1.
    8880022    1    1    2    0    0 -0.29484933250E+03  0.13608844010E+04  0.67009962026E+03  0.15528578930E+04  0.15294330000E+03 0.  0.
    8880022    1    1    2    0    0  0.29484933250E+03 -0.13608844010E+04 -0.14825826840E+04  0.20397023189E+04  0.15294330000E+03 0.  0.
<mgrwt>
<rscale>  0 0.14008334E+04</rscale>
<asrwt>0</asrwt>
<pdfrwt beam="1">  1        2 0.33884948E+00 0.14008334E+04</pdfrwt>
<pdfrwt beam="2">  1       -2 0.21385209E+00 0.14008334E+04</pdfrwt>
<totfact> 0.52822239E-01</totfact>
</mgrwt>
</event>
<event>
 4    1  0.1033139E-008  0.2423497E+03  0.7818608E-02  0.1118237E+00
          2   -1    0    0  501    0  0.00000000000E+00  0.00000000000E+00  0.11184900585E+04  0.11184900585E+04  0.25500000000E-02 0. -1.
         -2   -1    0    0    0  501 -0.00000000000E+00 -0.00000000000E+00 -0.11380294251E+04  0.11380294252E+04  0.25500000000E-02 0.  1.
    8880022    1    1    2    0    0  0.17899493819E+03 -0.57467680266E+02  0.10921523945E+04  0.11187181182E+04  0.15294330000E+03 0.  0.
    8880022    1    1    2    0    0 -0.17899493819E+03  0.57467680266E+02 -0.11116917612E+04  0.11378013654E+04  0.15294330000E+03 0.  1.
<mgrwt>
<rscale>  0 0.24234970E+03</rscale>
<asrwt>0</asrwt>
<pdfrwt beam="1">  1        2 0.17207539E+00 0.24234970E+03</pdfrwt>
<pdfrwt beam="2">  1       -2 0.17508145E+00 0.24234970E+03</pdfrwt>
<totfact> 0.48241141E+00</totfact>
</mgrwt>
</event>
<event>
 4    1  0.1033139E-008  0.4372853E+03  0.7818608E-02  0.1031583E+00
          2   -1    0    0  501    0  0.00000000000E+00  0.00000000000E+00  0.43802639201E+04  0.43802639201E+04  0.25500000000E-02 0. -1.
         -2   -1    0    0    0  501 -0.00000000000E+00 -0.00000000000E+00 -0.18211054857E+03  0.18211054859E+03  0.25500000000E-02 0.  1.
    8880022    1    1    2    0    0 -0.38295639352E+03 -0.14550309695E+03  0.40881431083E+04  0.41114635445E+04  0.15294330000E+03 0.  0.
    8880022    1    1    2    0    0  0.38295639352E+03  0.14550309695E+03  0.11001026324E+03  0.45091092423E+03  0.15294330000E+03 0.  0.
<mgrwt>
<rscale>  0 0.43728527E+03</rscale>
<asrwt>0</asrwt>
<pdfrwt beam="1">  1        2 0.67388674E+00 0.43728527E+03</pdfrwt>
<pdfrwt beam="2">  1       -2 0.28017008E-01 0.43728527E+03</pdfrwt>
<totfact> 0.23259108E+00</totfact>
</mgrwt>
</event>
<event>
 4    1  0.1033139E-008  0.6936188E+03  0.7818608E-02  0.9728208E-01
          2   -1    0    0  501    0  0.00000000000E+00  0.00000000000E+00  0.34652786957E+04  0.34652786957E+04  0.25500000000E-02 0. -1.
         -2   -1    0    0    0  501 -0.00000000000E+00 -0.00000000000E+00 -0.24194389593E+03  0.24194389594E+03  0.25500000000E-02 0.  1.
    8880022    1    1    2    0    0 -0.66550863940E+03 -0.12171130193E+03  0.40160904046E+03  0.80149664037E+03  0.15294330000E+03 0.  0.
    8880022    1    1    2    0    0  0.66550863940E+03  0.12171130193E+03  0.28217257593E+04  0.29057259513E+04  0.15294330000E+03 0.  0.
<mgrwt>
<rscale>  0 0.69361880E+03</rscale>
<asrwt>0</asrwt>
<pdfrwt beam="1">  1        2 0.53311979E+00 0.69361880E+03</pdfrwt>
<pdfrwt beam="2">  1       -2 0.37222138E-01 0.69361880E+03</pdfrwt>
<totfact> 0.63990540E+00</totfact>
</mgrwt>
</event>
<event>
 4    1  0.1033139E-008  0.5083109E+03  0.7818608E-02  0.1011632E+00
         -2   -1    0    0    0  501 -0.00000000000E+00  0.00000000000E+00  0.61804484353E+03  0.61804484353E+03  0.25500000000E-02 0.  1.
          2   -1    0    0  501    0  0.00000000000E+00 -0.00000000000E+00 -0.11673795777E+04  0.11673795777E+04  0.25500000000E-02 0. -1.
    8880022    1    1    2    0    0  0.27668961667E+03 -0.39803415428E+03  0.44055138958E+03  0.67265556700E+03  0.15294330000E+03 0.  0.
    8880022    1    1    2    0    0 -0.27668961667E+03  0.39803415428E+03 -0.98988612371E+03  0.11127688542E+04  0.15294330000E+03 0. -1.
<mgrwt>
<rscale>  0 0.50831091E+03</rscale>
<asrwt>0</asrwt>
<pdfrwt beam="1">  1        2 0.17959686E+00 0.50831091E+03</pdfrwt>
<pdfrwt beam="2">  1       -2 0.95083822E-01 0.50831091E+03</pdfrwt>
<totfact> 0.19401339E+01</totfact>
</mgrwt>
</event>
<event>
 4    1  0.1033139E-008  0.4450222E+03  0.7818608E-02  0.1029217E+00
         -2   -1    0    0    0  501 -0.00000000000E+00  0.00000000000E+00  0.51522827591E+03  0.51522827591E+03  0.25500000000E-02 0.  1.
          2   -1    0    0  501    0  0.00000000000E+00 -0.00000000000E+00 -0.70947962956E+03  0.70947962957E+03  0.25500000000E-02 0. -1.
    8880022    1    1    2    0    0  0.33577820253E+03 -0.24880933795E+03 -0.51163959464E+03  0.67810015172E+03  0.15294330000E+03 0.  0.
    8880022    1    1    2    0    0 -0.33577820253E+03  0.24880933795E+03  0.31738824098E+03  0.54660775376E+03  0.15294330000E+03 0. -1.
<mgrwt>
<rscale>  0 0.44502218E+03</rscale>
<asrwt>0</asrwt>
<pdfrwt beam="1">  1        2 0.10915071E+00 0.44502218E+03</pdfrwt>
<pdfrwt beam="2">  1       -2 0.79265888E-01 0.44502218E+03</pdfrwt>
<totfact> 0.59223084E+01</totfact>
</mgrwt>
</event>
<event>
 4    1  0.1033139E-008  0.4597351E+03  0.7818608E-02  0.1024858E+00
          2   -1    0    0  501    0  0.00000000000E+00  0.00000000000E+00  0.13641922179E+04  0.13641922179E+04  0.25500000000E-02 0. -1.
         -2   -1    0    0    0  501 -0.00000000000E+00 -0.00000000000E+00 -0.95282885356E+03  0.95282885356E+03  0.25500000000E-02 0.  1.
    8880022    1    1    2    0    0 -0.32616188160E+03 -0.28562762108E+03  0.12658285793E+04  0.13467287612E+04  0.15294330000E+03 0.  0.
    8880022    1    1    2    0    0  0.32616188160E+03  0.28562762108E+03 -0.85446521494E+03  0.97029231033E+03  0.15294330000E+03 0.  0.
<mgrwt>
<rscale>  0 0.45973510E+03</rscale>
<asrwt>0</asrwt>
<pdfrwt beam="1">  1        2 0.20987572E+00 0.45973510E+03</pdfrwt>
<pdfrwt beam="2">  1       -2 0.14658905E+00 0.45973510E+03</pdfrwt>
<totfact> 0.52236724E+00</totfact>
</mgrwt>
</event>
<event>
 4    1  0.1033139E-008  0.6494904E+03  0.7818608E-02  0.9807736E-01
          2   -1    0    0  501    0  0.00000000000E+00  0.00000000000E+00  0.11246481547E+04  0.11246481547E+04  0.25500000000E-02 0. -1.
         -2   -1    0    0    0  501 -0.00000000000E+00 -0.00000000000E+00 -0.50663138517E+03  0.50663138518E+03  0.25500000000E-02 0.  1.
    8880022    1    1    2    0    0 -0.49113072249E+03  0.39653083834E+03 -0.10660845897E+03  0.65818166859E+03  0.15294330000E+03 0.  0.
    8880022    1    1    2    0    0  0.49113072249E+03 -0.39653083834E+03  0.72462522852E+03  0.97309787131E+03  0.15294330000E+03 0.  0.
<mgrwt>
<rscale>  0 0.64949037E+03</rscale>
<asrwt>0</asrwt>
<pdfrwt beam="1">  1        2 0.17302279E+00 0.64949037E+03</pdfrwt>
<pdfrwt beam="2">  1       -2 0.77943291E-01 0.64949037E+03</pdfrwt>
<totfact> 0.31717590E+01</totfact>
</mgrwt>
</event>
<event>
 4    1  0.1033139E-008  0.1267454E+04  0.7818608E-02  0.9055780E-01
         -2   -1    0    0    0  501 -0.00000000000E+00  0.00000000000E+00  0.12353533549E+04  0.12353533549E+04  0.25500000000E-02 0.  1.
          2   -1    0    0  501    0  0.00000000000E+00 -0.00000000000E+00 -0.37102690339E+04  0.37102690339E+04  0.25500000000E-02 0. -1.
    8880022    1    1    2    0    0  0.86045570500E+03 -0.91796771466E+03  0.75544411765E+03  0.14755121868E+04  0.15294330000E+03 0.  0.
    8880022    1    1    2    0    0 -0.86045570500E+03  0.91796771466E+03 -0.32303597967E+04  0.34701102020E+04  0.15294330000E+03 0.  0.
<mgrwt>
<rscale>  0 0.12674543E+04</rscale>
<asrwt>0</asrwt>
<pdfrwt beam="1">  1        2 0.57081062E+00 0.12674543E+04</pdfrwt>
<pdfrwt beam="2">  1       -2 0.19005436E+00 0.12674543E+04</pdfrwt>
<totfact> 0.87601565E-02</totfact>
</mgrwt>
</event>
<event>
 4    1  0.1033139E-008  0.1329979E+04  0.7818608E-02  0.9006123E-01
         -2   -1    0    0    0  501 -0.00000000000E+00  0.00000000000E+00  0.80409761995E+03  0.80409761995E+03  0.25500000000E-02 0.  1.
          2   -1    0    0  501    0  0.00000000000E+00 -0.00000000000E+00 -0.24242000545E+04  0.24242000545E+04  0.25500000000E-02 0. -1.
    8880022    1    1    2    0    0  0.48228135087E+03  0.12299829888E+04 -0.31893818010E+03  0.13676866124E+04  0.15294330000E+03 0.  0.
    8880022    1    1    2    0    0 -0.48228135087E+03 -0.12299829888E+04 -0.13011642545E+04  0.18606110620E+04  0.15294330000E+03 0.  0.
<mgrwt>
<rscale>  0 0.13299794E+04</rscale>
<asrwt>0</asrwt>
<pdfrwt beam="1">  1        2 0.37295385E+00 0.13299794E+04</pdfrwt>
<pdfrwt beam="2">  1       -2 0.12370733E+00 0.13299794E+04</pdfrwt>
<totfact> 0.18289778E+00</totfact>
</mgrwt>
</event>
<event>
 4    1  0.1033139E-008  0.2316420E+03  0.7818608E-02  0.1125489E+00
         -2   -1    0    0    0  501 -0.00000000000E+00  0.00000000000E+00  0.44151624652E+02  0.44151624726E+02  0.25500000000E-02 0.  1.
          2   -1    0    0  501    0  0.00000000000E+00 -0.00000000000E+00 -0.18348420695E+04  0.18348420695E+04  0.25500000000E-02 0. -1.
    8880022    1    1    2    0    0 -0.36636202771E+02 -0.17007100975E+03 -0.34942765378E+03  0.41923465739E+03  0.15294330000E+03 0.  0.
    8880022    1    1    2    0    0  0.36636202771E+02  0.17007100975E+03 -0.14412627911E+04  0.14597590369E+04  0.15294330000E+03 0. -1.
<mgrwt>
<rscale>  0 0.23164199E+03</rscale>
<asrwt>0</asrwt>
<pdfrwt beam="1">  1        2 0.28228334E+00 0.23164199E+03</pdfrwt>
<pdfrwt beam="2">  1       -2 0.67925590E-02 0.23164199E+03</pdfrwt>
<totfact> 0.11131480E+03</totfact>
</mgrwt>
</event>
<event>
 4    1  0.1033139E-008  0.7220498E+03  0.7818608E-02  0.9680250E-01
         -2   -1    0    0    0  501 -0.00000000000E+00  0.00000000000E+00  0.69589432845E+03  0.69589432845E+03  0.25500000000E-02 0.  1.
          2   -1    0    0  501    0  0.00000000000E+00 -0.00000000000E+00 -0.10864166242E+04  0.10864166242E+04  0.25500000000E-02 0. -1.
    8880022    1    1    2    0    0 -0.29601622825E+03 -0.64057682933E+03  0.30123657257E+03  0.78236782099E+03  0.15294330000E+03 0.  0.
    8880022    1    1    2    0    0  0.29601622825E+03  0.64057682933E+03 -0.69175886836E+03  0.99994313170E+03  0.15294330000E+03 0.  0.
<mgrwt>
<rscale>  0 0.72204981E+03</rscale>
<asrwt>0</asrwt>
<pdfrwt beam="1">  1        2 0.16714102E+00 0.72204981E+03</pdfrwt>
<pdfrwt beam="2">  1       -2 0.10706067E+00 0.72204981E+03</pdfrwt>
<totfact> 0.15909725E+01</totfact>
</mgrwt>
</event>
<event>
 4    1  0.1033139E-008  0.1229576E+04  0.7818608E-02  0.9087355E-01
         -2   -1    0    0    0  501 -0.00000000000E+00  0.00000000000E+00  0.16915388266E+04  0.16915388266E+04  0.25500000000E-02 0.  1.
          2   -1    0    0  501    0  0.00000000000E+00 -0.00000000000E+00 -0.97853372322E+03  0.97853372322E+03  0.25500000000E-02 0. -1.
    8880022    1    1    2    0    0 -0.10100836814E+04  0.68424885571E+03 -0.36408480254E+02  0.12301149420E+04  0.15294330000E+03 0.  0.
    8880022    1    1    2    0    0  0.10100836814E+04 -0.68424885571E+03  0.74941358361E+03  0.14399576078E+04  0.15294330000E+03 0.  0.
<mgrwt>
<rscale>  0 0.12295760E+04</rscale>
<asrwt>0</asrwt>
<pdfrwt beam="1">  1        2 0.15054365E+00 0.12295760E+04</pdfrwt>
<pdfrwt beam="2">  1       -2 0.26023674E+00 0.12295760E+04</pdfrwt>
<totfact> 0.14057784E+00</totfact>
</mgrwt>
</event>
<event>
 4    1  0.1033139E-008  0.3297451E+03  0.7818608E-02  0.1071250E+00
         -2   -1    0    0    0  501 -0.00000000000E+00  0.00000000000E+00  0.10898209820E+04  0.10898209820E+04  0.25500000000E-02 0.  1.
          2   -1    0    0  501    0  0.00000000000E+00 -0.00000000000E+00 -0.88010807221E+03  0.88010807222E+03  0.25500000000E-02 0. -1.
    8880022    1    1    2    0    0  0.28957687247E+03  0.38541448871E+02 -0.82260074760E+03  0.88623013451E+03  0.15294330000E+03 0.  0.
    8880022    1    1    2    0    0 -0.28957687247E+03 -0.38541448871E+02  0.10323136573E+04  0.10836989197E+04  0.15294330000E+03 0.  1.
<mgrwt>
<rscale>  0 0.32974515E+03</rscale>
<asrwt>0</asrwt>
<pdfrwt beam="1">  1        2 0.13540124E+00 0.32974515E+03</pdfrwt>
<pdfrwt beam="2">  1       -2 0.16766477E+00 0.32974515E+03</pdfrwt>
<totfact> 0.73791369E+00</totfact>
</mgrwt>
</event>
<event>
 4    1  0.1033139E-008  0.7125304E+03  0.7818608E-02  0.9696040E-01
         -2   -1    0    0    0  501 -0.00000000000E+00  0.00000000000E+00  0.21230097637E+03  0.21230097639E+03  0.25500000000E-02 0.  1.
          2   -1    0    0  501    0  0.00000000000E+00 -0.00000000000E+00 -0.28052666526E+04  0.28052666526E+04  0.25500000000E-02 0. -1.
    8880022    1    1    2    0    0  0.71604646102E+02  0.69222876171E+03 -0.18759953132E+04  0.20067530870E+04  0.15294330000E+03 0.  0.
    8880022    1    1    2    0    0 -0.71604646102E+02 -0.69222876171E+03 -0.71697036301E+03  0.10108145420E+04  0.15294330000E+03 0.  0.
<mgrwt>
<rscale>  0 0.71253038E+03</rscale>
<asrwt>0</asrwt>
<pdfrwt beam="1">  1        2 0.43157946E+00 0.71253038E+03</pdfrwt>
<pdfrwt beam="2">  1       -2 0.32661691E-01 0.71253038E+03</pdfrwt>
<totfact> 0.21257326E+01</totfact>
</mgrwt>
</event>
<event>
 4    1  0.1033139E-008  0.3424991E+03  0.7818608E-02  0.1065736E+00
         -2   -1    0    0    0  501 -0.00000000000E+00  0.00000000000E+00  0.62783586688E+03  0.62783586689E+03  0.25500000000E-02 0.  1.
          2   -1    0    0  501    0  0.00000000000E+00 -0.00000000000E+00 -0.32180141332E+03  0.32180141333E+03  0.25500000000E-02 0. -1.
    8880022    1    1    2    0    0 -0.23810181524E+03 -0.19292876566E+03  0.46051118662E+03  0.57391305008E+03  0.15294330000E+03 0.  0.
    8880022    1    1    2    0    0  0.23810181524E+03  0.19292876566E+03 -0.15447673305E+03  0.37572423013E+03  0.15294330000E+03 0.  0.
<mgrwt>
<rscale>  0 0.34249910E+03</rscale>
<asrwt>0</asrwt>
<pdfrwt beam="1">  1        2 0.49507911E-01 0.34249910E+03</pdfrwt>
<pdfrwt beam="2">  1       -2 0.96590131E-01 0.34249910E+03</pdfrwt>
<totfact> 0.94355966E+01</totfact>
</mgrwt>
</event>
<event>
 4    1  0.1033139E-008  0.6566891E+03  0.7818608E-02  0.9794308E-01
          2   -1    0    0  501    0  0.00000000000E+00  0.00000000000E+00  0.11336265761E+04  0.11336265761E+04  0.25500000000E-02 0. -1.
         -2   -1    0    0    0  501 -0.00000000000E+00 -0.00000000000E+00 -0.50960030719E+03  0.50960030720E+03  0.25500000000E-02 0.  1.
    8880022    1    1    2    0    0  0.12084781075E+03  0.62709224334E+03 -0.10167318253E+03  0.66451332875E+03  0.15294330000E+03 0.  0.
    8880022    1    1    2    0    0 -0.12084781075E+03 -0.62709224334E+03  0.72569945140E+03  0.97871355452E+03  0.15294330000E+03 0.  0.
<mgrwt>
<rscale>  0 0.65668906E+03</rscale>
<asrwt>0</asrwt>
<pdfrwt beam="1">  1        2 0.17440409E+00 0.65668906E+03</pdfrwt>
<pdfrwt beam="2">  1       -2 0.78400048E-01 0.65668906E+03</pdfrwt>
<totfact> 0.30893111E+01</totfact>
</mgrwt>
</event>
<event>
 4    1  0.1033139E-008  0.1379710E+04  0.7818608E-02  0.8968638E-01
          2   -1    0    0  501    0  0.00000000000E+00  0.00000000000E+00  0.37551457200E+04  0.37551457200E+04  0.25500000000E-02 0. -1.
         -2   -1    0    0    0  501 -0.00000000000E+00 -0.00000000000E+00 -0.97557949198E+03  0.97557949198E+03  0.25500000000E-02 0.  1.
    8880022    1    1    2    0    0 -0.13639165950E+04  0.14120389759E+03  0.30292027923E+04  0.33286135595E+04  0.15294330000E+03 0.  0.
    8880022    1    1    2    0    0  0.13639165950E+04 -0.14120389759E+03 -0.24963656427E+03  0.14021116525E+04  0.15294330000E+03 0.  0.
<mgrwt>
<rscale>  0 0.13797096E+04</rscale>
<asrwt>0</asrwt>
<pdfrwt beam="1">  1        2 0.57771472E+00 0.13797096E+04</pdfrwt>
<pdfrwt beam="2">  1       -2 0.15008915E+00 0.13797096E+04</pdfrwt>
<totfact> 0.15458207E-01</totfact>
</mgrwt>
</event>
<event>
 4    1  0.1033139E-008  0.9024972E+03  0.7818608E-02  0.9422465E-01
          2   -1    0    0  501    0  0.00000000000E+00  0.00000000000E+00  0.31365557377E+04  0.31365557377E+04  0.25500000000E-02 0. -1.
         -2   -1    0    0    0  501 -0.00000000000E+00 -0.00000000000E+00 -0.30769771189E+03  0.30769771190E+03  0.25500000000E-02 0.  1.
    8880022    1    1    2    0    0 -0.88568328349E+03 -0.81698587135E+02  0.20947331807E+04  0.22808788414E+04  0.15294330000E+03 0.  0.
    8880022    1    1    2    0    0  0.88568328349E+03  0.81698587135E+02  0.73412484512E+03  0.11633746082E+04  0.15294330000E+03 0.  0.
<mgrwt>
<rscale>  0 0.90249720E+03</rscale>
<asrwt>0</asrwt>
<pdfrwt beam="1">  1        2 0.48254701E+00 0.90249720E+03</pdfrwt>
<pdfrwt beam="2">  1       -2 0.47338112E-01 0.90249720E+03</pdfrwt>
<totfact> 0.62812892E+00</totfact>
</mgrwt>
</event>
<event>
 4    1  0.1033139E-008  0.5574132E+03  0.7818608E-02  0.9997925E-01
          2   -1    0    0  501    0  0.00000000000E+00  0.00000000000E+00  0.40919518468E+03  0.40919518469E+03  0.25500000000E-02 0. -1.
         -2   -1    0    0    0  501 -0.00000000000E+00 -0.00000000000E+00 -0.13092245469E+04  0.13092245469E+04  0.25500000000E-02 0.  1.
    8880022    1    1    2    0    0 -0.51292316261E+03 -0.15565244933E+03 -0.10068623417E+04  0.11508611053E+04  0.15294330000E+03 0.  0.
    8880022    1    1    2    0    0  0.51292316261E+03  0.15565244933E+03  0.10683297944E+03  0.56755862625E+03  0.15294330000E+03 0.  0.
<mgrwt>
<rscale>  0 0.55741323E+03</rscale>
<asrwt>0</asrwt>
<pdfrwt beam="1">  1        2 0.62953106E-01 0.55741323E+03</pdfrwt>
<pdfrwt beam="2">  1       -2 0.20141916E+00 0.55741323E+03</pdfrwt>
<totfact> 0.10517602E+01</totfact>
</mgrwt>
</event>
<event>
 4    1  0.1033139E-008  0.3644088E+03  0.7818608E-02  0.1056852E+00
         -2   -1    0    0    0  501 -0.00000000000E+00  0.00000000000E+00  0.31784210647E+03  0.31784210648E+03  0.25500000000E-02 0.  1.
          2   -1    0    0  501    0  0.00000000000E+00 -0.00000000000E+00 -0.85082131907E+03  0.85082131907E+03  0.25500000000E-02 0. -1.
    8880022    1    1    2    0    0  0.10190334356E+03 -0.31467096085E+03  0.15037591651E+03  0.39421653227E+03  0.15294330000E+03 0.  0.
    8880022    1    1    2    0    0 -0.10190334356E+03  0.31467096085E+03 -0.68335512911E+03  0.77444689329E+03  0.15294330000E+03 0.  0.
<mgrwt>
<rscale>  0 0.36440878E+03</rscale>
<asrwt>0</asrwt>
<pdfrwt beam="1">  1        2 0.13089559E+00 0.36440878E+03</pdfrwt>
<pdfrwt beam="2">  1       -2 0.48898786E-01 0.36440878E+03</pdfrwt>
<totfact> 0.13131713E+02</totfact>
</mgrwt>
</event>
<event>
 4    1  0.1033139E-008  0.1190879E+04  0.7818608E-02  0.9120878E-01
          2   -1    0    0  501    0  0.00000000000E+00  0.00000000000E+00  0.27429260221E+04  0.27429260221E+04  0.25500000000E-02 0. -1.
         -2   -1    0    0    0  501 -0.00000000000E+00 -0.00000000000E+00 -0.11240156535E+04  0.11240156535E+04  0.25500000000E-02 0.  1.
    8880022    1    1    2    0    0  0.64814871368E+03  0.98727078630E+03 -0.61136280090E+03  0.13386397902E+04  0.15294330000E+03 0.  0.
    8880022    1    1    2    0    0 -0.64814871368E+03 -0.98727078630E+03  0.22302731694E+04  0.25283018854E+04  0.15294330000E+03 0.  0.
<mgrwt>
<rscale>  0 0.11908787E+04</rscale>
<asrwt>0</asrwt>
<pdfrwt beam="1">  1        2 0.42198862E+00 0.11908787E+04</pdfrwt>
<pdfrwt beam="2">  1       -2 0.17292549E+00 0.11908787E+04</pdfrwt>
<totfact> 0.49886419E-01</totfact>
</mgrwt>
</event>
<event>
 4    1  0.1033139E-008  0.1208196E+04  0.7818608E-02  0.9105712E-01
          2   -1    0    0  501    0  0.00000000000E+00  0.00000000000E+00  0.31468502832E+04  0.31468502832E+04  0.25500000000E-02 0. -1.
         -2   -1    0    0    0  501 -0.00000000000E+00 -0.00000000000E+00 -0.10540945121E+04  0.10540945121E+04  0.25500000000E-02 0.  1.
    8880022    1    1    2    0    0 -0.11891841783E+04 -0.14895460057E+03  0.26181327280E+04  0.28834626956E+04  0.15294330000E+03 0.  0.
    8880022    1    1    2    0    0  0.11891841783E+04  0.14895460057E+03 -0.52537695686E+03  0.13174820996E+04  0.15294330000E+03 0.  0.
<mgrwt>
<rscale>  0 0.12081962E+04</rscale>
<asrwt>0</asrwt>
<pdfrwt beam="1">  1        2 0.48413081E+00 0.12081962E+04</pdfrwt>
<pdfrwt beam="2">  1       -2 0.16216839E+00 0.12081962E+04</pdfrwt>
<totfact> 0.33593133E-01</totfact>
</mgrwt>
</event>
<event>
 4    1  0.1033139E-008  0.8144584E+03  0.7818608E-02  0.9539322E-01
         -2   -1    0    0    0  501 -0.00000000000E+00  0.00000000000E+00  0.23746625250E+04  0.23746625250E+04  0.25500000000E-02 0.  1.
          2   -1    0    0  501    0  0.00000000000E+00 -0.00000000000E+00 -0.14323216128E+04  0.14323216128E+04  0.25500000000E-02 0. -1.
    8880022    1    1    2    0    0  0.78928151944E+03  0.13032837194E+03  0.21789887238E+04  0.23262274852E+04  0.15294330000E+03 0.  0.
    8880022    1    1    2    0    0 -0.78928151944E+03 -0.13032837194E+03 -0.12366478115E+04  0.14807566526E+04  0.15294330000E+03 0.  0.
<mgrwt>
<rscale>  0 0.81445838E+03</rscale>
<asrwt>0</asrwt>
<pdfrwt beam="1">  1        2 0.22035717E+00 0.81445838E+03</pdfrwt>
<pdfrwt beam="2">  1       -2 0.36533269E+00 0.81445838E+03</pdfrwt>
<totfact> 0.18167195E-01</totfact>
</mgrwt>
</event>
<event>
 4    1  0.1033139E-008  0.9302909E+03  0.7818608E-02  0.9388489E-01
         -2   -1    0    0    0  501 -0.00000000000E+00  0.00000000000E+00  0.17664052022E+04  0.17664052022E+04  0.25500000000E-02 0.  1.
          2   -1    0    0  501    0  0.00000000000E+00 -0.00000000000E+00 -0.98834538253E+03  0.98834538253E+03  0.25500000000E-02 0. -1.
    8880022    1    1    2    0    0  0.46049016178E+03 -0.79372435833E+03  0.13671386770E+04  0.16536351960E+04  0.15294330000E+03 0.  0.
    8880022    1    1    2    0    0 -0.46049016178E+03  0.79372435833E+03 -0.58907885738E+03  0.11011153887E+04  0.15294330000E+03 0.  0.
<mgrwt>
<rscale>  0 0.93029092E+03</rscale>
<asrwt>0</asrwt>
<pdfrwt beam="1">  1        2 0.15205313E+00 0.93029092E+03</pdfrwt>
<pdfrwt beam="2">  1       -2 0.27175465E+00 0.93029092E+03</pdfrwt>
<totfact> 0.12232803E+00</totfact>
</mgrwt>
</event>
<event>
 4    1  0.1033139E-008  0.6082600E+03  0.7818608E-02  0.9888416E-01
         -2   -1    0    0    0  501 -0.00000000000E+00  0.00000000000E+00  0.46930690553E+03  0.46930690554E+03  0.25500000000E-02 0.  1.
          2   -1    0    0  501    0  0.00000000000E+00 -0.00000000000E+00 -0.19826880116E+04  0.19826880116E+04  0.25500000000E-02 0. -1.
    8880022    1    1    2    0    0 -0.16863108178E+03 -0.56404978381E+03 -0.17082264401E+04  0.18132892279E+04  0.15294330000E+03 0.  0.
    8880022    1    1    2    0    0  0.16863108178E+03  0.56404978381E+03  0.19484533396E+03  0.63870568930E+03  0.15294330000E+03 0.  0.
<mgrwt>
<rscale>  0 0.60826002E+03</rscale>
<asrwt>0</asrwt>
<pdfrwt beam="1">  1        2 0.30502892E+00 0.60826002E+03</pdfrwt>
<pdfrwt beam="2">  1       -2 0.72201064E-01 0.60826002E+03</pdfrwt>
<totfact> 0.12564711E+01</totfact>
</mgrwt>
</event>
<event>
 4    1  0.1033139E-008  0.1398631E+04  0.7818608E-02  0.8954810E-01
          2   -1    0    0  501    0  0.00000000000E+00  0.00000000000E+00  0.35259568724E+04  0.35259568724E+04  0.25500000000E-02 0. -1.
         -2   -1    0    0    0  501 -0.00000000000E+00 -0.00000000000E+00 -0.69631218998E+03  0.69631218999E+03  0.25500000000E-02 0.  1.
    8880022    1    1    2    0    0  0.12934111508E+04  0.50976924112E+03  0.46306809941E+03  0.14732958976E+04  0.15294330000E+03 0.  0.
    8880022    1    1    2    0    0 -0.12934111508E+04 -0.50976924112E+03  0.23665765830E+04  0.27489731647E+04  0.15294330000E+03 0.  0.
<mgrwt>
<rscale>  0 0.13986310E+04</rscale>
<asrwt>0</asrwt>
<pdfrwt beam="1">  1        2 0.54245491E+00 0.13986310E+04</pdfrwt>
<pdfrwt beam="2">  1       -2 0.10712495E+00 0.13986310E+04</pdfrwt>
<totfact> 0.53129621E-01</totfact>
</mgrwt>
</event>
<event>
 4    1  0.1033139E-008  0.3237728E+03  0.7818608E-02  0.1073926E+00
         -2   -1    0    0    0  501 -0.00000000000E+00  0.00000000000E+00  0.83798997895E+02  0.83798997934E+02  0.25500000000E-02 0.  1.
          2   -1    0    0  501    0  0.00000000000E+00 -0.00000000000E+00 -0.16791182110E+04  0.16791182110E+04  0.25500000000E-02 0. -1.
    8880022    1    1    2    0    0 -0.25406318089E+03  0.12995802991E+03 -0.35255144819E+03  0.47866623660E+03  0.15294330000E+03 0.  1.
    8880022    1    1    2    0    0  0.25406318089E+03 -0.12995802991E+03 -0.12427677649E+04  0.12842509724E+04  0.15294330000E+03 0. -1.
<mgrwt>
<rscale>  0 0.32377283E+03</rscale>
<asrwt>0</asrwt>
<pdfrwt beam="1">  1        2 0.25832585E+00 0.32377283E+03</pdfrwt>
<pdfrwt beam="2">  1       -2 0.12892155E-01 0.32377283E+03</pdfrwt>
<totfact> 0.47992287E+02</totfact>
</mgrwt>
</event>
<event>
 4    1  0.1033139E-008  0.6999105E+03  0.7818608E-02  0.9717385E-01
          2   -1    0    0  501    0  0.00000000000E+00  0.00000000000E+00  0.92887876288E+03  0.92887876289E+03  0.25500000000E-02 0. -1.
         -2   -1    0    0    0  501 -0.00000000000E+00 -0.00000000000E+00 -0.75647650275E+03  0.75647650276E+03  0.25500000000E-02 0.  1.
    8880022    1    1    2    0    0 -0.64379223640E+03  0.22806700983E+03 -0.37753437352E+03  0.79524012777E+03  0.15294330000E+03 0.  0.
    8880022    1    1    2    0    0  0.64379223640E+03 -0.22806700983E+03  0.54993663365E+03  0.89011513787E+03  0.15294330000E+03 0.  0.
<mgrwt>
<rscale>  0 0.69991046E+03</rscale>
<asrwt>0</asrwt>
<pdfrwt beam="1">  1        2 0.14290442E+00 0.69991046E+03</pdfrwt>
<pdfrwt beam="2">  1       -2 0.11638100E+00 0.69991046E+03</pdfrwt>
<totfact> 0.16404235E+01</totfact>
</mgrwt>
</event>
<event>
 4    1  0.1033139E-008  0.4735244E+03  0.7818608E-02  0.1020930E+00
          2   -1    0    0  501    0  0.00000000000E+00  0.00000000000E+00  0.84314106651E+03  0.84314106652E+03  0.25500000000E-02 0. -1.
         -2   -1    0    0    0  501 -0.00000000000E+00 -0.00000000000E+00 -0.25215332931E+04  0.25215332931E+04  0.25500000000E-02 0.  1.
    8880022    1    1    2    0    0 -0.44673286000E+03 -0.35544584541E+02  0.75195359347E+03  0.88862788918E+03  0.15294330000E+03 0.  0.
    8880022    1    1    2    0    0  0.44673286000E+03  0.35544584541E+02 -0.24303458201E+04  0.24760464705E+04  0.15294330000E+03 0.  0.
<mgrwt>
<rscale>  0 0.47352436E+03</rscale>
<asrwt>0</asrwt>
<pdfrwt beam="1">  1        2 0.12971401E+00 0.47352436E+03</pdfrwt>
<pdfrwt beam="2">  1       -2 0.38792819E+00 0.47352436E+03</pdfrwt>
<totfact> 0.32831775E-01</totfact>
</mgrwt>
</event>
<event>
 4    1  0.1257767E-008  0.1566405E+04  0.7818608E-02  0.8841457E-01
         -2   -1    0    0    0  501 -0.00000000000E+00  0.00000000000E+00  0.19827917619E+04  0.19827917619E+04  0.25500000000E-02 0.  1.
          2   -1    0    0  501    0  0.00000000000E+00 -0.00000000000E+00 -0.24796291118E+04  0.24796291118E+04  0.25500000000E-02 0. -1.
    8880022    1    1    2    0    0  0.15533261546E+04 -0.13194649425E+03 -0.18276207024E+04  0.24070357506E+04  0.15294330000E+03 0.  0.
    8880022    1    1    2    0    0 -0.15533261546E+04  0.13194649425E+03  0.13307833525E+04  0.20553851231E+04  0.15294330000E+03 0.  0.
<mgrwt>
<rscale>  0 0.15664047E+04</rscale>
<asrwt>0</asrwt>
<pdfrwt beam="1">  1        2 0.38148140E+00 0.15664047E+04</pdfrwt>
<pdfrwt beam="2">  1       -2 0.30504489E+00 0.15664047E+04</pdfrwt>
<totfact> 0.98490364E-02</totfact>
</mgrwt>
</event>
<event>
 4    1  0.1033139E-008  0.2945617E+03  0.7818608E-02  0.1087991E+00
          2   -1    0    0  501    0  0.00000000000E+00  0.00000000000E+00  0.23173814710E+04  0.23173814710E+04  0.25500000000E-02 0. -1.
         -2   -1    0    0    0  501 -0.00000000000E+00 -0.00000000000E+00 -0.52819079605E+03  0.52819079606E+03  0.25500000000E-02 0.  1.
    8880022    1    1    2    0    0  0.23688712880E+03  0.85202462026E+02  0.22660263885E+04  0.22850912931E+04  0.15294330000E+03 0.  0.
    8880022    1    1    2    0    0 -0.23688712880E+03 -0.85202462026E+02 -0.47683571361E+03  0.56048097391E+03  0.15294330000E+03 0.  0.
<mgrwt>
<rscale>  0 0.29456175E+03</rscale>
<asrwt>0</asrwt>
<pdfrwt beam="1">  1        2 0.35652024E+00 0.29456175E+03</pdfrwt>
<pdfrwt beam="2">  1       -2 0.81260120E-01 0.29456175E+03</pdfrwt>
<totfact> 0.69806441E+00</totfact>
</mgrwt>
</event>
<event>
 4    1  0.1033139E-008  0.1147337E+04  0.7818608E-02  0.9160244E-01
          2   -1    0    0  501    0  0.00000000000E+00  0.00000000000E+00  0.71059463913E+03  0.71059463914E+03  0.25500000000E-02 0. -1.
         -2   -1    0    0    0  501 -0.00000000000E+00 -0.00000000000E+00 -0.19532866088E+04  0.19532866088E+04  0.25500000000E-02 0.  1.
    8880022    1    1    2    0    0 -0.28829941193E+03 -0.10999425023E+04 -0.31880257326E+03  0.11908051029E+04  0.15294330000E+03 0.  0.
    8880022    1    1    2    0    0  0.28829941193E+03  0.10999425023E+04 -0.92388939640E+03  0.14730761450E+04  0.15294330000E+03 0.  0.
<mgrwt>
<rscale>  0 0.11473368E+04</rscale>
<asrwt>0</asrwt>
<pdfrwt beam="1">  1        2 0.10932225E+00 0.11473368E+04</pdfrwt>
<pdfrwt beam="2">  1       -2 0.30050563E+00 0.11473368E+04</pdfrwt>
<totfact> 0.12529456E+00</totfact>
</mgrwt>
</event>
<event>
 4    1  0.1033139E-008  0.3819786E+03  0.7818608E-02  0.1050205E+00
          2   -1    0    0  501    0  0.00000000000E+00  0.00000000000E+00  0.11008283142E+04  0.11008283142E+04  0.25500000000E-02 0. -1.
         -2   -1    0    0    0  501 -0.00000000000E+00 -0.00000000000E+00 -0.33619407721E+03  0.33619407722E+03  0.25500000000E-02 0.  1.
    8880022    1    1    2    0    0  0.25863663144E+03  0.23584551342E+03  0.94153532900E+03  0.10160691129E+04  0.15294330000E+03 0.  0.
    8880022    1    1    2    0    0 -0.25863663144E+03 -0.23584551342E+03 -0.17690109204E+03  0.42095327853E+03  0.15294330000E+03 0.  0.
<mgrwt>
<rscale>  0 0.38197862E+03</rscale>
<asrwt>0</asrwt>
<pdfrwt beam="1">  1        2 0.16935820E+00 0.38197862E+03</pdfrwt>
<pdfrwt beam="2">  1       -2 0.51722166E-01 0.38197862E+03</pdfrwt>
<totfact> 0.81287948E+01</totfact>
</mgrwt>
</event>
<event>
 4    1  0.1033139E-008  0.4551790E+03  0.7818608E-02  0.1026189E+00
         -2   -1    0    0    0  501 -0.00000000000E+00  0.00000000000E+00  0.67629004012E+03  0.67629004013E+03  0.25500000000E-02 0.  1.
          2   -1    0    0  501    0  0.00000000000E+00 -0.00000000000E+00 -0.39349449275E+03  0.39349449276E+03  0.25500000000E-02 0. -1.
    8880022    1    1    2    0    0  0.15955143018E+03  0.39791914662E+03 -0.11030789264E+03  0.46835434269E+03  0.15294330000E+03 0.  0.
    8880022    1    1    2    0    0 -0.15955143018E+03 -0.39791914662E+03  0.39310344001E+03  0.60143019020E+03  0.15294330000E+03 0.  0.
<mgrwt>
<rscale>  0 0.45517904E+03</rscale>
<asrwt>0</asrwt>
<pdfrwt beam="1">  1        2 0.60537615E-01 0.45517904E+03</pdfrwt>
<pdfrwt beam="2">  1       -2 0.10404462E+00 0.45517904E+03</pdfrwt>
<totfact> 0.62861173E+01</totfact>
</mgrwt>
</event>
<event>
 4    1  0.1033139E-008  0.3437041E+03  0.7818608E-02  0.1065229E+00
          2   -1    0    0  501    0  0.00000000000E+00  0.00000000000E+00  0.25662725498E+04  0.25662725498E+04  0.25500000000E-02 0. -1.
         -2   -1    0    0    0  501 -0.00000000000E+00 -0.00000000000E+00 -0.17070792283E+03  0.17070792285E+03  0.25500000000E-02 0.  1.
    8880022    1    1    2    0    0  0.29171416197E+03  0.98202469137E+02  0.23672948709E+04  0.23921157029E+04  0.15294330000E+03 0.  0.
    8880022    1    1    2    0    0 -0.29171416197E+03 -0.98202469137E+02  0.28269755981E+02  0.34486476967E+03  0.15294330000E+03 0.  0.
<mgrwt>
<rscale>  0 0.34370413E+03</rscale>
<asrwt>0</asrwt>
<pdfrwt beam="1">  1        2 0.39481115E+00 0.34370413E+03</pdfrwt>
<pdfrwt beam="2">  1       -2 0.26262758E-01 0.34370413E+03</pdfrwt>
<totfact> 0.47248887E+01</totfact>
</mgrwt>
</event>
<event>
 4    1  0.1033139E-008  0.2084353E+03  0.7818608E-02  0.1142811E+00
          2   -1    0    0  501    0  0.00000000000E+00  0.00000000000E+00  0.32932419859E+03  0.32932419860E+03  0.25500000000E-02 0. -1.
         -2   -1    0    0    0  501 -0.00000000000E+00 -0.00000000000E+00 -0.58644691864E+03  0.58644691865E+03  0.25500000000E-02 0.  1.
    8880022    1    1    2    0    0  0.36669612963E+02 -0.13678066224E+03 -0.53166917181E+03  0.57106687117E+03  0.15294330000E+03 0.  0.
    8880022    1    1    2    0    0 -0.36669612963E+02  0.13678066224E+03  0.27454645175E+03  0.34470424608E+03  0.15294330000E+03 0. -1.
<mgrwt>
<rscale>  0 0.20843527E+03</rscale>
<asrwt>0</asrwt>
<pdfrwt beam="1">  1        2 0.50665261E-01 0.20843527E+03</pdfrwt>
<pdfrwt beam="2">  1       -2 0.90222603E-01 0.20843527E+03</pdfrwt>
<totfact> 0.10912887E+02</totfact>
</mgrwt>
</event>
<event>
 4    1  0.1033139E-008  0.2287817E+03  0.7818608E-02  0.1127500E+00
         -2   -1    0    0    0  501 -0.00000000000E+00  0.00000000000E+00  0.85660934536E+02  0.85660934574E+02  0.25500000000E-02 0.  1.
          2   -1    0    0  501    0  0.00000000000E+00 -0.00000000000E+00 -0.19039827746E+04  0.19039827746E+04  0.25500000000E-02 0. -1.
    8880022    1    1    2    0    0  0.15122288964E+03  0.77980987585E+02 -0.17289569851E+04  0.17440278972E+04  0.15294330000E+03 0.  0.
    8880022    1    1    2    0    0 -0.15122288964E+03 -0.77980987585E+02 -0.89364854919E+02  0.24561581196E+03  0.15294330000E+03 0.  1.
<mgrwt>
<rscale>  0 0.22878166E+03</rscale>
<asrwt>0</asrwt>
<pdfrwt beam="1">  1        2 0.29292039E+00 0.22878166E+03</pdfrwt>
<pdfrwt beam="2">  1       -2 0.13178607E-01 0.22878166E+03</pdfrwt>
<totfact> 0.35840423E+02</totfact>
</mgrwt>
</event>
<event>
 4    1  0.1033139E-008  0.1225150E+04  0.7818608E-02  0.9091123E-01
          2   -1    0    0  501    0  0.00000000000E+00  0.00000000000E+00  0.22345935658E+04  0.22345935658E+04  0.25500000000E-02 0. -1.
         -2   -1    0    0    0  501 -0.00000000000E+00 -0.00000000000E+00 -0.12416373530E+04  0.12416373530E+04  0.25500000000E-02 0.  1.
    8880022    1    1    2    0    0 -0.11615467688E+04 -0.35834460236E+03 -0.68110594694E+03  0.14017484490E+04  0.15294330000E+03 0.  0.
    8880022    1    1    2    0    0  0.11615467688E+04  0.35834460236E+03  0.16740621597E+04  0.20744824699E+04  0.15294330000E+03 0.  0.
<mgrwt>
<rscale>  0 0.12251504E+04</rscale>
<asrwt>0</asrwt>
<pdfrwt beam="1">  1        2 0.34378362E+00 0.12251504E+04</pdfrwt>
<pdfrwt beam="2">  1       -2 0.19102113E+00 0.12251504E+04</pdfrwt>
<totfact> 0.73065834E-01</totfact>
</mgrwt>
</event>
<event>
 4    1  0.1033139E-008  0.8176110E+03  0.7818608E-02  0.9534870E-01
         -2   -1    0    0    0  501 -0.00000000000E+00  0.00000000000E+00  0.43274499758E+03  0.43274499759E+03  0.25500000000E-02 0.  1.
          2   -1    0    0  501    0  0.00000000000E+00 -0.00000000000E+00 -0.19823460122E+04  0.19823460122E+04  0.25500000000E-02 0. -1.
    8880022    1    1    2    0    0 -0.69699354088E+03  0.39911915933E+03 -0.20745866598E+03  0.84352050982E+03  0.15294330000E+03 0.  0.
    8880022    1    1    2    0    0  0.69699354088E+03 -0.39911915933E+03 -0.13421423486E+04  0.15715705000E+04  0.15294330000E+03 0.  0.
<mgrwt>
<rscale>  0 0.81761100E+03</rscale>
<asrwt>0</asrwt>
<pdfrwt beam="1">  1        2 0.30497630E+00 0.81761100E+03</pdfrwt>
<pdfrwt beam="2">  1       -2 0.66576155E-01 0.81761100E+03</pdfrwt>
<totfact> 0.14519775E+01</totfact>
</mgrwt>
</event>
<event>
 4    1  0.1033139E-008  0.5979697E+03  0.7818608E-02  0.9909627E-01
         -2   -1    0    0    0  501 -0.00000000000E+00  0.00000000000E+00  0.95019994269E+03  0.95019994270E+03  0.25500000000E-02 0.  1.
          2   -1    0    0  501    0  0.00000000000E+00 -0.00000000000E+00 -0.23860868104E+04  0.23860868104E+04  0.25500000000E-02 0. -1.
    8880022    1    1    2    0    0  0.50435061805E+03 -0.28250064230E+03 -0.22489053594E+04  0.23270460089E+04  0.15294330000E+03 0.  0.
    8880022    1    1    2    0    0 -0.50435061805E+03  0.28250064230E+03  0.81301849173E+03  0.10092407442E+04  0.15294330000E+03 0.  0.
<mgrwt>
<rscale>  0 0.59796974E+03</rscale>
<asrwt>0</asrwt>
<pdfrwt beam="1">  1        2 0.36709028E+00 0.59796974E+03</pdfrwt>
<pdfrwt beam="2">  1       -2 0.14618461E+00 0.59796974E+03</pdfrwt>
<totfact> 0.14100968E+00</totfact>
</mgrwt>
</event>
<event>
 4    1  0.1033139E-008  0.6971108E+03  0.7818608E-02  0.9722186E-01
          2   -1    0    0  501    0  0.00000000000E+00  0.00000000000E+00  0.26858267315E+04  0.26858267315E+04  0.25500000000E-02 0. -1.
         -2   -1    0    0    0  501 -0.00000000000E+00 -0.00000000000E+00 -0.51167641542E+03  0.51167641543E+03  0.25500000000E-02 0.  1.
    8880022    1    1    2    0    0 -0.38376189520E+03 -0.56151462314E+03  0.23724409281E+04  0.24727392654E+04  0.15294330000E+03 0. -1.
    8880022    1    1    2    0    0  0.38376189520E+03  0.56151462314E+03 -0.19829061201E+03  0.72476388157E+03  0.15294330000E+03 0.  0.
<mgrwt>
<rscale>  0 0.69711084E+03</rscale>
<asrwt>0</asrwt>
<pdfrwt beam="1">  1        2 0.41320411E+00 0.69711084E+03</pdfrwt>
<pdfrwt beam="2">  1       -2 0.78719450E-01 0.69711084E+03</pdfrwt>
<totfact> 0.41405835E+00</totfact>
</mgrwt>
</event>
<event>
 4    1  0.1033139E-008  0.8280832E+03  0.7818608E-02  0.9520234E-01
          2   -1    0    0  501    0  0.00000000000E+00  0.00000000000E+00  0.13622588568E+04  0.13622588568E+04  0.25500000000E-02 0. -1.
         -2   -1    0    0    0  501 -0.00000000000E+00 -0.00000000000E+00 -0.70066029904E+03  0.70066029905E+03  0.25500000000E-02 0.  1.
    8880022    1    1    2    0    0 -0.79921069941E+03  0.15359804332E+03  0.87813034716E+03  0.12069940599E+04  0.15294330000E+03 0.  0.
    8880022    1    1    2    0    0  0.79921069941E+03 -0.15359804332E+03 -0.21653178945E+03  0.85592509592E+03  0.15294330000E+03 0.  0.
<mgrwt>
<rscale>  0 0.82808318E+03</rscale>
<asrwt>0</asrwt>
<pdfrwt beam="1">  1        2 0.20957828E+00 0.82808318E+03</pdfrwt>
<pdfrwt beam="2">  1       -2 0.10779389E+00 0.82808318E+03</pdfrwt>
<totfact> 0.10627004E+01</totfact>
</mgrwt>
</event>
<event>
 4    1  0.1033139E-008  0.9483534E+03  0.7818608E-02  0.9367077E-01
          2   -1    0    0  501    0  0.00000000000E+00  0.00000000000E+00  0.11459828656E+04  0.11459828656E+04  0.25500000000E-02 0. -1.
         -2   -1    0    0    0  501 -0.00000000000E+00 -0.00000000000E+00 -0.27512296861E+04  0.27512296861E+04  0.25500000000E-02 0.  1.
    8880022    1    1    2    0    0  0.90950003104E+03 -0.22088961538E+03  0.84477721092E+03  0.12700483132E+04  0.15294330000E+03 0.  0.
    8880022    1    1    2    0    0 -0.90950003104E+03  0.22088961538E+03 -0.24500240314E+04  0.26271642385E+04  0.15294330000E+03 0.  0.
<mgrwt>
<rscale>  0 0.94835341E+03</rscale>
<asrwt>0</asrwt>
<pdfrwt beam="1">  1        2 0.17630506E+00 0.94835341E+03</pdfrwt>
<pdfrwt beam="2">  1       -2 0.42326610E+00 0.94835341E+03</pdfrwt>
<totfact> 0.10949959E-01</totfact>
</mgrwt>
</event>
<event>
 4    1  0.1033139E-008  0.6500840E+03  0.7818608E-02  0.9806622E-01
         -2   -1    0    0    0  501 -0.00000000000E+00  0.00000000000E+00  0.55348935314E+03  0.55348935314E+03  0.25500000000E-02 0.  1.
          2   -1    0    0  501    0  0.00000000000E+00 -0.00000000000E+00 -0.13907728385E+04  0.13907728385E+04  0.25500000000E-02 0. -1.
    8880022    1    1    2    0    0  0.62873330558E+03  0.62546125799E+02 -0.10714902154E+04  0.12532759162E+04  0.15294330000E+03 0.  0.
    8880022    1    1    2    0    0 -0.62873330558E+03 -0.62546125799E+02  0.23420673007E+03  0.69098627543E+03  0.15294330000E+03 0.  0.
<mgrwt>
<rscale>  0 0.65008403E+03</rscale>
<asrwt>0</asrwt>
<pdfrwt beam="1">  1        2 0.21396505E+00 0.65008403E+03</pdfrwt>
<pdfrwt beam="2">  1       -2 0.85152209E-01 0.65008403E+03</pdfrwt>
<totfact> 0.18202317E+01</totfact>
</mgrwt>
</event>
<event>
 4    1  0.1033139E-008  0.1109350E+04  0.7818608E-02  0.9196127E-01
          2   -1    0    0  501    0  0.00000000000E+00  0.00000000000E+00  0.15930721730E+04  0.15930721730E+04  0.25500000000E-02 0. -1.
         -2   -1    0    0    0  501 -0.00000000000E+00 -0.00000000000E+00 -0.10021908046E+04  0.10021908046E+04  0.25500000000E-02 0.  1.
    8880022    1    1    2    0    0  0.32147853226E+03  0.10506744082E+04 -0.32577569025E+03  0.11561948850E+04  0.15294330000E+03 0.  0.
    8880022    1    1    2    0    0 -0.32147853226E+03 -0.10506744082E+04  0.91665705859E+03  0.14390680925E+04  0.15294330000E+03 0.  0.
<mgrwt>
<rscale>  0 0.11093497E+04</rscale>
<asrwt>0</asrwt>
<pdfrwt beam="1">  1        2 0.24508802E+00 0.11093497E+04</pdfrwt>
<pdfrwt beam="2">  1       -2 0.15418320E+00 0.11093497E+04</pdfrwt>
<totfact> 0.30732647E+00</totfact>
</mgrwt>
</event>
<event>
 4    1  0.1033139E-008  0.5624249E+03  0.7818608E-02  0.9986583E-01
         -2   -1    0    0    0  501 -0.00000000000E+00  0.00000000000E+00  0.33493161181E+04  0.33493161181E+04  0.25500000000E-02 0.  1.
          2   -1    0    0  501    0  0.00000000000E+00 -0.00000000000E+00 -0.55690412122E+03  0.55690412123E+03  0.25500000000E-02 0. -1.
    8880022    1    1    2    0    0 -0.28048338316E+03  0.46288144037E+03  0.31760166405E+04  0.32254307479E+04  0.15294330000E+03 0.  0.
    8880022    1    1    2    0    0  0.28048338316E+03 -0.46288144037E+03 -0.38360464357E+03  0.68078949144E+03  0.15294330000E+03 0. -1.
<mgrwt>
<rscale>  0 0.56242494E+03</rscale>
<asrwt>0</asrwt>
<pdfrwt beam="1">  1        2 0.85677556E-01 0.56242494E+03</pdfrwt>
<pdfrwt beam="2">  1       -2 0.51527941E+00 0.56242494E+03</pdfrwt>
<totfact> 0.79631504E-02</totfact>
</mgrwt>
</event>
<event>
 4    1  0.1033139E-008  0.1488964E+04  0.7818608E-02  0.8891825E-01
         -2   -1    0    0    0  501 -0.00000000000E+00  0.00000000000E+00  0.26822273173E+04  0.26822273173E+04  0.25500000000E-02 0.  1.
          2   -1    0    0  501    0  0.00000000000E+00 -0.00000000000E+00 -0.83018325844E+03  0.83018325845E+03  0.25500000000E-02 0. -1.
    8880022    1    1    2    0    0 -0.95838105648E+03  0.11292158730E+04  0.10420876790E+04  0.18174050514E+04  0.15294330000E+03 0.  0.
    8880022    1    1    2    0    0  0.95838105648E+03 -0.11292158730E+04  0.80995637988E+03  0.16950055243E+04  0.15294330000E+03 0.  0.
<mgrwt>
<rscale>  0 0.14889642E+04</rscale>
<asrwt>0</asrwt>
<pdfrwt beam="1">  1        2 0.12772050E+00 0.14889642E+04</pdfrwt>
<pdfrwt beam="2">  1       -2 0.41265037E+00 0.14889642E+04</pdfrwt>
<totfact> 0.19176268E-01</totfact>
</mgrwt>
</event>
<event>
 4    1  0.1033139E-008  0.7322621E+03  0.7818608E-02  0.9663597E-01
         -2   -1    0    0    0  501 -0.00000000000E+00  0.00000000000E+00  0.11500454799E+04  0.11500454799E+04  0.25500000000E-02 0.  1.
          2   -1    0    0  501    0  0.00000000000E+00 -0.00000000000E+00 -0.78030471662E+03  0.78030471662E+03  0.25500000000E-02 0. -1.
    8880022    1    1    2    0    0 -0.39488082019E+03  0.59739870745E+03 -0.42744791714E+03  0.84789117975E+03  0.15294330000E+03 0.  0.
    8880022    1    1    2    0    0  0.39488082019E+03 -0.59739870745E+03  0.79718868046E+03  0.10824590168E+04  0.15294330000E+03 0.  0.
<mgrwt>
<rscale>  0 0.73226206E+03</rscale>
<asrwt>0</asrwt>
<pdfrwt beam="1">  1        2 0.12004688E+00 0.73226206E+03</pdfrwt>
<pdfrwt beam="2">  1       -2 0.17693008E+00 0.73226206E+03</pdfrwt>
<totfact> 0.69218513E+00</totfact>
</mgrwt>
</event>
<event>
 4    1  0.1033139E-008  0.3323679E+03  0.7818608E-02  0.1070094E+00
          2   -1    0    0  501    0  0.00000000000E+00  0.00000000000E+00  0.19033057344E+04  0.19033057344E+04  0.25500000000E-02 0. -1.
         -2   -1    0    0    0  501 -0.00000000000E+00 -0.00000000000E+00 -0.60479595675E+03  0.60479595676E+03  0.25500000000E-02 0.  1.
    8880022    1    1    2    0    0  0.66154952525E+02 -0.28757657112E+03  0.18416147632E+04  0.18713667068E+04  0.15294330000E+03 0.  0.
    8880022    1    1    2    0    0 -0.66154952525E+02  0.28757657112E+03 -0.54310498557E+03  0.63673498441E+03  0.15294330000E+03 0.  0.
<mgrwt>
<rscale>  0 0.33236789E+03</rscale>
<asrwt>0</asrwt>
<pdfrwt beam="1">  1        2 0.29281626E+00 0.33236789E+03</pdfrwt>
<pdfrwt beam="2">  1       -2 0.93045533E-01 0.33236789E+03</pdfrwt>
<totfact> 0.84125997E+00</totfact>
</mgrwt>
</event>
<event>
 4    1  0.1033139E-008  0.9714355E+03  0.7818608E-02  0.9340441E-01
         -2   -1    0    0    0  501 -0.00000000000E+00  0.00000000000E+00  0.80602646611E+03  0.80602646612E+03  0.25500000000E-02 0.  1.
          2   -1    0    0  501    0  0.00000000000E+00 -0.00000000000E+00 -0.13280956719E+04  0.13280956719E+04  0.25500000000E-02 0. -1.
    8880022    1    1    2    0    0  0.92527749279E+03 -0.25329212288E+03 -0.62827296724E+03  0.11568984020E+04  0.15294330000E+03 0.  0.
    8880022    1    1    2    0    0 -0.92527749279E+03  0.25329212288E+03  0.10620376149E+03  0.97722373597E+03  0.15294330000E+03 0.  0.
<mgrwt>
<rscale>  0 0.97143553E+03</rscale>
<asrwt>0</asrwt>
<pdfrwt beam="1">  1        2 0.20432241E+00 0.97143553E+03</pdfrwt>
<pdfrwt beam="2">  1       -2 0.12400407E+00 0.97143553E+03</pdfrwt>
<totfact> 0.77551892E+00</totfact>
</mgrwt>
</event>
<event>
 4    1  0.1033139E-008  0.1341731E+04  0.7818608E-02  0.8997111E-01
          2   -1    0    0  501    0  0.00000000000E+00  0.00000000000E+00  0.35901498310E+04  0.35901498310E+04  0.25500000000E-02 0. -1.
         -2   -1    0    0    0  501 -0.00000000000E+00 -0.00000000000E+00 -0.74083239058E+03  0.74083239059E+03  0.25500000000E-02 0.  1.
    8880022    1    1    2    0    0  0.13069318752E+04  0.26226027466E+03  0.26556416330E+04  0.29753446042E+04  0.15294330000E+03 0.  0.
    8880022    1    1    2    0    0 -0.13069318752E+04 -0.26226027466E+03  0.19367580742E+03  0.13556376173E+04  0.15294330000E+03 0.  0.
<mgrwt>
<rscale>  0 0.13417314E+04</rscale>
<asrwt>0</asrwt>
<pdfrwt beam="1">  1        2 0.55233074E+00 0.13417314E+04</pdfrwt>
<pdfrwt beam="2">  1       -2 0.11397421E+00 0.13417314E+04</pdfrwt>
<totfact> 0.41459676E-01</totfact>
</mgrwt>
</event>
<event>
 4    1  0.1033139E-008  0.9077492E+03  0.7818608E-02  0.9415946E-01
          2   -1    0    0  501    0  0.00000000000E+00  0.00000000000E+00  0.16620982163E+04  0.16620982163E+04  0.25500000000E-02 0. -1.
         -2   -1    0    0    0  501 -0.00000000000E+00 -0.00000000000E+00 -0.13753375545E+04  0.13753375545E+04  0.25500000000E-02 0.  1.
    8880022    1    1    2    0    0  0.42523594430E+03  0.78726823920E+03  0.13579111121E+04  0.16333802772E+04  0.15294330000E+03 0.  0.
    8880022    1    1    2    0    0 -0.42523594430E+03 -0.78726823920E+03 -0.10711504503E+04  0.14040554935E+04  0.15294330000E+03 0.  0.
<mgrwt>
<rscale>  0 0.90774916E+03</rscale>
<asrwt>0</asrwt>
<pdfrwt beam="1">  1        2 0.25570742E+00 0.90774916E+03</pdfrwt>
<pdfrwt beam="2">  1       -2 0.21159039E+00 0.90774916E+03</pdfrwt>
<totfact> 0.11624462E+00</totfact>
</mgrwt>
</event>
<event>
 4    1  0.1033139E-008  0.8044572E+03  0.7818608E-02  0.9553588E-01
         -2   -1    0    0    0  501 -0.00000000000E+00  0.00000000000E+00  0.41875712210E+03  0.41875712210E+03  0.25500000000E-02 0.  1.
          2   -1    0    0  501    0  0.00000000000E+00 -0.00000000000E+00 -0.28978387416E+04  0.28978387416E+04  0.25500000000E-02 0. -1.
    8880022    1    1    2    0    0  0.76266165060E+03  0.20519981760E+03 -0.10666406894E+03  0.81149777268E+03  0.15294330000E+03 0.  0.
    8880022    1    1    2    0    0 -0.76266165060E+03 -0.20519981760E+03 -0.23724175506E+04  0.25050980910E+04  0.15294330000E+03 0.  0.
<mgrwt>
<rscale>  0 0.80445722E+03</rscale>
<asrwt>0</asrwt>
<pdfrwt beam="1">  1        2 0.44582133E+00 0.80445722E+03</pdfrwt>
<pdfrwt beam="2">  1       -2 0.64424175E-01 0.80445722E+03</pdfrwt>
<totfact> 0.47180427E+00</totfact>
</mgrwt>
</event>
<event>
 4    1  0.1033139E-008  0.4308056E+03  0.7818608E-02  0.1033606E+00
         -2   -1    0    0    0  501 -0.00000000000E+00  0.00000000000E+00  0.34340982808E+03  0.34340982809E+03  0.25500000000E-02 0.  1.
          2   -1    0    0  501    0  0.00000000000E+00 -0.00000000000E+00 -0.20675682637E+04  0.20675682637E+04  0.25500000000E-02 0. -1.
    8880022    1    1    2    0    0 -0.13114130894E+03 -0.38079364639E+03  0.17394676197E+03  0.46459764642E+03  0.15294330000E+03 0.  0.
    8880022    1    1    2    0    0  0.13114130894E+03  0.38079364639E+03 -0.18981051976E+04  0.19463804454E+04  0.15294330000E+03 0.  0.
<mgrwt>
<rscale>  0 0.43080564E+03</rscale>
<asrwt>0</asrwt>
<pdfrwt beam="1">  1        2 0.31808742E+00 0.43080564E+03</pdfrwt>
<pdfrwt beam="2">  1       -2 0.52832282E-01 0.43080564E+03</pdfrwt>
<totfact> 0.22723522E+01</totfact>
</mgrwt>
</event>
<event>
 4    1  0.1033139E-008  0.6813512E+03  0.7818608E-02  0.9749667E-01
          2   -1    0    0  501    0  0.00000000000E+00  0.00000000000E+00  0.11622394019E+04  0.11622394019E+04  0.25500000000E-02 0. -1.
         -2   -1    0    0    0  501 -0.00000000000E+00 -0.00000000000E+00 -0.63338264708E+03  0.63338264708E+03  0.25500000000E-02 0.  1.
    8880022    1    1    2    0    0 -0.60100606947E+02  0.66123797293E+03 -0.28121759885E+03  0.73710428755E+03  0.15294330000E+03 0.  0.
    8880022    1    1    2    0    0  0.60100606947E+02 -0.66123797293E+03  0.81007435371E+03  0.10585177615E+04  0.15294330000E+03 0.  0.
<mgrwt>
<rscale>  0 0.68135115E+03</rscale>
<asrwt>0</asrwt>
<pdfrwt beam="1">  1        2 0.17880606E+00 0.68135115E+03</pdfrwt>
<pdfrwt beam="2">  1       -2 0.97443486E-01 0.68135115E+03</pdfrwt>
<totfact> 0.17998478E+01</totfact>
</mgrwt>
</event>
<event>
 4    1  0.1033139E-008  0.7129357E+03  0.7818608E-02  0.9695363E-01
         -2   -1    0    0    0  501 -0.00000000000E+00  0.00000000000E+00  0.19466405531E+04  0.19466405532E+04  0.25500000000E-02 0.  1.
          2   -1    0    0  501    0  0.00000000000E+00 -0.00000000000E+00 -0.43212174861E+03  0.43212174862E+03  0.25500000000E-02 0. -1.
    8880022    1    1    2    0    0 -0.59300871851E+03  0.36500183387E+03  0.90253404453E+01  0.71299283920E+03  0.15294330000E+03 0.  0.
    8880022    1    1    2    0    0  0.59300871851E+03 -0.36500183387E+03  0.15054934641E+04  0.16657694626E+04  0.15294330000E+03 0.  0.
<mgrwt>
<rscale>  0 0.71293571E+03</rscale>
<asrwt>0</asrwt>
<pdfrwt beam="1">  1        2 0.66480269E-01 0.71293571E+03</pdfrwt>
<pdfrwt beam="2">  1       -2 0.29948316E+00 0.71293571E+03</pdfrwt>
<totfact> 0.24413128E+00</totfact>
</mgrwt>
</event>
<event>
 4    1  0.1033139E-008  0.4680704E+03  0.7818608E-02  0.1022466E+00
         -2   -1    0    0    0  501 -0.00000000000E+00  0.00000000000E+00  0.59980199836E+03  0.59980199837E+03  0.25500000000E-02 0.  1.
          2   -1    0    0  501    0  0.00000000000E+00 -0.00000000000E+00 -0.42864891066E+04  0.42864891066E+04  0.25500000000E-02 0. -1.
    8880022    1    1    2    0    0 -0.44101524285E+03 -0.34695950868E+02  0.49338902065E+03  0.68009016472E+03  0.15294330000E+03 0.  0.
    8880022    1    1    2    0    0  0.44101524285E+03  0.34695950868E+02 -0.41800761289E+04  0.42062009403E+04  0.15294330000E+03 0.  0.
<mgrwt>
<rscale>  0 0.46807041E+03</rscale>
<asrwt>0</asrwt>
<pdfrwt beam="1">  1        2 0.65945984E+00 0.46807041E+03</pdfrwt>
<pdfrwt beam="2">  1       -2 0.92277233E-01 0.46807041E+03</pdfrwt>
<totfact> 0.24411974E-01</totfact>
</mgrwt>
</event>
<event>
 4    1  0.1033139E-008  0.8732091E+03  0.7818608E-02  0.9459705E-01
          2   -1    0    0  501    0  0.00000000000E+00  0.00000000000E+00  0.10907442559E+04  0.10907442559E+04  0.25500000000E-02 0. -1.
         -2   -1    0    0    0  501 -0.00000000000E+00 -0.00000000000E+00 -0.79628823821E+03  0.79628823821E+03  0.25500000000E-02 0.  1.
    8880022    1    1    2    0    0 -0.41148414214E+03  0.75483989509E+03 -0.18246795843E+03  0.89206988254E+03  0.15294330000E+03 0.  0.
    8880022    1    1    2    0    0  0.41148414214E+03 -0.75483989509E+03  0.47692397616E+03  0.99496261162E+03  0.15294330000E+03 0.  0.
<mgrwt>
<rscale>  0 0.87320909E+03</rscale>
<asrwt>0</asrwt>
<pdfrwt beam="1">  1        2 0.16780681E+00 0.87320909E+03</pdfrwt>
<pdfrwt beam="2">  1       -2 0.12250588E+00 0.87320909E+03</pdfrwt>
<totfact> 0.11182807E+01</totfact>
</mgrwt>
</event>
<event>
 4    1  0.1033139E-008  0.5390290E+03  0.7818608E-02  0.1004066E+00
         -2   -1    0    0    0  501 -0.00000000000E+00  0.00000000000E+00  0.80215266889E+03  0.80215266889E+03  0.25500000000E-02 0.  1.
          2   -1    0    0  501    0  0.00000000000E+00 -0.00000000000E+00 -0.12836271472E+04  0.12836271472E+04  0.25500000000E-02 0. -1.
    8880022    1    1    2    0    0 -0.68874819333E+02  0.51226644141E+03 -0.11243171169E+04  0.12468525495E+04  0.15294330000E+03 0.  0.
    8880022    1    1    2    0    0  0.68874819333E+02 -0.51226644141E+03  0.64284263857E+03  0.83892726664E+03  0.15294330000E+03 0.  0.
<mgrwt>
<rscale>  0 0.53902904E+03</rscale>
<asrwt>0</asrwt>
<pdfrwt beam="1">  1        2 0.19748110E+00 0.53902904E+03</pdfrwt>
<pdfrwt beam="2">  1       -2 0.12340810E+00 0.53902904E+03</pdfrwt>
<totfact> 0.88320360E+00</totfact>
</mgrwt>
</event>
<event>
 4    1  0.1033139E-008  0.4958699E+03  0.7818608E-02  0.1014863E+00
          2   -1    0    0  501    0  0.00000000000E+00  0.00000000000E+00  0.12759397158E+04  0.12759397158E+04  0.25500000000E-02 0. -1.
         -2   -1    0    0    0  501 -0.00000000000E+00 -0.00000000000E+00 -0.28609985206E+03  0.28609985207E+03  0.25500000000E-02 0.  1.
    8880022    1    1    2    0    0 -0.44591295461E+03  0.15380803259E+03  0.48696884997E+02  0.49825526952E+03  0.15294330000E+03 0.  0.
    8880022    1    1    2    0    0  0.44591295461E+03 -0.15380803259E+03  0.94114297869E+03  0.10637842983E+04  0.15294330000E+03 0.  1.
<mgrwt>
<rscale>  0 0.49586987E+03</rscale>
<asrwt>0</asrwt>
<pdfrwt beam="1">  1        2 0.19629842E+00 0.49586987E+03</pdfrwt>
<pdfrwt beam="2">  1       -2 0.44015362E-01 0.49586987E+03</pdfrwt>
<totfact> 0.87283877E+01</totfact>
</mgrwt>
</event>
<event>
 4    1  0.1033139E-008  0.5701989E+03  0.7818608E-02  0.9969239E-01
         -2   -1    0    0    0  501 -0.00000000000E+00  0.00000000000E+00  0.13780433614E+03  0.13780433617E+03  0.25500000000E-02 0.  1.
          2   -1    0    0  501    0  0.00000000000E+00 -0.00000000000E+00 -0.29390001966E+04  0.29390001966E+04  0.25500000000E-02 0. -1.
    8880022    1    1    2    0    0 -0.54055153010E+03  0.97668832789E+02 -0.20838140839E+04  0.21604184657E+04  0.15294330000E+03 0.  0.
    8880022    1    1    2    0    0  0.54055153010E+03 -0.97668832789E+02 -0.71738177655E+03  0.91638606708E+03  0.15294330000E+03 0.  0.
<mgrwt>
<rscale>  0 0.57019892E+03</rscale>
<asrwt>0</asrwt>
<pdfrwt beam="1">  1        2 0.45215383E+00 0.57019892E+03</pdfrwt>
<pdfrwt beam="2">  1       -2 0.21200669E-01 0.57019892E+03</pdfrwt>
<totfact> 0.39795302E+01</totfact>
</mgrwt>
</event>
<event>
 4    1  0.1349120E-008  0.9317679E+03  0.7818608E-02  0.9386719E-01
          2   -1    0    0  501    0  0.00000000000E+00  0.00000000000E+00  0.15143576111E+04  0.15143576111E+04  0.25500000000E-02 0. -1.
         -2   -1    0    0    0  501 -0.00000000000E+00 -0.00000000000E+00 -0.14337952856E+04  0.14337952856E+04  0.25500000000E-02 0.  1.
    8880022    1    1    2    0    0  0.91900393802E+03  0.15216141691E+02 -0.11016738118E+04  0.14428709608E+04  0.15294330000E+03 0.  0.
    8880022    1    1    2    0    0 -0.91900393802E+03 -0.15216141691E+02  0.11822361373E+04  0.15052819359E+04  0.15294330000E+03 0.  0.
<mgrwt>
<rscale>  0 0.93176790E+03</rscale>
<asrwt>0</asrwt>
<pdfrwt beam="1">  1        2 0.23297809E+00 0.93176790E+03</pdfrwt>
<pdfrwt beam="2">  1       -2 0.22058389E+00 0.93176790E+03</pdfrwt>
<totfact> 0.12271877E+00</totfact>
</mgrwt>
</event>
<event>
 4    1  0.1033139E-008  0.7279446E+03  0.7818608E-02  0.9670602E-01
         -2   -1    0    0    0  501 -0.00000000000E+00  0.00000000000E+00  0.50306601343E+03  0.50306601344E+03  0.25500000000E-02 0.  1.
          2   -1    0    0  501    0  0.00000000000E+00 -0.00000000000E+00 -0.24466935360E+04  0.24466935360E+04  0.25500000000E-02 0. -1.
    8880022    1    1    2    0    0 -0.70509120045E+03  0.96737547707E+02  0.14118915269E+03  0.74151047460E+03  0.15294330000E+03 0.  0.
    8880022    1    1    2    0    0  0.70509120045E+03 -0.96737547707E+02 -0.20848166753E+04  0.22082490749E+04  0.15294330000E+03 0.  0.
<mgrwt>
<rscale>  0 0.72794465E+03</rscale>
<asrwt>0</asrwt>
<pdfrwt beam="1">  1        2 0.37641438E+00 0.72794465E+03</pdfrwt>
<pdfrwt beam="2">  1       -2 0.77394773E-01 0.72794465E+03</pdfrwt>
<totfact> 0.58542395E+00</totfact>
</mgrwt>
</event>
<event>
 4    1  0.1033139E-008  0.1635907E+03  0.7818608E-02  0.1184701E+00
         -2   -1    0    0    0  501 -0.00000000000E+00  0.00000000000E+00  0.23773686807E+03  0.23773686808E+03  0.25500000000E-02 0.  1.
          2   -1    0    0  501    0  0.00000000000E+00 -0.00000000000E+00 -0.27695799755E+03  0.27695799756E+03  0.25500000000E-02 0. -1.
    8880022    1    1    2    0    0 -0.57193672475E+02  0.99580831566E+01  0.17865556551E+03  0.24223902183E+03  0.15294330000E+03 0.  0.
    8880022    1    1    2    0    0  0.57193672475E+02 -0.99580831566E+01 -0.21787669500E+03  0.27245584382E+03  0.15294330000E+03 0.  0.
<mgrwt>
<rscale>  0 0.16359075E+03</rscale>
<asrwt>0</asrwt>
<pdfrwt beam="1">  1        2 0.42608923E-01 0.16359075E+03</pdfrwt>
<pdfrwt beam="2">  1       -2 0.36574903E-01 0.16359075E+03</pdfrwt>
<totfact> 0.83961844E+02</totfact>
</mgrwt>
</event>
<event>
 4    1  0.1033139E-008  0.1274063E+04  0.7818608E-02  0.9050390E-01
         -2   -1    0    0    0  501 -0.00000000000E+00  0.00000000000E+00  0.15894067525E+04  0.15894067525E+04  0.25500000000E-02 0.  1.
          2   -1    0    0  501    0  0.00000000000E+00 -0.00000000000E+00 -0.13591575311E+04  0.13591575311E+04  0.25500000000E-02 0. -1.
    8880022    1    1    2    0    0 -0.11052495576E+04 -0.61503581354E+03  0.85018351641E+03  0.15316818538E+04  0.15294330000E+03 0.  0.
    8880022    1    1    2    0    0  0.11052495576E+04  0.61503581354E+03 -0.61993429504E+03  0.14168824298E+04  0.15294330000E+03 0.  0.
<mgrwt>
<rscale>  0 0.12740633E+04</rscale>
<asrwt>0</asrwt>
<pdfrwt beam="1">  1        2 0.20910116E+00 0.12740633E+04</pdfrwt>
<pdfrwt beam="2">  1       -2 0.24452412E+00 0.12740633E+04</pdfrwt>
<totfact> 0.10222177E+00</totfact>
</mgrwt>
</event>
<event>
 4    1  0.1033139E-008  0.1217755E+04  0.7818608E-02  0.9097456E-01
         -2   -1    0    0    0  501 -0.00000000000E+00  0.00000000000E+00  0.12964736547E+04  0.12964736547E+04  0.25500000000E-02 0.  1.
          2   -1    0    0  501    0  0.00000000000E+00 -0.00000000000E+00 -0.16702038242E+04  0.16702038242E+04  0.25500000000E-02 0. -1.
    8880022    1    1    2    0    0  0.62443006593E+03  0.10342256769E+04 -0.10196033460E+04  0.15882437767E+04  0.15294330000E+03 0.  0.
    8880022    1    1    2    0    0 -0.62443006593E+03 -0.10342256769E+04  0.64587317654E+03  0.13784337021E+04  0.15294330000E+03 0.  0.
<mgrwt>
<rscale>  0 0.12177550E+04</rscale>
<asrwt>0</asrwt>
<pdfrwt beam="1">  1        2 0.25695443E+00 0.12177550E+04</pdfrwt>
<pdfrwt beam="2">  1       -2 0.19945749E+00 0.12177550E+04</pdfrwt>
<totfact> 0.13228323E+00</totfact>
</mgrwt>
</event>
<event>
 4    1  0.1033139E-008  0.4186845E+03  0.7818608E-02  0.1037495E+00
         -2   -1    0    0    0  501 -0.00000000000E+00  0.00000000000E+00  0.14358365791E+04  0.14358365791E+04  0.25500000000E-02 0.  1.
          2   -1    0    0  501    0  0.00000000000E+00 -0.00000000000E+00 -0.47680261689E+03  0.47680261690E+03  0.25500000000E-02 0. -1.
    8880022    1    1    2    0    0  0.34718476322E+03  0.17710956353E+03  0.13043651424E+04  0.13699142802E+04  0.15294330000E+03 0.  0.
    8880022    1    1    2    0    0 -0.34718476322E+03 -0.17710956353E+03 -0.34533118015E+03  0.54272491587E+03  0.15294330000E+03 0.  0.
<mgrwt>
<rscale>  0 0.41868450E+03</rscale>
<asrwt>0</asrwt>
<pdfrwt beam="1">  1        2 0.73354249E-01 0.41868450E+03</pdfrwt>
<pdfrwt beam="2">  1       -2 0.22089793E+00 0.41868450E+03</pdfrwt>
<totfact> 0.68386655E+00</totfact>
</mgrwt>
</event>
<event>
 4    1  0.1033139E-008  0.1553224E+04  0.7818608E-02  0.8849811E-01
         -2   -1    0    0    0  501 -0.00000000000E+00  0.00000000000E+00  0.15090954799E+04  0.15090954799E+04  0.25500000000E-02 0.  1.
          2   -1    0    0  501    0  0.00000000000E+00 -0.00000000000E+00 -0.26195676871E+04  0.26195676872E+04  0.25500000000E-02 0. -1.
    8880022    1    1    2    0    0 -0.11649764761E+04 -0.10158454043E+04  0.73349308889E+03  0.17177065639E+04  0.15294330000E+03 0.  0.
    8880022    1    1    2    0    0  0.11649764761E+04  0.10158454043E+04 -0.18439652962E+04  0.24109566031E+04  0.15294330000E+03 0.  0.
<mgrwt>
<rscale>  0 0.15532237E+04</rscale>
<asrwt>0</asrwt>
<pdfrwt beam="1">  1        2 0.40301041E+00 0.15532237E+04</pdfrwt>
<pdfrwt beam="2">  1       -2 0.23216854E+00 0.15532237E+04</pdfrwt>
<totfact> 0.22905624E-01</totfact>
</mgrwt>
</event>
<event>
 4    1  0.1033139E-008  0.3431452E+03  0.7818608E-02  0.1065464E+00
          2   -1    0    0  501    0  0.00000000000E+00  0.00000000000E+00  0.13621795716E+04  0.13621795716E+04  0.25500000000E-02 0. -1.
         -2   -1    0    0    0  501 -0.00000000000E+00 -0.00000000000E+00 -0.11784528678E+03  0.11784528681E+03  0.25500000000E-02 0.  1.
    8880022    1    1    2    0    0 -0.30175263834E+03  0.57465906629E+02  0.10041773498E+04  0.10611883848E+04  0.15294330000E+03 0.  0.
    8880022    1    1    2    0    0  0.30175263834E+03 -0.57465906629E+02  0.24015693500E+03  0.41883647359E+03  0.15294330000E+03 0.  0.
<mgrwt>
<rscale>  0 0.34314521E+03</rscale>
<asrwt>0</asrwt>
<pdfrwt beam="1">  1        2 0.20956609E+00 0.34314521E+03</pdfrwt>
<pdfrwt beam="2">  1       -2 0.18130044E-01 0.34314521E+03</pdfrwt>
<totfact> 0.40189034E+02</totfact>
</mgrwt>
</event>
<event>
 4    1  0.1033139E-008  0.4576667E+03  0.7818608E-02  0.1025460E+00
          2   -1    0    0  501    0  0.00000000000E+00  0.00000000000E+00  0.62351169049E+03  0.62351169050E+03  0.25500000000E-02 0. -1.
         -2   -1    0    0    0  501 -0.00000000000E+00 -0.00000000000E+00 -0.16039628836E+04  0.16039628836E+04  0.25500000000E-02 0.  1.
    8880022    1    1    2    0    0  0.32061882848E+03  0.28856661410E+03 -0.14804877370E+04  0.15496137314E+04  0.15294330000E+03 0.  0.
    8880022    1    1    2    0    0 -0.32061882848E+03 -0.28856661410E+03  0.50003654387E+03  0.67786084278E+03  0.15294330000E+03 0.  0.
<mgrwt>
<rscale>  0 0.45766667E+03</rscale>
<asrwt>0</asrwt>
<pdfrwt beam="1">  1        2 0.95924876E-01 0.45766667E+03</pdfrwt>
<pdfrwt beam="2">  1       -2 0.24676352E+00 0.45766667E+03</pdfrwt>
<totfact> 0.34574099E+00</totfact>
</mgrwt>
</event>
<event>
 4    1  0.1033139E-008  0.1829601E+03  0.7818608E-02  0.1164969E+00
         -2   -1    0    0    0  501 -0.00000000000E+00  0.00000000000E+00  0.77686004074E+02  0.77686004116E+02  0.25500000000E-02 0.  1.
          2   -1    0    0  501    0  0.00000000000E+00 -0.00000000000E+00 -0.14816054645E+04  0.14816054645E+04  0.25500000000E-02 0. -1.
    8880022    1    1    2    0    0  0.78094339870E+02  0.63118977950E+02 -0.45402048949E+02  0.18850923150E+03  0.15294330000E+03 0.  1.
    8880022    1    1    2    0    0 -0.78094339870E+02 -0.63118977950E+02 -0.13585174115E+04  0.13707822372E+04  0.15294330000E+03 0.  0.
<mgrwt>
<rscale>  0 0.18296006E+03</rscale>
<asrwt>0</asrwt>
<pdfrwt beam="1">  1        2 0.22793928E+00 0.18296006E+03</pdfrwt>
<pdfrwt beam="2">  1       -2 0.11951694E-01 0.18296006E+03</pdfrwt>
<totfact> 0.70430360E+02</totfact>
</mgrwt>
</event>
<event>
 4    1  0.1033139E-008  0.7530993E+03  0.7818608E-02  0.9630500E-01
          2   -1    0    0  501    0  0.00000000000E+00  0.00000000000E+00  0.11837590504E+04  0.11837590504E+04  0.25500000000E-02 0. -1.
         -2   -1    0    0    0  501 -0.00000000000E+00 -0.00000000000E+00 -0.61953620679E+03  0.61953620679E+03  0.25500000000E-02 0.  1.
    8880022    1    1    2    0    0  0.33210695210E+03 -0.65838585075E+03 -0.14714557018E+03  0.76733983862E+03  0.15294330000E+03 0.  0.
    8880022    1    1    2    0    0 -0.33210695210E+03  0.65838585075E+03  0.71136841376E+03  0.10359554185E+04  0.15294330000E+03 0.  0.
<mgrwt>
<rscale>  0 0.75309934E+03</rscale>
<asrwt>0</asrwt>
<pdfrwt beam="1">  1        2 0.18211677E+00 0.75309934E+03</pdfrwt>
<pdfrwt beam="2">  1       -2 0.95313264E-01 0.75309934E+03</pdfrwt>
<totfact> 0.18248333E+01</totfact>
</mgrwt>
</event>
<event>
 4    1  0.1033139E-008  0.3825787E+03  0.7818608E-02  0.1049985E+00
         -2   -1    0    0    0  501 -0.00000000000E+00  0.00000000000E+00  0.16384906815E+03  0.16384906817E+03  0.25500000000E-02 0.  1.
          2   -1    0    0  501    0  0.00000000000E+00 -0.00000000000E+00 -0.16753802194E+04  0.16753802194E+04  0.25500000000E-02 0. -1.
    8880022    1    1    2    0    0  0.31374134783E+03 -0.15665626932E+03 -0.13840765814E+04  0.14359785710E+04  0.15294330000E+03 0.  0.
    8880022    1    1    2    0    0 -0.31374134783E+03  0.15665626932E+03 -0.12745456983E+03  0.40325071660E+03  0.15294330000E+03 0.  0.
<mgrwt>
<rscale>  0 0.38257871E+03</rscale>
<asrwt>0</asrwt>
<pdfrwt beam="1">  1        2 0.25775079E+00 0.38257871E+03</pdfrwt>
<pdfrwt beam="2">  1       -2 0.25207550E-01 0.38257871E+03</pdfrwt>
<totfact> 0.15215667E+02</totfact>
</mgrwt>
</event>
<event>
 4    1  0.1033139E-008  0.5265819E+03  0.7818608E-02  0.1007064E+00
          2   -1    0    0  501    0  0.00000000000E+00  0.00000000000E+00  0.18473042436E+04  0.18473042436E+04  0.25500000000E-02 0. -1.
         -2   -1    0    0    0  501 -0.00000000000E+00 -0.00000000000E+00 -0.32876867362E+03  0.32876867363E+03  0.25500000000E-02 0.  1.
    8880022    1    1    2    0    0  0.43938897953E+03  0.24664592733E+03  0.15613466297E+04  0.16477535738E+04  0.15294330000E+03 0.  0.
    8880022    1    1    2    0    0 -0.43938897953E+03 -0.24664592733E+03 -0.42811059730E+02  0.52831934344E+03  0.15294330000E+03 0.  0.
<mgrwt>
<rscale>  0 0.52658194E+03</rscale>
<asrwt>0</asrwt>
<pdfrwt beam="1">  1        2 0.28420065E+00 0.52658194E+03</pdfrwt>
<pdfrwt beam="2">  1       -2 0.50579797E-01 0.52658194E+03</pdfrwt>
<totfact> 0.31953909E+01</totfact>
</mgrwt>
</event>
<event>
 4    1  0.1033139E-008  0.7751398E+03  0.7818608E-02  0.9596715E-01
          2   -1    0    0  501    0  0.00000000000E+00  0.00000000000E+00  0.25363068694E+04  0.25363068694E+04  0.25500000000E-02 0. -1.
         -2   -1    0    0    0  501 -0.00000000000E+00 -0.00000000000E+00 -0.62882325575E+03  0.62882325576E+03  0.25500000000E-02 0.  1.
    8880022    1    1    2    0    0  0.66005025259E+03  0.37654189242E+03  0.22031369910E+04  0.23355201534E+04  0.15294330000E+03 0.  0.
    8880022    1    1    2    0    0 -0.66005025259E+03 -0.37654189242E+03 -0.29565337737E+03  0.82960997177E+03  0.15294330000E+03 0.  0.
<mgrwt>
<rscale>  0 0.77513985E+03</rscale>
<asrwt>0</asrwt>
<pdfrwt beam="1">  1        2 0.39020106E+00 0.77513985E+03</pdfrwt>
<pdfrwt beam="2">  1       -2 0.96742039E-01 0.77513985E+03</pdfrwt>
<totfact> 0.30994452E+00</totfact>
</mgrwt>
</event>
<event>
 4    1  0.1033139E-008  0.2169436E+03  0.7818608E-02  0.1136182E+00
          2   -1    0    0  501    0  0.00000000000E+00  0.00000000000E+00  0.75367681933E+03  0.75367681933E+03  0.25500000000E-02 0. -1.
         -2   -1    0    0    0  501 -0.00000000000E+00 -0.00000000000E+00 -0.71408886001E+02  0.71408886047E+02  0.25500000000E-02 0.  1.
    8880022    1    1    2    0    0 -0.11578378771E+03  0.10132613439E+03  0.19498244885E+03  0.29168935425E+03  0.15294330000E+03 0.  0.
    8880022    1    1    2    0    0  0.11578378771E+03 -0.10132613439E+03  0.48728548447E+03  0.53339635113E+03  0.15294330000E+03 0.  0.
<mgrwt>
<rscale>  0 0.21694360E+03</rscale>
<asrwt>0</asrwt>
<pdfrwt beam="1">  1        2 0.11595028E+00 0.21694360E+03</pdfrwt>
<pdfrwt beam="2">  1       -2 0.10985983E-01 0.21694360E+03</pdfrwt>
<totfact> 0.21726553E+03</totfact>
</mgrwt>
</event>
<event>
 4    1  0.1033139E-008  0.8907764E+03  0.7818608E-02  0.9437185E-01
          2   -1    0    0  501    0  0.00000000000E+00  0.00000000000E+00  0.66846470791E+03  0.66846470792E+03  0.25500000000E-02 0. -1.
         -2   -1    0    0    0  501 -0.00000000000E+00 -0.00000000000E+00 -0.13049230393E+04  0.13049230393E+04  0.25500000000E-02 0.  1.
    8880022    1    1    2    0    0 -0.61924438039E+03 -0.62179360034E+03 -0.21644846450E+02  0.89103930130E+03  0.15294330000E+03 0.  0.
    8880022    1    1    2    0    0  0.61924438039E+03  0.62179360034E+03 -0.61481348489E+03  0.10823484459E+04  0.15294330000E+03 0.  0.
<mgrwt>
<rscale>  0 0.89077637E+03</rscale>
<asrwt>0</asrwt>
<pdfrwt beam="1">  1        2 0.10284072E+00 0.89077637E+03</pdfrwt>
<pdfrwt beam="2">  1       -2 0.20075739E+00 0.89077637E+03</pdfrwt>
<totfact> 0.57352508E+00</totfact>
</mgrwt>
</event>
<event>
 4    1  0.1033139E-008  0.1388111E+04  0.7818608E-02  0.8962469E-01
          2   -1    0    0  501    0  0.00000000000E+00  0.00000000000E+00  0.25328426318E+04  0.25328426318E+04  0.25500000000E-02 0. -1.
         -2   -1    0    0    0  501 -0.00000000000E+00 -0.00000000000E+00 -0.10925054060E+04  0.10925054060E+04  0.25500000000E-02 0.  1.
    8880022    1    1    2    0    0  0.13692840270E+04 -0.16888620370E+03 -0.27872387555E+03  0.14158177666E+04  0.15294330000E+03 0.  0.
    8880022    1    1    2    0    0 -0.13692840270E+04  0.16888620370E+03  0.17190611014E+04  0.22095302713E+04  0.15294330000E+03 0.  0.
<mgrwt>
<rscale>  0 0.13881113E+04</rscale>
<asrwt>0</asrwt>
<pdfrwt beam="1">  1        2 0.38966809E+00 0.13881113E+04</pdfrwt>
<pdfrwt beam="2">  1       -2 0.16807776E+00 0.13881113E+04</pdfrwt>
<totfact> 0.69947554E-01</totfact>
</mgrwt>
</event>
<event>
 4    1  0.1033139E-008  0.1256056E+04  0.7818608E-02  0.9065158E-01
          2   -1    0    0  501    0  0.00000000000E+00  0.00000000000E+00  0.22955425873E+04  0.22955425873E+04  0.25500000000E-02 0. -1.
         -2   -1    0    0    0  501 -0.00000000000E+00 -0.00000000000E+00 -0.15426331778E+04  0.15426331778E+04  0.25500000000E-02 0.  1.
    8880022    1    1    2    0    0 -0.55770856270E+03 -0.11150096601E+04  0.18054692529E+04  0.21994081611E+04  0.15294330000E+03 0.  0.
    8880022    1    1    2    0    0  0.55770856270E+03  0.11150096601E+04 -0.10525598434E+04  0.16387676040E+04  0.15294330000E+03 0.  0.
<mgrwt>
<rscale>  0 0.12560561E+04</rscale>
<asrwt>0</asrwt>
<pdfrwt beam="1">  1        2 0.35316040E+00 0.12560561E+04</pdfrwt>
<pdfrwt beam="2">  1       -2 0.23732818E+00 0.12560561E+04</pdfrwt>
<totfact> 0.33926895E-01</totfact>
</mgrwt>
</event>
<event>
 4    1  0.1033139E-008  0.3577499E+03  0.7818608E-02  0.1059478E+00
         -2   -1    0    0    0  501 -0.00000000000E+00  0.00000000000E+00  0.70996618091E+02  0.70996618137E+02  0.25500000000E-02 0.  1.
          2   -1    0    0  501    0  0.00000000000E+00 -0.00000000000E+00 -0.25715695338E+04  0.25715695338E+04  0.25500000000E-02 0. -1.
    8880022    1    1    2    0    0 -0.12431673286E+02 -0.32316992986E+03 -0.19727658284E+04  0.20049413998E+04  0.15294330000E+03 0.  0.
    8880022    1    1    2    0    0  0.12431673286E+02  0.32316992986E+03 -0.52780708731E+03  0.63762475210E+03  0.15294330000E+03 0.  1.
<mgrwt>
<rscale>  0 0.35774992E+03</rscale>
<asrwt>0</asrwt>
<pdfrwt beam="1">  1        2 0.39562601E+00 0.35774992E+03</pdfrwt>
<pdfrwt beam="2">  1       -2 0.10922559E-01 0.35774992E+03</pdfrwt>
<totfact> 0.20697833E+02</totfact>
</mgrwt>
</event>
<event>
 4    1  0.1033139E-008  0.4419733E+03  0.7818608E-02  0.1030143E+00
         -2   -1    0    0    0  501 -0.00000000000E+00  0.00000000000E+00  0.38726393120E+03  0.38726393121E+03  0.25500000000E-02 0.  1.
          2   -1    0    0  501    0  0.00000000000E+00 -0.00000000000E+00 -0.76593137108E+03  0.76593137108E+03  0.25500000000E-02 0. -1.
    8880022    1    1    2    0    0 -0.15576031037E+03 -0.38430129038E+03  0.14758894359E+03  0.46596448938E+03  0.15294330000E+03 0.  1.
    8880022    1    1    2    0    0  0.15576031037E+03  0.38430129038E+03 -0.52625638346E+03  0.68723081292E+03  0.15294330000E+03 0.  0.
<mgrwt>
<rscale>  0 0.44197331E+03</rscale>
<asrwt>0</asrwt>
<pdfrwt beam="1">  1        2 0.11783560E+00 0.44197331E+03</pdfrwt>
<pdfrwt beam="2">  1       -2 0.59579066E-01 0.44197331E+03</pdfrwt>
<totfact> 0.99592054E+01</totfact>
</mgrwt>
</event>
<event>
 4    1  0.1033139E-008  0.6133343E+03  0.7818608E-02  0.9878121E-01
         -2   -1    0    0    0  501 -0.00000000000E+00  0.00000000000E+00  0.12843662563E+04  0.12843662563E+04  0.25500000000E-02 0.  1.
          2   -1    0    0  501    0  0.00000000000E+00 -0.00000000000E+00 -0.79290047767E+03  0.79290047768E+03  0.25500000000E-02 0. -1.
    8880022    1    1    2    0    0  0.50933590083E+03  0.30555567812E+03  0.10705205619E+04  0.12337719638E+04  0.15294330000E+03 0.  0.
    8880022    1    1    2    0    0 -0.50933590083E+03 -0.30555567812E+03 -0.57905478323E+03  0.84349477017E+03  0.15294330000E+03 0.  0.
<mgrwt>
<rscale>  0 0.61333432E+03</rscale>
<asrwt>0</asrwt>
<pdfrwt beam="1">  1        2 0.12198469E+00 0.61333432E+03</pdfrwt>
<pdfrwt beam="2">  1       -2 0.19759481E+00 0.61333432E+03</pdfrwt>
<totfact> 0.50111140E+00</totfact>
</mgrwt>
</event>
<event>
 4    1  0.1033139E-008  0.3259268E+03  0.7818608E-02  0.1072954E+00
          2   -1    0    0  501    0  0.00000000000E+00  0.00000000000E+00  0.84300267091E+03  0.84300267091E+03  0.25500000000E-02 0. -1.
         -2   -1    0    0    0  501 -0.00000000000E+00 -0.00000000000E+00 -0.23577669620E+03  0.23577669621E+03  0.25500000000E-02 0.  1.
    8880022    1    1    2    0    0  0.14565785154E+03  0.24823453516E+03  0.67164366281E+03  0.74654769236E+03  0.15294330000E+03 0.  0.
    8880022    1    1    2    0    0 -0.14565785154E+03 -0.24823453516E+03 -0.64417688095E+02  0.33223167476E+03  0.15294330000E+03 0.  1.
<mgrwt>
<rscale>  0 0.32592675E+03</rscale>
<asrwt>0</asrwt>
<pdfrwt beam="1">  1        2 0.12969272E+00 0.32592675E+03</pdfrwt>
<pdfrwt beam="2">  1       -2 0.36273338E-01 0.32592675E+03</pdfrwt>
<totfact> 0.23869875E+02</totfact>
</mgrwt>
</event>
<event>
 4    1  0.1033139E-008  0.9831542E+03  0.7818608E-02  0.9327216E-01
          2   -1    0    0  501    0  0.00000000000E+00  0.00000000000E+00  0.11594730057E+04  0.11594730057E+04  0.25500000000E-02 0. -1.
         -2   -1    0    0    0  501 -0.00000000000E+00 -0.00000000000E+00 -0.10239921667E+04  0.10239921667E+04  0.25500000000E-02 0.  1.
    8880022    1    1    2    0    0  0.89529105023E+03 -0.37637002514E+03 -0.40295283784E+03  0.10625267540E+04  0.15294330000E+03 0.  0.
    8880022    1    1    2    0    0 -0.89529105023E+03  0.37637002514E+03  0.53843367682E+03  0.11209384184E+04  0.15294330000E+03 0.  0.
<mgrwt>
<rscale>  0 0.98315417E+03</rscale>
<asrwt>0</asrwt>
<pdfrwt beam="1">  1        2 0.17838046E+00 0.98315417E+03</pdfrwt>
<pdfrwt beam="2">  1       -2 0.15753726E+00 0.98315417E+03</pdfrwt>
<totfact> 0.52269360E+00</totfact>
</mgrwt>
</event>
<event>
 4    1  0.1033139E-008  0.1670431E+04  0.7818608E-02  0.8778410E-01
          2   -1    0    0  501    0  0.00000000000E+00  0.00000000000E+00  0.83373975143E+03  0.83373975143E+03  0.25500000000E-02 0. -1.
         -2   -1    0    0    0  501 -0.00000000000E+00 -0.00000000000E+00 -0.40243022015E+04  0.40243022015E+04  0.25500000000E-02 0.  1.
    8880022    1    1    2    0    0  0.62547505202E+03  0.15413403577E+04 -0.25919452636E+04  0.30835889871E+04  0.15294330000E+03 0. -1.
    8880022    1    1    2    0    0 -0.62547505202E+03 -0.15413403577E+04 -0.59861718648E+03  0.17744529658E+04  0.15294330000E+03 0.  0.
<mgrwt>
<rscale>  0 0.16704313E+04</rscale>
<asrwt>0</asrwt>
<pdfrwt beam="1">  1        2 0.12826766E+00 0.16704313E+04</pdfrwt>
<pdfrwt beam="2">  1       -2 0.61912341E+00 0.16704313E+04</pdfrwt>
<totfact> 0.12684073E-02</totfact>
</mgrwt>
</event>
<event>
 4    1  0.1033139E-008  0.1536504E+04  0.7818608E-02  0.8860535E-01
          2   -1    0    0  501    0  0.00000000000E+00  0.00000000000E+00  0.18756524800E+04  0.18756524800E+04  0.25500000000E-02 0. -1.
         -2   -1    0    0    0  501 -0.00000000000E+00 -0.00000000000E+00 -0.14965214531E+04  0.14965214531E+04  0.25500000000E-02 0.  1.
    8880022    1    1    2    0    0  0.13080389025E+04  0.79150867177E+03 -0.48261151420E+03  0.16105145993E+04  0.15294330000E+03 0.  0.
    8880022    1    1    2    0    0 -0.13080389025E+04 -0.79150867177E+03  0.86174254115E+03  0.17616593337E+04  0.15294330000E+03 0.  0.
<mgrwt>
<rscale>  0 0.15365036E+04</rscale>
<asrwt>0</asrwt>
<pdfrwt beam="1">  1        2 0.28856192E+00 0.15365036E+04</pdfrwt>
<pdfrwt beam="2">  1       -2 0.23023407E+00 0.15365036E+04</pdfrwt>
<totfact> 0.62401833E-01</totfact>
</mgrwt>
</event>
<event>
 4    1  0.1033139E-008  0.5270501E+03  0.7818608E-02  0.1006950E+00
         -2   -1    0    0    0  501 -0.00000000000E+00  0.00000000000E+00  0.31312430266E+03  0.31312430267E+03  0.25500000000E-02 0.  1.
          2   -1    0    0  501    0  0.00000000000E+00 -0.00000000000E+00 -0.30584965432E+04  0.30584965432E+04  0.25500000000E-02 0. -1.
    8880022    1    1    2    0    0 -0.18533522663E+03 -0.46908525046E+03 -0.27931211357E+04  0.28424122590E+04  0.15294330000E+03 0.  0.
    8880022    1    1    2    0    0  0.18533522663E+03  0.46908525046E+03  0.47748895149E+02  0.52920858688E+03  0.15294330000E+03 0.  0.
<mgrwt>
<rscale>  0 0.52705007E+03</rscale>
<asrwt>0</asrwt>
<pdfrwt beam="1">  1        2 0.47053791E+00 0.52705007E+03</pdfrwt>
<pdfrwt beam="2">  1       -2 0.48172972E-01 0.52705007E+03</pdfrwt>
<totfact> 0.73251039E+00</totfact>
</mgrwt>
</event>
<event>
 4    1  0.1033139E-008  0.1177062E+04  0.7818608E-02  0.9133175E-01
         -2   -1    0    0    0  501 -0.00000000000E+00  0.00000000000E+00  0.16519179550E+04  0.16519179550E+04  0.25500000000E-02 0.  1.
          2   -1    0    0  501    0  0.00000000000E+00 -0.00000000000E+00 -0.12411977596E+04  0.12411977596E+04  0.25500000000E-02 0. -1.
    8880022    1    1    2    0    0 -0.38043478119E+03  0.11033368184E+04  0.10291064728E+04  0.15635007332E+04  0.15294330000E+03 0.  0.
    8880022    1    1    2    0    0  0.38043478119E+03 -0.11033368184E+04 -0.61838627736E+03  0.13296149814E+04  0.15294330000E+03 0.  0.
<mgrwt>
<rscale>  0 0.11770618E+04</rscale>
<asrwt>0</asrwt>
<pdfrwt beam="1">  1        2 0.19095350E+00 0.11770618E+04</pdfrwt>
<pdfrwt beam="2">  1       -2 0.25414122E+00 0.11770618E+04</pdfrwt>
<totfact> 0.10580709E+00</totfact>
</mgrwt>
</event>
<event>
 4    1  0.1033139E-008  0.7342771E+03  0.7818608E-02  0.9660345E-01
         -2   -1    0    0    0  501 -0.00000000000E+00  0.00000000000E+00  0.11383147103E+04  0.11383147103E+04  0.25500000000E-02 0.  1.
          2   -1    0    0  501    0  0.00000000000E+00 -0.00000000000E+00 -0.79233882436E+03  0.79233882437E+03  0.25500000000E-02 0. -1.
    8880022    1    1    2    0    0  0.16815528945E+03  0.69820842227E+03 -0.43922462652E+03  0.85561739572E+03  0.15294330000E+03 0.  0.
    8880022    1    1    2    0    0 -0.16815528945E+03 -0.69820842227E+03  0.78520051248E+03  0.10750361390E+04  0.15294330000E+03 0.  0.
<mgrwt>
<rscale>  0 0.73427710E+03</rscale>
<asrwt>0</asrwt>
<pdfrwt beam="1">  1        2 0.12189828E+00 0.73427710E+03</pdfrwt>
<pdfrwt beam="2">  1       -2 0.17512534E+00 0.73427710E+03</pdfrwt>
<totfact> 0.69809058E+00</totfact>
</mgrwt>
</event>
<event>
 4    1  0.1033139E-008  0.1567768E+04  0.7818608E-02  0.8840598E-01
          2   -1    0    0  501    0  0.00000000000E+00  0.00000000000E+00  0.18492831117E+04  0.18492831117E+04  0.25500000000E-02 0. -1.
         -2   -1    0    0    0  501 -0.00000000000E+00 -0.00000000000E+00 -0.13402459290E+04  0.13402459290E+04  0.25500000000E-02 0.  1.
    8880022    1    1    2    0    0 -0.13474442974E+04  0.78670072426E+03  0.10913386752E+03  0.15715616495E+04  0.15294330000E+03 0.  0.
    8880022    1    1    2    0    0  0.13474442974E+04 -0.78670072426E+03  0.39990331523E+03  0.16179673911E+04  0.15294330000E+03 0.  0.
<mgrwt>
<rscale>  0 0.15677678E+04</rscale>
<asrwt>0</asrwt>
<pdfrwt beam="1">  1        2 0.28450509E+00 0.15677678E+04</pdfrwt>
<pdfrwt beam="2">  1       -2 0.20619168E+00 0.15677678E+04</pdfrwt>
<totfact> 0.91656129E-01</totfact>
</mgrwt>
</event>
<event>
 4    1  0.1033139E-008  0.1013378E+04  0.7818608E-02  0.9293992E-01
          2   -1    0    0  501    0  0.00000000000E+00  0.00000000000E+00  0.21746350067E+04  0.21746350067E+04  0.25500000000E-02 0. -1.
         -2   -1    0    0    0  501 -0.00000000000E+00 -0.00000000000E+00 -0.18122761136E+04  0.18122761136E+04  0.25500000000E-02 0.  1.
    8880022    1    1    2    0    0 -0.17838177768E+03  0.98576040720E+03 -0.15329897847E+04  0.18376596453E+04  0.15294330000E+03 0.  0.
    8880022    1    1    2    0    0  0.17838177768E+03 -0.98576040720E+03  0.18953486779E+04  0.21492514750E+04  0.15294330000E+03 0.  0.
<mgrwt>
<rscale>  0 0.10133782E+04</rscale>
<asrwt>0</asrwt>
<pdfrwt beam="1">  1        2 0.33455923E+00 0.10133782E+04</pdfrwt>
<pdfrwt beam="2">  1       -2 0.27881171E+00 0.10133782E+04</pdfrwt>
<totfact> 0.23015143E-01</totfact>
</mgrwt>
</event>
<event>
 4    1  0.1033139E-008  0.1328519E+04  0.7818608E-02  0.9007250E-01
         -2   -1    0    0    0  501 -0.00000000000E+00  0.00000000000E+00  0.11926912057E+04  0.11926912057E+04  0.25500000000E-02 0.  1.
          2   -1    0    0  501    0  0.00000000000E+00 -0.00000000000E+00 -0.31448074455E+04  0.31448074455E+04  0.25500000000E-02 0. -1.
    8880022    1    1    2    0    0 -0.14695699093E+03  0.13114780010E+04  0.60198344115E+03  0.14585426359E+04  0.15294330000E+03 0.  0.
    8880022    1    1    2    0    0  0.14695699093E+03 -0.13114780010E+04 -0.25540996810E+04  0.28789560153E+04  0.15294330000E+03 0.  0.
<mgrwt>
<rscale>  0 0.13285189E+04</rscale>
<asrwt>0</asrwt>
<pdfrwt beam="1">  1        2 0.48381653E+00 0.13285189E+04</pdfrwt>
<pdfrwt beam="2">  1       -2 0.18349096E+00 0.13285189E+04</pdfrwt>
<totfact> 0.23364621E-01</totfact>
</mgrwt>
</event>
<event>
 4    1  0.1033139E-008  0.1376485E+04  0.7818608E-02  0.8971018E-01
         -2   -1    0    0    0  501 -0.00000000000E+00  0.00000000000E+00  0.21449457513E+04  0.21449457513E+04  0.25500000000E-02 0.  1.
          2   -1    0    0  501    0  0.00000000000E+00 -0.00000000000E+00 -0.94541520914E+03  0.94541520914E+03  0.25500000000E-02 0. -1.
    8880022    1    1    2    0    0  0.12367537019E+04  0.58460099483E+03  0.99571305643E+03  0.16988685017E+04  0.15294330000E+03 0.  0.
    8880022    1    1    2    0    0 -0.12367537019E+04 -0.58460099483E+03  0.20381748569E+03  0.13914924587E+04  0.15294330000E+03 0.  0.
<mgrwt>
<rscale>  0 0.13764845E+04</rscale>
<asrwt>0</asrwt>
<pdfrwt beam="1">  1        2 0.14544849E+00 0.13764845E+04</pdfrwt>
<pdfrwt beam="2">  1       -2 0.32999165E+00 0.13764845E+04</pdfrwt>
<totfact> 0.54598759E-01</totfact>
</mgrwt>
</event>
<event>
 4    1  0.1033139E-008  0.5807618E+03  0.7818608E-02  0.9946143E-01
         -2   -1    0    0    0  501 -0.00000000000E+00  0.00000000000E+00  0.55819847911E+03  0.55819847911E+03  0.25500000000E-02 0.  1.
          2   -1    0    0  501    0  0.00000000000E+00 -0.00000000000E+00 -0.21748577521E+04  0.21748577521E+04  0.25500000000E-02 0. -1.
    8880022    1    1    2    0    0  0.27023800971E+03  0.49077902557E+03  0.35295526846E+03  0.67960408208E+03  0.15294330000E+03 0.  0.
    8880022    1    1    2    0    0 -0.27023800971E+03 -0.49077902557E+03 -0.19696145414E+04  0.20534521491E+04  0.15294330000E+03 0.  0.
<mgrwt>
<rscale>  0 0.58076182E+03</rscale>
<asrwt>0</asrwt>
<pdfrwt beam="1">  1        2 0.33459349E+00 0.58076182E+03</pdfrwt>
<pdfrwt beam="2">  1       -2 0.85876691E-01 0.58076182E+03</pdfrwt>
<totfact> 0.67437341E+00</totfact>
</mgrwt>
</event>
<event>
 4    1  0.1033139E-008  0.1594028E+04  0.7818608E-02  0.8824225E-01
          2   -1    0    0  501    0  0.00000000000E+00  0.00000000000E+00  0.26633189814E+04  0.26633189814E+04  0.25500000000E-02 0. -1.
         -2   -1    0    0    0  501 -0.00000000000E+00 -0.00000000000E+00 -0.16864014242E+04  0.16864014242E+04  0.25500000000E-02 0.  1.
    8880022    1    1    2    0    0 -0.72747661830E+03  0.14100750245E+04  0.19216765737E+04  0.24967511513E+04  0.15294330000E+03 0.  0.
    8880022    1    1    2    0    0  0.72747661830E+03 -0.14100750245E+04 -0.94475901650E+03  0.18529692543E+04  0.15294330000E+03 0.  0.
<mgrwt>
<rscale>  0 0.15940281E+04</rscale>
<asrwt>0</asrwt>
<pdfrwt beam="1">  1        2 0.40974138E+00 0.15940281E+04</pdfrwt>
<pdfrwt beam="2">  1       -2 0.25944637E+00 0.15940281E+04</pdfrwt>
<totfact> 0.14563877E-01</totfact>
</mgrwt>
</event>
<event>
 4    1  0.1033139E-008  0.9532986E+03  0.7818608E-02  0.9361303E-01
         -2   -1    0    0    0  501 -0.00000000000E+00  0.00000000000E+00  0.13096055640E+04  0.13096055640E+04  0.25500000000E-02 0.  1.
          2   -1    0    0  501    0  0.00000000000E+00 -0.00000000000E+00 -0.87470228390E+03  0.87470228390E+03  0.25500000000E-02 0. -1.
    8880022    1    1    2    0    0  0.11142207333E+03  0.93432949033E+03 -0.27904509468E+03  0.99329969939E+03  0.15294330000E+03 0.  0.
    8880022    1    1    2    0    0 -0.11142207333E+03 -0.93432949033E+03  0.71394837478E+03  0.11910081485E+04  0.15294330000E+03 0.  0.
<mgrwt>
<rscale>  0 0.95329855E+03</rscale>
<asrwt>0</asrwt>
<pdfrwt beam="1">  1        2 0.13456958E+00 0.95329855E+03</pdfrwt>
<pdfrwt beam="2">  1       -2 0.20147778E+00 0.95329855E+03</pdfrwt>
<totfact> 0.39587745E+00</totfact>
</mgrwt>
</event>
<event>
 4    1  0.1033139E-008  0.1161494E+04  0.7818608E-02  0.9147245E-01
          2   -1    0    0  501    0  0.00000000000E+00  0.00000000000E+00  0.23410284001E+04  0.23410284001E+04  0.25500000000E-02 0. -1.
         -2   -1    0    0    0  501 -0.00000000000E+00 -0.00000000000E+00 -0.71477702749E+03  0.71477702749E+03  0.25500000000E-02 0.  1.
    8880022    1    1    2    0    0  0.82292821004E+03 -0.80527340885E+03  0.14054546600E+03  0.11699661461E+04  0.15294330000E+03 0.  0.
    8880022    1    1    2    0    0 -0.82292821004E+03  0.80527340885E+03  0.14857059066E+04  0.18858392815E+04  0.15294330000E+03 0.  0.
<mgrwt>
<rscale>  0 0.11614938E+04</rscale>
<asrwt>0</asrwt>
<pdfrwt beam="1">  1        2 0.36015821E+00 0.11614938E+04</pdfrwt>
<pdfrwt beam="2">  1       -2 0.10996570E+00 0.11614938E+04</pdfrwt>
<totfact> 0.27816328E+00</totfact>
</mgrwt>
</event>
<event>
 4    1  0.1033139E-008  0.1388416E+04  0.7818608E-02  0.8962247E-01
          2   -1    0    0  501    0  0.00000000000E+00  0.00000000000E+00  0.27291446189E+04  0.27291446189E+04  0.25500000000E-02 0. -1.
         -2   -1    0    0    0  501 -0.00000000000E+00 -0.00000000000E+00 -0.11226413588E+04  0.11226413588E+04  0.25500000000E-02 0.  1.
    8880022    1    1    2    0    0  0.11398080336E+04  0.77791031167E+03  0.19760317845E+04  0.24150362467E+04  0.15294330000E+03 0.  0.
    8880022    1    1    2    0    0 -0.11398080336E+04 -0.77791031167E+03 -0.36952852438E+03  0.14367497311E+04  0.15294330000E+03 0.  0.
<mgrwt>
<rscale>  0 0.13884158E+04</rscale>
<asrwt>0</asrwt>
<pdfrwt beam="1">  1        2 0.41986840E+00 0.13884158E+04</pdfrwt>
<pdfrwt beam="2">  1       -2 0.17271406E+00 0.13884158E+04</pdfrwt>
<totfact> 0.49701782E-01</totfact>
</mgrwt>
</event>
<event>
 4    1  0.1033139E-008  0.5179597E+03  0.7818608E-02  0.1009195E+00
         -2   -1    0    0    0  501 -0.00000000000E+00  0.00000000000E+00  0.21839324343E+03  0.21839324344E+03  0.25500000000E-02 0.  1.
          2   -1    0    0  501    0  0.00000000000E+00 -0.00000000000E+00 -0.13805594912E+04  0.13805594912E+04  0.25500000000E-02 0. -1.
    8880022    1    1    2    0    0 -0.49368810228E+03  0.34098420058E+02 -0.84646732458E+03  0.99236547158E+03  0.15294330000E+03 0.  0.
    8880022    1    1    2    0    0  0.49368810228E+03 -0.34098420058E+02 -0.31569892317E+03  0.60658726304E+03  0.15294330000E+03 0.  0.
<mgrwt>
<rscale>  0 0.51795975E+03</rscale>
<asrwt>0</asrwt>
<pdfrwt beam="1">  1        2 0.21239376E+00 0.51795975E+03</pdfrwt>
<pdfrwt beam="2">  1       -2 0.33598961E-01 0.51795975E+03</pdfrwt>
<totfact> 0.12774413E+02</totfact>
</mgrwt>
</event>
<event>
 4    1  0.1033139E-008  0.7650697E+03  0.7818608E-02  0.9612001E-01
          2   -1    0    0  501    0  0.00000000000E+00  0.00000000000E+00  0.30628485684E+04  0.30628485684E+04  0.25500000000E-02 0. -1.
         -2   -1    0    0    0  501 -0.00000000000E+00 -0.00000000000E+00 -0.29020450178E+03  0.29020450179E+03  0.25500000000E-02 0.  1.
    8880022    1    1    2    0    0  0.27182828569E+03  0.69860534853E+03  0.40662953509E+03  0.86641749851E+03  0.15294330000E+03 0.  0.
    8880022    1    1    2    0    0 -0.27182828569E+03 -0.69860534853E+03  0.23660145315E+04  0.24866355717E+04  0.15294330000E+03 0.  0.
<mgrwt>
<rscale>  0 0.76506974E+03</rscale>
<asrwt>0</asrwt>
<pdfrwt beam="1">  1        2 0.47120749E+00 0.76506974E+03</pdfrwt>
<pdfrwt beam="2">  1       -2 0.44646845E-01 0.76506974E+03</pdfrwt>
<totfact> 0.80395897E+00</totfact>
</mgrwt>
</event>
<event>
 4    1  0.1033139E-008  0.6135922E+03  0.7818608E-02  0.9877601E-01
         -2   -1    0    0    0  501 -0.00000000000E+00  0.00000000000E+00  0.15812912250E+04  0.15812912250E+04  0.25500000000E-02 0.  1.
          2   -1    0    0  501    0  0.00000000000E+00 -0.00000000000E+00 -0.29639480355E+03  0.29639480356E+03  0.25500000000E-02 0. -1.
    8880022    1    1    2    0    0  0.38369657804E+03 -0.45374081503E+03  0.22606217615E+03  0.65391096621E+03  0.15294330000E+03 0.  0.
    8880022    1    1    2    0    0 -0.38369657804E+03  0.45374081503E+03  0.10588342453E+04  0.12237750624E+04  0.15294330000E+03 0.  0.
<mgrwt>
<rscale>  0 0.61359225E+03</rscale>
<asrwt>0</asrwt>
<pdfrwt beam="1">  1        2 0.45599200E-01 0.61359225E+03</pdfrwt>
<pdfrwt beam="2">  1       -2 0.24327557E+00 0.61359225E+03</pdfrwt>
<totfact> 0.82044403E+00</totfact>
</mgrwt>
</event>
<event>
 4    1  0.1033139E-008  0.9253760E+03  0.7818608E-02  0.9394405E-01
          2   -1    0    0  501    0  0.00000000000E+00  0.00000000000E+00  0.12714521083E+04  0.12714521083E+04  0.25500000000E-02 0. -1.
         -2   -1    0    0    0  501 -0.00000000000E+00 -0.00000000000E+00 -0.16773398019E+04  0.16773398019E+04  0.25500000000E-02 0.  1.
    8880022    1    1    2    0    0  0.88673554039E+03  0.21593802351E+03 -0.13435512427E+04  0.16313953363E+04  0.15294330000E+03 0.  0.
    8880022    1    1    2    0    0 -0.88673554039E+03 -0.21593802351E+03  0.93766354905E+03  0.13173965739E+04  0.15294330000E+03 0.  0.
<mgrwt>
<rscale>  0 0.92537603E+03</rscale>
<asrwt>0</asrwt>
<pdfrwt beam="1">  1        2 0.19560802E+00 0.92537603E+03</pdfrwt>
<pdfrwt beam="2">  1       -2 0.25805228E+00 0.92537603E+03</pdfrwt>
<totfact> 0.99428956E-01</totfact>
</mgrwt>
</event>
<event>
 4    1  0.1033139E-008  0.1572692E+04  0.7818608E-02  0.8837502E-01
         -2   -1    0    0    0  501 -0.00000000000E+00  0.00000000000E+00  0.27084616896E+04  0.27084616896E+04  0.25500000000E-02 0.  1.
          2   -1    0    0  501    0  0.00000000000E+00 -0.00000000000E+00 -0.13529206018E+04  0.13529206018E+04  0.25500000000E-02 0. -1.
    8880022    1    1    2    0    0  0.15644276407E+04  0.50350921647E+02 -0.47993286695E+03  0.16442920264E+04  0.15294330000E+03 0.  0.
    8880022    1    1    2    0    0 -0.15644276407E+04 -0.50350921647E+02  0.18354739547E+04  0.24170902651E+04  0.15294330000E+03 0.  0.
<mgrwt>
<rscale>  0 0.15726922E+04</rscale>
<asrwt>0</asrwt>
<pdfrwt beam="1">  1        2 0.20814163E+00 0.15726922E+04</pdfrwt>
<pdfrwt beam="2">  1       -2 0.41668641E+00 0.15726922E+04</pdfrwt>
<totfact> 0.83114353E-02</totfact>
</mgrwt>
</event>
<event>
 4    1  0.1033139E-008  0.6547407E+03  0.7818608E-02  0.9797924E-01
         -2   -1    0    0    0  501 -0.00000000000E+00  0.00000000000E+00  0.54466602792E+03  0.54466602793E+03  0.25500000000E-02 0.  1.
          2   -1    0    0  501    0  0.00000000000E+00 -0.00000000000E+00 -0.13668406041E+04  0.13668406041E+04  0.25500000000E-02 0. -1.
    8880022    1    1    2    0    0  0.10835520894E+03  0.62733793315E+03 -0.10335571738E+04  0.12234891982E+04  0.15294330000E+03 0.  0.
    8880022    1    1    2    0    0 -0.10835520894E+03 -0.62733793315E+03  0.21138259758E+03  0.68801743383E+03  0.15294330000E+03 0.  0.
<mgrwt>
<rscale>  0 0.65474070E+03</rscale>
<asrwt>0</asrwt>
<pdfrwt beam="1">  1        2 0.21028317E+00 0.65474070E+03</pdfrwt>
<pdfrwt beam="2">  1       -2 0.83794774E-01 0.65474070E+03</pdfrwt>
<totfact> 0.19462536E+01</totfact>
</mgrwt>
</event>
<event>
 4    1  0.1033139E-008  0.6491793E+03  0.7818608E-02  0.9808320E-01
          2   -1    0    0  501    0  0.00000000000E+00  0.00000000000E+00  0.34107112015E+04  0.34107112015E+04  0.25500000000E-02 0. -1.
         -2   -1    0    0    0  501 -0.00000000000E+00 -0.00000000000E+00 -0.88051620199E+03  0.88051620199E+03  0.25500000000E-02 0.  1.
    8880022    1    1    2    0    0  0.44103107103E+03  0.45114710408E+03  0.32544773036E+04  0.33185925161E+04  0.15294330000E+03 0.  0.
    8880022    1    1    2    0    0 -0.44103107103E+03 -0.45114710408E+03 -0.72428230410E+03  0.97263488740E+03  0.15294330000E+03 0.  0.
<mgrwt>
<rscale>  0 0.64917930E+03</rscale>
<asrwt>0</asrwt>
<pdfrwt beam="1">  1        2 0.52472480E+00 0.64917930E+03</pdfrwt>
<pdfrwt beam="2">  1       -2 0.13546403E+00 0.64917930E+03</pdfrwt>
<totfact> 0.40930718E-01</totfact>
</mgrwt>
</event>
<event>
 4    1  0.1342784E-008  0.1435700E+04  0.7818608E-02  0.8928375E-01
         -2   -1    0    0    0  501 -0.00000000000E+00  0.00000000000E+00  0.19467971347E+04  0.19467971347E+04  0.25500000000E-02 0.  1.
          2   -1    0    0  501    0  0.00000000000E+00 -0.00000000000E+00 -0.22411714004E+04  0.22411714004E+04  0.25500000000E-02 0. -1.
    8880022    1    1    2    0    0  0.55584784984E+03 -0.13148674095E+04 -0.16681410148E+04  0.22008928268E+04  0.15294330000E+03 0.  0.
    8880022    1    1    2    0    0 -0.55584784984E+03  0.13148674095E+04  0.13737667491E+04  0.19870757083E+04  0.15294330000E+03 0.  0.
<mgrwt>
<rscale>  0 0.14357001E+04</rscale>
<asrwt>0</asrwt>
<pdfrwt beam="1">  1        2 0.34479560E+00 0.14357001E+04</pdfrwt>
<pdfrwt beam="2">  1       -2 0.29950725E+00 0.14357001E+04</pdfrwt>
<totfact> 0.14815204E-01</totfact>
</mgrwt>
</event>
<event>
 4    1  0.1033139E-008  0.1861223E+04  0.7818608E-02  0.8674403E-01
          2   -1    0    0  501    0  0.00000000000E+00  0.00000000000E+00  0.27925415332E+04  0.27925415332E+04  0.25500000000E-02 0. -1.
         -2   -1    0    0    0  501 -0.00000000000E+00 -0.00000000000E+00 -0.12894715600E+04  0.12894715600E+04  0.25500000000E-02 0.  1.
    8880022    1    1    2    0    0  0.28455034182E+03  0.18329730632E+04  0.35378912067E+03  0.18945494299E+04  0.15294330000E+03 0.  0.
    8880022    1    1    2    0    0 -0.28455034182E+03 -0.18329730632E+04  0.11492808526E+04  0.21874636633E+04  0.15294330000E+03 0.  0.
<mgrwt>
<rscale>  0 0.18612229E+04</rscale>
<asrwt>0</asrwt>
<pdfrwt beam="1">  1        2 0.42962177E+00 0.18612229E+04</pdfrwt>
<pdfrwt beam="2">  1       -2 0.19838024E+00 0.18612229E+04</pdfrwt>
<totfact> 0.28853554E-01</totfact>
</mgrwt>
</event>
<event>
 4    1  0.1033139E-008  0.3829310E+03  0.7818608E-02  0.1049856E+00
          2   -1    0    0  501    0  0.00000000000E+00  0.00000000000E+00  0.35186980111E+03  0.35186980112E+03  0.25500000000E-02 0. -1.
         -2   -1    0    0    0  501 -0.00000000000E+00 -0.00000000000E+00 -0.10969817269E+04  0.10969817269E+04  0.25500000000E-02 0.  1.
    8880022    1    1    2    0    0 -0.34987887560E+03 -0.28796556472E+02  0.19790736224E+03  0.43104923883E+03  0.15294330000E+03 0. -1.
    8880022    1    1    2    0    0  0.34987887560E+03  0.28796556472E+02 -0.94301928804E+03  0.10178022892E+04  0.15294330000E+03 0.  0.
<mgrwt>
<rscale>  0 0.38293096E+03</rscale>
<asrwt>0</asrwt>
<pdfrwt beam="1">  1        2 0.54133816E-01 0.38293096E+03</pdfrwt>
<pdfrwt beam="2">  1       -2 0.16876642E+00 0.38293096E+03</pdfrwt>
<totfact> 0.21110228E+01</totfact>
</mgrwt>
</event>
<event>
 4    1  0.1033139E-008  0.2034149E+03  0.7818608E-02  0.1146889E+00
          2   -1    0    0  501    0  0.00000000000E+00  0.00000000000E+00  0.15433473801E+04  0.15433473801E+04  0.25500000000E-02 0. -1.
         -2   -1    0    0    0  501 -0.00000000000E+00 -0.00000000000E+00 -0.11423965021E+04  0.11423965021E+04  0.25500000000E-02 0.  1.
    8880022    1    1    2    0    0 -0.13323759933E+03 -0.15288053476E+02  0.15274962402E+04  0.15409809860E+04  0.15294330000E+03 0.  0.
    8880022    1    1    2    0    0  0.13323759933E+03  0.15288053476E+02 -0.11265453622E+04  0.11447628962E+04  0.15294330000E+03 0.  1.
<mgrwt>
<rscale>  0 0.20341493E+03</rscale>
<asrwt>0</asrwt>
<pdfrwt beam="1">  1        2 0.23743806E+00 0.20341493E+03</pdfrwt>
<pdfrwt beam="2">  1       -2 0.17575331E+00 0.20341493E+03</pdfrwt>
<totfact> 0.28495060E+00</totfact>
</mgrwt>
</event>
<event>
 4    1  0.1033139E-008  0.1742731E+04  0.7818608E-02  0.8737362E-01
         -2   -1    0    0    0  501 -0.00000000000E+00  0.00000000000E+00  0.12227466011E+04  0.12227466011E+04  0.25500000000E-02 0.  1.
          2   -1    0    0  501    0  0.00000000000E+00 -0.00000000000E+00 -0.46005486056E+04  0.46005486056E+04  0.25500000000E-02 0. -1.
    8880022    1    1    2    0    0  0.16960724873E+04 -0.37021410602E+03 -0.36638874011E+04  0.40572383351E+04  0.15294330000E+03 0.  0.
    8880022    1    1    2    0    0 -0.16960724873E+04  0.37021410602E+03  0.28608539662E+03  0.17660568716E+04  0.15294330000E+03 0.  0.
<mgrwt>
<rscale>  0 0.17427312E+04</rscale>
<asrwt>0</asrwt>
<pdfrwt beam="1">  1        2 0.70777670E+00 0.17427312E+04</pdfrwt>
<pdfrwt beam="2">  1       -2 0.18811486E+00 0.17427312E+04</pdfrwt>
<totfact> 0.14548658E-02</totfact>
</mgrwt>
</event>
<event>
 4    1  0.1033139E-008  0.9835217E+03  0.7818608E-02  0.9326805E-01
         -2   -1    0    0    0  501 -0.00000000000E+00  0.00000000000E+00  0.38841132404E+03  0.38841132405E+03  0.25500000000E-02 0.  1.
          2   -1    0    0  501    0  0.00000000000E+00 -0.00000000000E+00 -0.38028792242E+04  0.38028792242E+04  0.25500000000E-02 0. -1.
    8880022    1    1    2    0    0  0.86037504679E+01 -0.97151900522E+03 -0.47611161589E+03  0.10927017552E+04  0.15294330000E+03 0.  0.
    8880022    1    1    2    0    0 -0.86037504679E+01  0.97151900522E+03 -0.29383562843E+04  0.30985887931E+04  0.15294330000E+03 0.  0.
<mgrwt>
<rscale>  0 0.98352166E+03</rscale>
<asrwt>0</asrwt>
<pdfrwt beam="1">  1        2 0.58505832E+00 0.98352166E+03</pdfrwt>
<pdfrwt beam="2">  1       -2 0.59755591E-01 0.98352166E+03</pdfrwt>
<totfact> 0.13404635E+00</totfact>
</mgrwt>
</event>
<event>
 4    1  0.1033139E-008  0.1071521E+04  0.7818608E-02  0.9233403E-01
         -2   -1    0    0    0  501 -0.00000000000E+00  0.00000000000E+00  0.98829040796E+03  0.98829040797E+03  0.25500000000E-02 0.  1.
          2   -1    0    0  501    0  0.00000000000E+00 -0.00000000000E+00 -0.22598867196E+04  0.22598867196E+04  0.25500000000E-02 0. -1.
    8880022    1    1    2    0    0  0.53599473937E+03 -0.91513627252E+03  0.49632213266E+03  0.11808861377E+04  0.15294330000E+03 0.  0.
    8880022    1    1    2    0    0 -0.53599473937E+03  0.91513627252E+03 -0.17679184443E+04  0.20672909898E+04  0.15294330000E+03 0.  0.
<mgrwt>
<rscale>  0 0.10715206E+04</rscale>
<asrwt>0</asrwt>
<pdfrwt beam="1">  1        2 0.34767488E+00 0.10715206E+04</pdfrwt>
<pdfrwt beam="2">  1       -2 0.15204468E+00 0.10715206E+04</pdfrwt>
<totfact> 0.13688032E+00</totfact>
</mgrwt>
</event>
<event>
 4    1  0.1033139E-008  0.1163435E+04  0.7818608E-02  0.9145478E-01
          2   -1    0    0  501    0  0.00000000000E+00  0.00000000000E+00  0.26710782958E+04  0.26710782958E+04  0.25500000000E-02 0. -1.
         -2   -1    0    0    0  501 -0.00000000000E+00 -0.00000000000E+00 -0.63330669235E+03  0.63330669236E+03  0.25500000000E-02 0.  1.
    8880022    1    1    2    0    0 -0.11502888079E+04 -0.83817084213E+02  0.17574499407E+04  0.21076554729E+04  0.15294330000E+03 0.  0.
    8880022    1    1    2    0    0  0.11502888079E+04  0.83817084213E+02  0.28032166277E+03  0.11967295153E+04  0.15294330000E+03 0.  0.
<mgrwt>
<rscale>  0 0.11634351E+04</rscale>
<asrwt>0</asrwt>
<pdfrwt beam="1">  1        2 0.41093512E+00 0.11634351E+04</pdfrwt>
<pdfrwt beam="2">  1       -2 0.97431799E-01 0.11634351E+04</pdfrwt>
<totfact> 0.24032136E+00</totfact>
</mgrwt>
</event>
<event>
 4    1  0.1033139E-008  0.7207946E+03  0.7818608E-02  0.9682317E-01
          2   -1    0    0  501    0  0.00000000000E+00  0.00000000000E+00  0.22713779182E+04  0.22713779182E+04  0.25500000000E-02 0. -1.
         -2   -1    0    0    0  501 -0.00000000000E+00 -0.00000000000E+00 -0.12374358759E+04  0.12374358759E+04  0.25500000000E-02 0.  1.
    8880022    1    1    2    0    0  0.45488482386E+03  0.53780392664E+03  0.21009523246E+04  0.22211586142E+04  0.15294330000E+03 0.  0.
    8880022    1    1    2    0    0 -0.45488482386E+03 -0.53780392664E+03 -0.10670102823E+04  0.12876551798E+04  0.15294330000E+03 0.  0.
<mgrwt>
<rscale>  0 0.72079464E+03</rscale>
<asrwt>0</asrwt>
<pdfrwt beam="1">  1        2 0.34944276E+00 0.72079464E+03</pdfrwt>
<pdfrwt beam="2">  1       -2 0.19037475E+00 0.72079464E+03</pdfrwt>
<totfact> 0.76629403E-01</totfact>
</mgrwt>
</event>
<event>
 4    1  0.1033139E-008  0.1838769E+04  0.7818608E-02  0.8685950E-01
          2   -1    0    0  501    0  0.00000000000E+00  0.00000000000E+00  0.26155956057E+04  0.26155956057E+04  0.25500000000E-02 0. -1.
         -2   -1    0    0    0  501 -0.00000000000E+00 -0.00000000000E+00 -0.16555214348E+04  0.16555214348E+04  0.25500000000E-02 0.  1.
    8880022    1    1    2    0    0 -0.93382304736E+03  0.15765959589E+04  0.14798422204E+04  0.23602976405E+04  0.15294330000E+03 0.  0.
    8880022    1    1    2    0    0  0.93382304736E+03 -0.15765959589E+04 -0.51976804950E+03  0.19108194001E+04  0.15294330000E+03 0.  0.
<mgrwt>
<rscale>  0 0.18387691E+04</rscale>
<asrwt>0</asrwt>
<pdfrwt beam="1">  1        2 0.40239933E+00 0.18387691E+04</pdfrwt>
<pdfrwt beam="2">  1       -2 0.25469560E+00 0.18387691E+04</pdfrwt>
<totfact> 0.16177600E-01</totfact>
</mgrwt>
</event>
<event>
 4    1  0.1033139E-008  0.1138779E+04  0.7818608E-02  0.9168198E-01
          2   -1    0    0  501    0  0.00000000000E+00  0.00000000000E+00  0.23487342854E+04  0.23487342854E+04  0.25500000000E-02 0. -1.
         -2   -1    0    0    0  501 -0.00000000000E+00 -0.00000000000E+00 -0.68464283263E+03  0.68464283264E+03  0.25500000000E-02 0.  1.
    8880022    1    1    2    0    0  0.95736857284E+03 -0.59738664129E+03  0.16479952876E+03  0.11506415259E+04  0.15294330000E+03 0.  0.
    8880022    1    1    2    0    0 -0.95736857284E+03  0.59738664129E+03  0.14992919240E+04  0.18827355921E+04  0.15294330000E+03 0.  0.
<mgrwt>
<rscale>  0 0.11387787E+04</rscale>
<asrwt>0</asrwt>
<pdfrwt beam="1">  1        2 0.36134374E+00 0.11387787E+04</pdfrwt>
<pdfrwt beam="2">  1       -2 0.10532967E+00 0.11387787E+04</pdfrwt>
<totfact> 0.30655509E+00</totfact>
</mgrwt>
</event>
<event>
 4    1  0.1033139E-008  0.7469245E+03  0.7818608E-02  0.9640188E-01
          2   -1    0    0  501    0  0.00000000000E+00  0.00000000000E+00  0.22325245812E+04  0.22325245812E+04  0.25500000000E-02 0. -1.
         -2   -1    0    0    0  501 -0.00000000000E+00 -0.00000000000E+00 -0.77895645015E+03  0.77895645016E+03  0.25500000000E-02 0.  1.
    8880022    1    1    2    0    0 -0.62528519554E+03  0.37884423628E+03 -0.51414428538E+03  0.90677479582E+03  0.15294330000E+03 0.  0.
    8880022    1    1    2    0    0  0.62528519554E+03 -0.37884423628E+03  0.19677124164E+04  0.21047062355E+04  0.15294330000E+03 0.  0.
<mgrwt>
<rscale>  0 0.74692448E+03</rscale>
<asrwt>0</asrwt>
<pdfrwt beam="1">  1        2 0.34346531E+00 0.74692448E+03</pdfrwt>
<pdfrwt beam="2">  1       -2 0.11983946E+00 0.74692448E+03</pdfrwt>
<totfact> 0.27517203E+00</totfact>
</mgrwt>
</event>
<event>
 4    1  0.1033139E-008  0.9433493E+03  0.7818608E-02  0.9372958E-01
         -2   -1    0    0    0  501 -0.00000000000E+00  0.00000000000E+00  0.75210211105E+03  0.75210211105E+03  0.25500000000E-02 0.  1.
          2   -1    0    0  501    0  0.00000000000E+00 -0.00000000000E+00 -0.21853800776E+04  0.21853800776E+04  0.25500000000E-02 0. -1.
    8880022    1    1    2    0    0  0.74383455351E+03  0.55966640713E+03  0.27796147860E+03  0.98344830411E+03  0.15294330000E+03 0.  1.
    8880022    1    1    2    0    0 -0.74383455351E+03 -0.55966640713E+03 -0.17112394451E+04  0.19540338845E+04  0.15294330000E+03 0.  0.
<mgrwt>
<rscale>  0 0.94334934E+03</rscale>
<asrwt>0</asrwt>
<pdfrwt beam="1">  1        2 0.33621232E+00 0.94334934E+03</pdfrwt>
<pdfrwt beam="2">  1       -2 0.11570802E+00 0.94334934E+03</pdfrwt>
<totfact> 0.30867995E+00</totfact>
</mgrwt>
</event>
<event>
 4    1  0.1033139E-008  0.6393966E+03  0.7818608E-02  0.9826882E-01
         -2   -1    0    0    0  501 -0.00000000000E+00  0.00000000000E+00  0.44158624249E+03  0.44158624250E+03  0.25500000000E-02 0.  1.
          2   -1    0    0  501    0  0.00000000000E+00 -0.00000000000E+00 -0.27911393531E+04  0.27911393531E+04  0.25500000000E-02 0. -1.
    8880022    1    1    2    0    0  0.13248877048E+03 -0.60653364677E+03  0.14659528953E+03  0.65598641060E+03  0.15294330000E+03 0.  0.
    8880022    1    1    2    0    0 -0.13248877048E+03  0.60653364677E+03 -0.24961484001E+04  0.25767391850E+04  0.15294330000E+03 0.  0.
<mgrwt>
<rscale>  0 0.63939658E+03</rscale>
<asrwt>0</asrwt>
<pdfrwt beam="1">  1        2 0.42940604E+00 0.63939658E+03</pdfrwt>
<pdfrwt beam="2">  1       -2 0.67936347E-01 0.63939658E+03</pdfrwt>
<totfact> 0.50323505E+00</totfact>
</mgrwt>
</event>
<event>
 4    1  0.1033139E-008  0.9363772E+03  0.7818608E-02  0.9381217E-01
         -2   -1    0    0    0  501 -0.00000000000E+00  0.00000000000E+00  0.44920535791E+03  0.44920535791E+03  0.25500000000E-02 0.  1.
          2   -1    0    0  501    0  0.00000000000E+00 -0.00000000000E+00 -0.23350283464E+04  0.23350283464E+04  0.25500000000E-02 0. -1.
    8880022    1    1    2    0    0  0.55660510260E+03  0.73729327583E+03 -0.37900919904E+03  0.10101733716E+04  0.15294330000E+03 0.  0.
    8880022    1    1    2    0    0 -0.55660510260E+03 -0.73729327583E+03 -0.15068137894E+04  0.17740603326E+04  0.15294330000E+03 0.  0.
<mgrwt>
<rscale>  0 0.93637720E+03</rscale>
<asrwt>0</asrwt>
<pdfrwt beam="1">  1        2 0.35923512E+00 0.93637720E+03</pdfrwt>
<pdfrwt beam="2">  1       -2 0.69108518E-01 0.93637720E+03</pdfrwt>
<totfact> 0.84128644E+00</totfact>
</mgrwt>
</event>
<event>
 4    1  0.1033139E-008  0.6104589E+03  0.7818608E-02  0.9883942E-01
          2   -1    0    0  501    0  0.00000000000E+00  0.00000000000E+00  0.25034346725E+04  0.25034346725E+04  0.25500000000E-02 0. -1.
         -2   -1    0    0    0  501 -0.00000000000E+00 -0.00000000000E+00 -0.35688327428E+03  0.35688327429E+03  0.25500000000E-02 0.  1.
    8880022    1    1    2    0    0  0.35372513907E+03  0.47344160557E+03  0.21651626711E+04  0.22495753984E+04  0.15294330000E+03 0.  0.
    8880022    1    1    2    0    0 -0.35372513907E+03 -0.47344160557E+03 -0.18611272868E+02  0.61074254836E+03  0.15294330000E+03 0.  0.
<mgrwt>
<rscale>  0 0.61045891E+03</rscale>
<asrwt>0</asrwt>
<pdfrwt beam="1">  1        2 0.38514378E+00 0.61045891E+03</pdfrwt>
<pdfrwt beam="2">  1       -2 0.54905122E-01 0.61045891E+03</pdfrwt>
<totfact> 0.11625802E+01</totfact>
</mgrwt>
</event>
<event>
 4    1  0.1033139E-008  0.6231710E+03  0.7818608E-02  0.9858466E-01
         -2   -1    0    0    0  501 -0.00000000000E+00  0.00000000000E+00  0.18610961182E+03  0.18610961183E+03  0.25500000000E-02 0.  1.
          2   -1    0    0  501    0  0.00000000000E+00 -0.00000000000E+00 -0.30287409935E+04  0.30287409935E+04  0.25500000000E-02 0. -1.
    8880022    1    1    2    0    0  0.27087418824E+03 -0.53997925044E+03 -0.23178162343E+04  0.24001279478E+04  0.15294330000E+03 0.  0.
    8880022    1    1    2    0    0 -0.27087418824E+03  0.53997925044E+03 -0.52481514735E+03  0.81472265751E+03  0.15294330000E+03 0.  0.
<mgrwt>
<rscale>  0 0.62317098E+03</rscale>
<asrwt>0</asrwt>
<pdfrwt beam="1">  1        2 0.46596012E+00 0.62317098E+03</pdfrwt>
<pdfrwt beam="2">  1       -2 0.28632250E-01 0.62317098E+03</pdfrwt>
<totfact> 0.20261478E+01</totfact>
</mgrwt>
</event>
<event>
 4    1  0.1033139E-008  0.8547702E+03  0.7818608E-02  0.9483957E-01
          2   -1    0    0  501    0  0.00000000000E+00  0.00000000000E+00  0.12471354632E+04  0.12471354632E+04  0.25500000000E-02 0. -1.
         -2   -1    0    0    0  501 -0.00000000000E+00 -0.00000000000E+00 -0.86423803012E+03  0.86423803013E+03  0.25500000000E-02 0.  1.
    8880022    1    1    2    0    0  0.83957978980E+03 -0.48438506077E+02 -0.40771430717E+03  0.94702857486E+03  0.15294330000E+03 0.  0.
    8880022    1    1    2    0    0 -0.83957978980E+03  0.48438506077E+02  0.79061174023E+03  0.11643449184E+04  0.15294330000E+03 0.  0.
<mgrwt>
<rscale>  0 0.85477024E+03</rscale>
<asrwt>0</asrwt>
<pdfrwt beam="1">  1        2 0.19186699E+00 0.85477024E+03</pdfrwt>
<pdfrwt beam="2">  1       -2 0.13295970E+00 0.85477024E+03</pdfrwt>
<totfact> 0.73393045E+00</totfact>
</mgrwt>
</event>
<event>
 4    1  0.1033139E-008  0.1068823E+04  0.7818608E-02  0.9236123E-01
         -2   -1    0    0    0  501 -0.00000000000E+00  0.00000000000E+00  0.58639055873E+03  0.58639055873E+03  0.25500000000E-02 0.  1.
          2   -1    0    0  501    0  0.00000000000E+00 -0.00000000000E+00 -0.26670919159E+04  0.26670919159E+04  0.25500000000E-02 0. -1.
    8880022    1    1    2    0    0 -0.69626515816E+03 -0.79637031557E+03 -0.18849358115E+04  0.21668792113E+04  0.15294330000E+03 0.  0.
    8880022    1    1    2    0    0  0.69626515816E+03  0.79637031557E+03 -0.19576554571E+03  0.10866032633E+04  0.15294330000E+03 0.  0.
<mgrwt>
<rscale>  0 0.10688230E+04</rscale>
<asrwt>0</asrwt>
<pdfrwt beam="1">  1        2 0.41032183E+00 0.10688230E+04</pdfrwt>
<pdfrwt beam="2">  1       -2 0.90213934E-01 0.10688230E+04</pdfrwt>
<totfact> 0.29289137E+00</totfact>
</mgrwt>
</event>
<event>
 4    1  0.1033139E-008  0.3008141E+03  0.7818608E-02  0.1084834E+00
         -2   -1    0    0    0  501 -0.00000000000E+00  0.00000000000E+00  0.66301427277E+03  0.66301427278E+03  0.25500000000E-02 0.  1.
          2   -1    0    0  501    0  0.00000000000E+00 -0.00000000000E+00 -0.15650864684E+04  0.15650864684E+04  0.25500000000E-02 0. -1.
    8880022    1    1    2    0    0 -0.76695581936E+02 -0.24741716377E+03  0.61333176215E+03  0.68312880827E+03  0.15294330000E+03 0.  0.
    8880022    1    1    2    0    0  0.76695581936E+02  0.24741716377E+03 -0.15154039578E+04  0.15449719329E+04  0.15294330000E+03 0.  0.
<mgrwt>
<rscale>  0 0.30081409E+03</rscale>
<asrwt>0</asrwt>
<pdfrwt beam="1">  1        2 0.24078253E+00 0.30081409E+03</pdfrwt>
<pdfrwt beam="2">  1       -2 0.10200220E+00 0.30081409E+03</pdfrwt>
<totfact> 0.10391302E+01</totfact>
</mgrwt>
</event>
<event>
 4    1  0.1033139E-008  0.1430858E+04  0.7818608E-02  0.8931780E-01
         -2   -1    0    0    0  501 -0.00000000000E+00  0.00000000000E+00  0.12461028103E+04  0.12461028103E+04  0.25500000000E-02 0.  1.
          2   -1    0    0  501    0  0.00000000000E+00 -0.00000000000E+00 -0.28864769582E+04  0.28864769582E+04  0.25500000000E-02 0. -1.
    8880022    1    1    2    0    0  0.96329135032E+03 -0.10469156570E+04 -0.21763911412E+04  0.26046175672E+04  0.15294330000E+03 0.  0.
    8880022    1    1    2    0    0 -0.96329135032E+03  0.10469156570E+04  0.53601699335E+03  0.15279622013E+04  0.15294330000E+03 0.  0.
<mgrwt>
<rscale>  0 0.14308579E+04</rscale>
<asrwt>0</asrwt>
<pdfrwt beam="1">  1        2 0.44407338E+00 0.14308579E+04</pdfrwt>
<pdfrwt beam="2">  1       -2 0.19170812E+00 0.14308579E+04</pdfrwt>
<totfact> 0.29383328E-01</totfact>
</mgrwt>
</event>
<event>
 4    1  0.1033139E-008  0.4494537E+03  0.7818608E-02  0.1027885E+00
          2   -1    0    0  501    0  0.00000000000E+00  0.00000000000E+00  0.81253400074E+03  0.81253400074E+03  0.25500000000E-02 0. -1.
         -2   -1    0    0    0  501 -0.00000000000E+00 -0.00000000000E+00 -0.41284652591E+03  0.41284652591E+03  0.25500000000E-02 0.  1.
    8880022    1    1    2    0    0  0.30576890438E+03  0.29175738951E+03 -0.18658916444E+03  0.48664583274E+03  0.15294330000E+03 0.  0.
    8880022    1    1    2    0    0 -0.30576890438E+03 -0.29175738951E+03  0.58627663928E+03  0.73873469392E+03  0.15294330000E+03 0.  0.
<mgrwt>
<rscale>  0 0.44945372E+03</rscale>
<asrwt>0</asrwt>
<pdfrwt beam="1">  1        2 0.12500523E+00 0.44945372E+03</pdfrwt>
<pdfrwt beam="2">  1       -2 0.63514851E-01 0.44945372E+03</pdfrwt>
<totfact> 0.80558415E+01</totfact>
</mgrwt>
</event>
<event>
 4    1  0.1033139E-008  0.5245854E+03  0.7818608E-02  0.1007554E+00
         -2   -1    0    0    0  501 -0.00000000000E+00  0.00000000000E+00  0.54320306834E+03  0.54320306834E+03  0.25500000000E-02 0.  1.
          2   -1    0    0  501    0  0.00000000000E+00 -0.00000000000E+00 -0.24107361287E+04  0.24107361287E+04  0.25500000000E-02 0. -1.
    8880022    1    1    2    0    0  0.43033371030E+03 -0.25809116117E+03  0.37887172683E+03  0.64709627421E+03  0.15294330000E+03 0.  0.
    8880022    1    1    2    0    0 -0.43033371030E+03  0.25809116117E+03 -0.22464047871E+04  0.23068429228E+04  0.15294330000E+03 0. -1.
<mgrwt>
<rscale>  0 0.52458536E+03</rscale>
<asrwt>0</asrwt>
<pdfrwt beam="1">  1        2 0.37088247E+00 0.52458536E+03</pdfrwt>
<pdfrwt beam="2">  1       -2 0.83569704E-01 0.52458536E+03</pdfrwt>
<totfact> 0.53919345E+00</totfact>
</mgrwt>
</event>
<event>
 4    1  0.1033139E-008  0.1444292E+04  0.7818608E-02  0.8922368E-01
          2   -1    0    0  501    0  0.00000000000E+00  0.00000000000E+00  0.47863463742E+04  0.47863463742E+04  0.25500000000E-02 0. -1.
         -2   -1    0    0    0  501 -0.00000000000E+00 -0.00000000000E+00 -0.65670712031E+03  0.65670712032E+03  0.25500000000E-02 0.  1.
    8880022    1    1    2    0    0 -0.84048200088E+03  0.11645500226E+04  0.48643299445E+03  0.15240063845E+04  0.15294330000E+03 0.  0.
    8880022    1    1    2    0    0  0.84048200088E+03 -0.11645500226E+04  0.36432062594E+04  0.39190471100E+04  0.15294330000E+03 0.  0.
<mgrwt>
<rscale>  0 0.14442917E+04</rscale>
<asrwt>0</asrwt>
<pdfrwt beam="1">  1        2 0.73636096E+00 0.14442917E+04</pdfrwt>
<pdfrwt beam="2">  1       -2 0.10103187E+00 0.14442917E+04</pdfrwt>
<totfact> 0.49555819E-02</totfact>
</mgrwt>
</event>
<event>
 4    1  0.1033139E-008  0.1518492E+04  0.7818608E-02  0.8872248E-01
         -2   -1    0    0    0  501 -0.00000000000E+00  0.00000000000E+00  0.24743155633E+04  0.24743155633E+04  0.25500000000E-02 0.  1.
          2   -1    0    0  501    0  0.00000000000E+00 -0.00000000000E+00 -0.11585554046E+04  0.11585554046E+04  0.25500000000E-02 0. -1.
    8880022    1    1    2    0    0 -0.15651293735E+03 -0.15026412245E+04 -0.14554075914E+03  0.15254509873E+04  0.15294330000E+03 0.  0.
    8880022    1    1    2    0    0  0.15651293735E+03  0.15026412245E+04  0.14613009178E+04  0.21074199806E+04  0.15294330000E+03 0.  0.
<mgrwt>
<rscale>  0 0.15184922E+04</rscale>
<asrwt>0</asrwt>
<pdfrwt beam="1">  1        2 0.17823929E+00 0.15184922E+04</pdfrwt>
<pdfrwt beam="2">  1       -2 0.38066393E+00 0.15184922E+04</pdfrwt>
<totfact> 0.18794972E-01</totfact>
</mgrwt>
</event>
<event>
 4    1  0.1033139E-008  0.7113828E+03  0.7818608E-02  0.9697962E-01
         -2   -1    0    0    0  501 -0.00000000000E+00  0.00000000000E+00  0.63045408421E+03  0.63045408421E+03  0.25500000000E-02 0.  1.
          2   -1    0    0  501    0  0.00000000000E+00 -0.00000000000E+00 -0.14862930137E+04  0.14862930137E+04  0.25500000000E-02 0. -1.
    8880022    1    1    2    0    0 -0.60317153582E+03  0.34475789111E+03 -0.11456898478E+04  0.13485810267E+04  0.15294330000E+03 0.  0.
    8880022    1    1    2    0    0  0.60317153582E+03 -0.34475789111E+03  0.28985091834E+03  0.76816607123E+03  0.15294330000E+03 0.  0.
<mgrwt>
<rscale>  0 0.71138285E+03</rscale>
<asrwt>0</asrwt>
<pdfrwt beam="1">  1        2 0.22866046E+00 0.71138285E+03</pdfrwt>
<pdfrwt beam="2">  1       -2 0.96992937E-01 0.71138285E+03</pdfrwt>
<totfact> 0.11811530E+01</totfact>
</mgrwt>
</event>
<event>
 4    1  0.1033139E-008  0.1650499E+04  0.7818608E-02  0.8790111E-01
          2   -1    0    0  501    0  0.00000000000E+00  0.00000000000E+00  0.37147455521E+04  0.37147455521E+04  0.25500000000E-02 0. -1.
         -2   -1    0    0    0  501 -0.00000000000E+00 -0.00000000000E+00 -0.13527995014E+04  0.13527995014E+04  0.25500000000E-02 0.  1.
    8880022    1    1    2    0    0 -0.16433191059E+04  0.16023609163E+02 -0.53361490700E+03  0.17346155084E+04  0.15294330000E+03 0.  0.
    8880022    1    1    2    0    0  0.16433191059E+04 -0.16023609163E+02  0.28955609578E+04  0.33329295452E+04  0.15294330000E+03 0.  0.
<mgrwt>
<rscale>  0 0.16504987E+04</rscale>
<asrwt>0</asrwt>
<pdfrwt beam="1">  1        2 0.57149932E+00 0.16504987E+04</pdfrwt>
<pdfrwt beam="2">  1       -2 0.20812300E+00 0.16504987E+04</pdfrwt>
<totfact> 0.62403295E-02</totfact>
</mgrwt>
</event>
<event>
 4    1  0.1033139E-008  0.7972387E+03  0.7818608E-02  0.9564023E-01
         -2   -1    0    0    0  501 -0.00000000000E+00  0.00000000000E+00  0.21014296382E+04  0.21014296382E+04  0.25500000000E-02 0.  1.
          2   -1    0    0  501    0  0.00000000000E+00 -0.00000000000E+00 -0.10031407078E+04  0.10031407078E+04  0.25500000000E-02 0. -1.
    8880022    1    1    2    0    0  0.27679752009E+03  0.73183406460E+03 -0.74819000742E+03  0.10933333917E+04  0.15294330000E+03 0.  0.
    8880022    1    1    2    0    0 -0.27679752009E+03 -0.73183406460E+03  0.18464789379E+04  0.20112369543E+04  0.15294330000E+03 0.  0.
<mgrwt>
<rscale>  0 0.79723875E+03</rscale>
<asrwt>0</asrwt>
<pdfrwt beam="1">  1        2 0.15432934E+00 0.79723875E+03</pdfrwt>
<pdfrwt beam="2">  1       -2 0.32329687E+00 0.79723875E+03</pdfrwt>
<totfact> 0.59723216E-01</totfact>
</mgrwt>
</event>
<event>
 4    1  0.1033139E-008  0.7680838E+03  0.7818608E-02  0.9607399E-01
          2   -1    0    0  501    0  0.00000000000E+00  0.00000000000E+00  0.14959069377E+04  0.14959069377E+04  0.25500000000E-02 0. -1.
         -2   -1    0    0    0  501 -0.00000000000E+00 -0.00000000000E+00 -0.43155268561E+03  0.43155268562E+03  0.25500000000E-02 0.  1.
    8880022    1    1    2    0    0 -0.30232543741E+03  0.68931879467E+03  0.81503109542E+03  0.11199233948E+04  0.15294330000E+03 0.  0.
    8880022    1    1    2    0    0  0.30232543741E+03 -0.68931879467E+03  0.24932315663E+03  0.80753622844E+03  0.15294330000E+03 0.  0.
<mgrwt>
<rscale>  0 0.76808380E+03</rscale>
<asrwt>0</asrwt>
<pdfrwt beam="1">  1        2 0.23013953E+00 0.76808380E+03</pdfrwt>
<pdfrwt beam="2">  1       -2 0.66392719E-01 0.76808380E+03</pdfrwt>
<totfact> 0.27181572E+01</totfact>
</mgrwt>
</event>
<event>
 4    1  0.1150706E-008  0.1426325E+04  0.7818608E-02  0.8934980E-01
          2   -1    0    0  501    0  0.00000000000E+00  0.00000000000E+00  0.18542027882E+04  0.18542027882E+04  0.25500000000E-02 0. -1.
         -2   -1    0    0    0  501 -0.00000000000E+00 -0.00000000000E+00 -0.21741477504E+04  0.21741477504E+04  0.25500000000E-02 0.  1.
    8880022    1    1    2    0    0  0.13941688359E+04  0.25943317533E+03 -0.15775702490E+04  0.21267655863E+04  0.15294330000E+03 0.  0.
    8880022    1    1    2    0    0 -0.13941688359E+04 -0.25943317533E+03  0.12576252868E+04  0.19015849522E+04  0.15294330000E+03 0.  0.
<mgrwt>
<rscale>  0 0.14263253E+04</rscale>
<asrwt>0</asrwt>
<pdfrwt beam="1">  1        2 0.28526197E+00 0.14263253E+04</pdfrwt>
<pdfrwt beam="2">  1       -2 0.33448427E+00 0.14263253E+04</pdfrwt>
<totfact> 0.14861743E-01</totfact>
</mgrwt>
</event>
<event>
 4    1  0.1033139E-008  0.1048186E+04  0.7818608E-02  0.9257219E-01
          2   -1    0    0  501    0  0.00000000000E+00  0.00000000000E+00  0.18635287027E+04  0.18635287027E+04  0.25500000000E-02 0. -1.
         -2   -1    0    0    0  501 -0.00000000000E+00 -0.00000000000E+00 -0.11241674237E+04  0.11241674237E+04  0.25500000000E-02 0.  1.
    8880022    1    1    2    0    0  0.85195975740E+03  0.59115747969E+03 -0.66047155059E+03  0.12389176390E+04  0.15294330000E+03 0.  0.
    8880022    1    1    2    0    0 -0.85195975740E+03 -0.59115747969E+03  0.13998328296E+04  0.17487784873E+04  0.15294330000E+03 0.  0.
<mgrwt>
<rscale>  0 0.10481862E+04</rscale>
<asrwt>0</asrwt>
<pdfrwt beam="1">  1        2 0.28669672E+00 0.10481862E+04</pdfrwt>
<pdfrwt beam="2">  1       -2 0.17294884E+00 0.10481862E+04</pdfrwt>
<totfact> 0.15989604E+00</totfact>
</mgrwt>
</event>
<event>
 4    1  0.1033139E-008  0.6887820E+03  0.7818608E-02  0.9736611E-01
          2   -1    0    0  501    0  0.00000000000E+00  0.00000000000E+00  0.13320060016E+04  0.13320060016E+04  0.25500000000E-02 0. -1.
         -2   -1    0    0    0  501 -0.00000000000E+00 -0.00000000000E+00 -0.51044268854E+03  0.51044268855E+03  0.25500000000E-02 0.  1.
    8880022    1    1    2    0    0 -0.25599613471E+03 -0.62088237719E+03 -0.95668153786E+02  0.69539412994E+03  0.15294330000E+03 0.  0.
    8880022    1    1    2    0    0  0.25599613471E+03  0.62088237719E+03  0.91723146684E+03  0.11470545602E+04  0.15294330000E+03 0.  0.
<mgrwt>
<rscale>  0 0.68878197E+03</rscale>
<asrwt>0</asrwt>
<pdfrwt beam="1">  1        2 0.20492400E+00 0.68878197E+03</pdfrwt>
<pdfrwt beam="2">  1       -2 0.78529646E-01 0.68878197E+03</pdfrwt>
<totfact> 0.23471430E+01</totfact>
</mgrwt>
</event>
<event>
 4    1  0.1033139E-008  0.3067234E+03  0.7818608E-02  0.1081927E+00
         -2   -1    0    0    0  501 -0.00000000000E+00  0.00000000000E+00  0.17612087507E+04  0.17612087507E+04  0.25500000000E-02 0.  1.
          2   -1    0    0  501    0  0.00000000000E+00 -0.00000000000E+00 -0.84741783594E+02  0.84741783632E+02  0.25500000000E-02 0. -1.
    8880022    1    1    2    0    0  0.25775618136E+03  0.65186768542E+02  0.27707900468E+03  0.41334246294E+03  0.15294330000E+03 0.  0.
    8880022    1    1    2    0    0 -0.25775618136E+03 -0.65186768542E+02  0.13993879625E+04  0.14326080714E+04  0.15294330000E+03 0.  0.
<mgrwt>
<rscale>  0 0.30672336E+03</rscale>
<asrwt>0</asrwt>
<pdfrwt beam="1">  1        2 0.13037198E-01 0.30672336E+03</pdfrwt>
<pdfrwt beam="2">  1       -2 0.27095518E+00 0.30672336E+03</pdfrwt>
<totfact> 0.24798981E+01</totfact>
</mgrwt>
</event>
<event>
 4    1  0.1033139E-008  0.1390612E+04  0.7818608E-02  0.8960642E-01
          2   -1    0    0  501    0  0.00000000000E+00  0.00000000000E+00  0.21459118873E+04  0.21459118873E+04  0.25500000000E-02 0. -1.
         -2   -1    0    0    0  501 -0.00000000000E+00 -0.00000000000E+00 -0.12959187512E+04  0.12959187512E+04  0.25500000000E-02 0.  1.
    8880022    1    1    2    0    0 -0.98273796636E+01  0.13821406288E+04  0.13748110914E+04  0.19554811391E+04  0.15294330000E+03 0.  0.
    8880022    1    1    2    0    0  0.98273796636E+01 -0.13821406288E+04 -0.52481795524E+03  0.14863494994E+04  0.15294330000E+03 0.  0.
<mgrwt>
<rscale>  0 0.13906117E+04</rscale>
<asrwt>0</asrwt>
<pdfrwt beam="1">  1        2 0.33014029E+00 0.13906117E+04</pdfrwt>
<pdfrwt beam="2">  1       -2 0.19937212E+00 0.13906117E+04</pdfrwt>
<totfact> 0.70667349E-01</totfact>
</mgrwt>
</event>
<event>
 4    1  0.1033139E-008  0.5419039E+03  0.7818608E-02  0.1003385E+00
          2   -1    0    0  501    0  0.00000000000E+00  0.00000000000E+00  0.21278798654E+04  0.21278798654E+04  0.25500000000E-02 0. -1.
         -2   -1    0    0    0  501 -0.00000000000E+00 -0.00000000000E+00 -0.20979190850E+03  0.20979190851E+03  0.25500000000E-02 0.  1.
    8880022    1    1    2    0    0 -0.28484884094E+03 -0.43489006072E+03  0.27532252109E+03  0.60783416384E+03  0.15294330000E+03 0.  0.
    8880022    1    1    2    0    0  0.28484884094E+03  0.43489006072E+03  0.16427654358E+04  0.17298376101E+04  0.15294330000E+03 0.  0.
<mgrwt>
<rscale>  0 0.54190394E+03</rscale>
<asrwt>0</asrwt>
<pdfrwt beam="1">  1        2 0.32736612E+00 0.54190394E+03</pdfrwt>
<pdfrwt beam="2">  1       -2 0.32275680E-01 0.54190394E+03</pdfrwt>
<totfact> 0.53876710E+01</totfact>
</mgrwt>
</event>
<event>
 4    1  0.1033139E-008  0.8132408E+03  0.7818608E-02  0.9541047E-01
         -2   -1    0    0    0  501 -0.00000000000E+00  0.00000000000E+00  0.11301546209E+04  0.11301546209E+04  0.25500000000E-02 0.  1.
          2   -1    0    0  501    0  0.00000000000E+00 -0.00000000000E+00 -0.93997348092E+03  0.93997348092E+03  0.25500000000E-02 0. -1.
    8880022    1    1    2    0    0  0.79010369700E+03  0.11706892721E+03  0.73098960360E+03  0.10934836255E+04  0.15294330000E+03 0.  0.
    8880022    1    1    2    0    0 -0.79010369700E+03 -0.11706892721E+03 -0.54080846361E+03  0.97664447629E+03  0.15294330000E+03 0.  0.
<mgrwt>
<rscale>  0 0.81324082E+03</rscale>
<asrwt>0</asrwt>
<pdfrwt beam="1">  1        2 0.14461131E+00 0.81324082E+03</pdfrwt>
<pdfrwt beam="2">  1       -2 0.17386994E+00 0.81324082E+03</pdfrwt>
<totfact> 0.55814185E+00</totfact>
</mgrwt>
</event>
<event>
 4    1  0.1033139E-008  0.3628879E+03  0.7818608E-02  0.1057446E+00
          2   -1    0    0  501    0  0.00000000000E+00  0.00000000000E+00  0.79581809744E+03  0.79581809744E+03  0.25500000000E-02 0. -1.
         -2   -1    0    0    0  501 -0.00000000000E+00 -0.00000000000E+00 -0.36421566307E+03  0.36421566308E+03  0.25500000000E-02 0.  1.
    8880022    1    1    2    0    0 -0.30229824333E+03 -0.13004526696E+03  0.64425617022E+03  0.73942793108E+03  0.15294330000E+03 0.  0.
    8880022    1    1    2    0    0  0.30229824333E+03  0.13004526696E+03 -0.21265373585E+03  0.42060582945E+03  0.15294330000E+03 0.  0.
<mgrwt>
<rscale>  0 0.36288793E+03</rscale>
<asrwt>0</asrwt>
<pdfrwt beam="1">  1        2 0.12243355E+00 0.36288793E+03</pdfrwt>
<pdfrwt beam="2">  1       -2 0.56033179E-01 0.36288793E+03</pdfrwt>
<totfact> 0.10869377E+02</totfact>
</mgrwt>
</event>
<event>
 4    1  0.1033139E-008  0.8082027E+03  0.7818608E-02  0.9548219E-01
          2   -1    0    0  501    0  0.00000000000E+00  0.00000000000E+00  0.29271913336E+04  0.29271913336E+04  0.25500000000E-02 0. -1.
         -2   -1    0    0    0  501 -0.00000000000E+00 -0.00000000000E+00 -0.81723817866E+03  0.81723817866E+03  0.25500000000E-02 0.  1.
    8880022    1    1    2    0    0  0.57787338290E+02 -0.79149264937E+03 -0.54130014997E+03  0.97272683516E+03  0.15294330000E+03 0.  0.
    8880022    1    1    2    0    0 -0.57787338290E+02  0.79149264937E+03  0.26512533050E+04  0.27717026772E+04  0.15294330000E+03 0.  0.
<mgrwt>
<rscale>  0 0.80820272E+03</rscale>
<asrwt>0</asrwt>
<pdfrwt beam="1">  1        2 0.45033712E+00 0.80820272E+03</pdfrwt>
<pdfrwt beam="2">  1       -2 0.12572895E+00 0.80820272E+03</pdfrwt>
<totfact> 0.96131242E-01</totfact>
</mgrwt>
</event>
<event>
 4    1  0.1033139E-008  0.5522703E+03  0.7818608E-02  0.1000970E+00
          2   -1    0    0  501    0  0.00000000000E+00  0.00000000000E+00  0.40128751811E+03  0.40128751812E+03  0.25500000000E-02 0. -1.
         -2   -1    0    0    0  501 -0.00000000000E+00 -0.00000000000E+00 -0.13883414335E+04  0.13883414335E+04  0.25500000000E-02 0.  1.
    8880022    1    1    2    0    0 -0.52974151071E+03  0.31381150917E+02  0.10842530610E+03  0.56281306383E+03  0.15294330000E+03 0.  0.
    8880022    1    1    2    0    0  0.52974151071E+03 -0.31381150917E+02 -0.10954792215E+04  0.12268158878E+04  0.15294330000E+03 0.  0.
<mgrwt>
<rscale>  0 0.55227031E+03</rscale>
<asrwt>0</asrwt>
<pdfrwt beam="1">  1        2 0.61736542E-01 0.55227031E+03</pdfrwt>
<pdfrwt beam="2">  1       -2 0.21359099E+00 0.55227031E+03</pdfrwt>
<totfact> 0.90027113E+00</totfact>
</mgrwt>
</event>
<event>
 4    1  0.1033139E-008  0.1238807E+04  0.7818608E-02  0.9079551E-01
         -2   -1    0    0    0  501 -0.00000000000E+00  0.00000000000E+00  0.72497558486E+03  0.72497558486E+03  0.25500000000E-02 0.  1.
          2   -1    0    0  501    0  0.00000000000E+00 -0.00000000000E+00 -0.29003616574E+04  0.29003616574E+04  0.25500000000E-02 0. -1.
    8880022    1    1    2    0    0  0.83739552875E+03 -0.90001076509E+03 -0.14553537973E+03  0.12473262799E+04  0.15294330000E+03 0.  0.
    8880022    1    1    2    0    0 -0.83739552875E+03  0.90001076509E+03 -0.20298506929E+04  0.23780109624E+04  0.15294330000E+03 0.  0.
<mgrwt>
<rscale>  0 0.12388068E+04</rscale>
<asrwt>0</asrwt>
<pdfrwt beam="1">  1        2 0.44620948E+00 0.12388068E+04</pdfrwt>
<pdfrwt beam="2">  1       -2 0.11153471E+00 0.12388068E+04</pdfrwt>
<totfact> 0.12532150E+00</totfact>
</mgrwt>
</event>
<event>
 4    1  0.1173239E-008  0.1070748E+04  0.7818608E-02  0.9234182E-01
         -2   -1    0    0    0  501 -0.00000000000E+00  0.00000000000E+00  0.15385635605E+04  0.15385635605E+04  0.25500000000E-02 0.  1.
          2   -1    0    0  501    0  0.00000000000E+00 -0.00000000000E+00 -0.32388695181E+04  0.32388695181E+04  0.25500000000E-02 0. -1.
    8880022    1    1    2    0    0  0.63958570073E+03 -0.84500828980E+03 -0.29461440817E+04  0.31346874615E+04  0.15294330000E+03 0.  0.
    8880022    1    1    2    0    0 -0.63958570073E+03  0.84500828980E+03  0.12458381240E+04  0.16427456171E+04  0.15294330000E+03 0.  0.
<mgrwt>
<rscale>  0 0.10707477E+04</rscale>
<asrwt>0</asrwt>
<pdfrwt beam="1">  1        2 0.49828762E+00 0.10707477E+04</pdfrwt>
<pdfrwt beam="2">  1       -2 0.23670209E+00 0.10707477E+04</pdfrwt>
<totfact> 0.96111198E-02</totfact>
</mgrwt>
</event>
<event>
 4    1  0.1033139E-008  0.1046987E+04  0.7818608E-02  0.9258461E-01
         -2   -1    0    0    0  501 -0.00000000000E+00  0.00000000000E+00  0.52894659429E+03  0.52894659429E+03  0.25500000000E-02 0.  1.
          2   -1    0    0  501    0  0.00000000000E+00 -0.00000000000E+00 -0.50828103351E+04  0.50828103351E+04  0.25500000000E-02 0. -1.
    8880022    1    1    2    0    0  0.23250239018E+03  0.10093224468E+04 -0.44363207336E+04  0.45581928949E+04  0.15294330000E+03 0.  0.
    8880022    1    1    2    0    0 -0.23250239018E+03 -0.10093224468E+04 -0.11754300718E+03  0.10535640344E+04  0.15294330000E+03 0.  0.
<mgrwt>
<rscale>  0 0.10469865E+04</rscale>
<asrwt>0</asrwt>
<pdfrwt beam="1">  1        2 0.78197079E+00 0.10469865E+04</pdfrwt>
<pdfrwt beam="2">  1       -2 0.81376403E-01 0.10469865E+04</pdfrwt>
<totfact> 0.39062532E-02</totfact>
</mgrwt>
</event>
<event>
 4    1  0.1033139E-008  0.5025093E+03  0.7818608E-02  0.1013126E+00
         -2   -1    0    0    0  501 -0.00000000000E+00  0.00000000000E+00  0.61525484852E+03  0.61525484853E+03  0.25500000000E-02 0.  1.
          2   -1    0    0  501    0  0.00000000000E+00 -0.00000000000E+00 -0.67582631778E+03  0.67582631778E+03  0.25500000000E-02 0. -1.
    8880022    1    1    2    0    0 -0.46060519942E+03 -0.13025656255E+03 -0.43482256265E+03  0.66451955263E+03  0.15294330000E+03 0.  0.
    8880022    1    1    2    0    0  0.46060519942E+03  0.13025656255E+03  0.37425109340E+03  0.62656161368E+03  0.15294330000E+03 0.  0.
<mgrwt>
<rscale>  0 0.50250928E+03</rscale>
<asrwt>0</asrwt>
<pdfrwt beam="1">  1        2 0.10397328E+00 0.50250928E+03</pdfrwt>
<pdfrwt beam="2">  1       -2 0.94654591E-01 0.50250928E+03</pdfrwt>
<totfact> 0.41745125E+01</totfact>
</mgrwt>
</event>
<event>
 4    1  0.1033139E-008  0.1118805E+04  0.7818608E-02  0.9187054E-01
          2   -1    0    0  501    0  0.00000000000E+00  0.00000000000E+00  0.11032080547E+04  0.11032080547E+04  0.25500000000E-02 0. -1.
         -2   -1    0    0    0  501 -0.00000000000E+00 -0.00000000000E+00 -0.17541380110E+04  0.17541380110E+04  0.25500000000E-02 0.  1.
    8880022    1    1    2    0    0 -0.25070329118E+03 -0.10795747498E+04 -0.11745023767E+04  0.16220916332E+04  0.15294330000E+03 0.  0.
    8880022    1    1    2    0    0  0.25070329118E+03  0.10795747498E+04  0.52357242038E+03  0.12352544325E+04  0.15294330000E+03 0. -1.
<mgrwt>
<rscale>  0 0.11188054E+04</rscale>
<asrwt>0</asrwt>
<pdfrwt beam="1">  1        2 0.16972432E+00 0.11188054E+04</pdfrwt>
<pdfrwt beam="2">  1       -2 0.26986739E+00 0.11188054E+04</pdfrwt>
<totfact> 0.10363255E+00</totfact>
</mgrwt>
</event>
<event>
 4    1  0.1033139E-008  0.1000249E+04  0.7818608E-02  0.9308271E-01
         -2   -1    0    0    0  501 -0.00000000000E+00  0.00000000000E+00  0.69530960125E+03  0.69530960126E+03  0.25500000000E-02 0.  1.
          2   -1    0    0  501    0  0.00000000000E+00 -0.00000000000E+00 -0.20833854167E+04  0.20833854167E+04  0.25500000000E-02 0. -1.
    8880022    1    1    2    0    0 -0.33793030753E+03 -0.92892960479E+03  0.78685400646E+02  0.10033394982E+04  0.15294330000E+03 0.  0.
    8880022    1    1    2    0    0  0.33793030753E+03  0.92892960479E+03 -0.14667612161E+04  0.17753555197E+04  0.15294330000E+03 0.  0.
<mgrwt>
<rscale>  0 0.10002493E+04</rscale>
<asrwt>0</asrwt>
<pdfrwt beam="1">  1        2 0.32052083E+00 0.10002493E+04</pdfrwt>
<pdfrwt beam="2">  1       -2 0.10697071E+00 0.10002493E+04</pdfrwt>
<totfact> 0.42240594E+00</totfact>
</mgrwt>
</event>
<event>
 4    1  0.1033139E-008  0.3415944E+03  0.7818608E-02  0.1066119E+00
          2   -1    0    0  501    0  0.00000000000E+00  0.00000000000E+00  0.31776733134E+04  0.31776733134E+04  0.25500000000E-02 0. -1.
         -2   -1    0    0    0  501 -0.00000000000E+00 -0.00000000000E+00 -0.18103162121E+03  0.18103162123E+03  0.25500000000E-02 0.  1.
    8880022    1    1    2    0    0 -0.12438987090E+03  0.27896643147E+03  0.29977089420E+04  0.30171088253E+04  0.15294330000E+03 0. -1.
    8880022    1    1    2    0    0  0.12438987090E+03 -0.27896643147E+03 -0.10672497944E+01  0.34159610933E+03  0.15294330000E+03 0.  0.
<mgrwt>
<rscale>  0 0.34159444E+03</rscale>
<asrwt>0</asrwt>
<pdfrwt beam="1">  1        2 0.48887278E+00 0.34159444E+03</pdfrwt>
<pdfrwt beam="2">  1       -2 0.27851021E-01 0.34159444E+03</pdfrwt>
<totfact> 0.18662498E+01</totfact>
</mgrwt>
</event>
<event>
 4    1  0.1033139E-008  0.8796632E+03  0.7818608E-02  0.9451367E-01
          2   -1    0    0  501    0  0.00000000000E+00  0.00000000000E+00  0.13953143982E+04  0.13953143982E+04  0.25500000000E-02 0. -1.
         -2   -1    0    0    0  501 -0.00000000000E+00 -0.00000000000E+00 -0.80269108680E+03  0.80269108680E+03  0.25500000000E-02 0.  1.
    8880022    1    1    2    0    0 -0.76186116883E+03  0.41229033642E+03  0.90732603719E+03  0.12637436262E+04  0.15294330000E+03 0.  0.
    8880022    1    1    2    0    0  0.76186116883E+03 -0.41229033642E+03 -0.31470272580E+03  0.93426185875E+03  0.15294330000E+03 0.  0.
<mgrwt>
<rscale>  0 0.87966324E+03</rscale>
<asrwt>0</asrwt>
<pdfrwt beam="1">  1        2 0.21466375E+00 0.87966324E+03</pdfrwt>
<pdfrwt beam="2">  1       -2 0.12349094E+00 0.87966324E+03</pdfrwt>
<totfact> 0.72435316E+00</totfact>
</mgrwt>
</event>
<event>
 4    1  0.1033139E-008  0.1069142E+04  0.7818608E-02  0.9235801E-01
         -2   -1    0    0    0  501 -0.00000000000E+00  0.00000000000E+00  0.14365394139E+04  0.14365394139E+04  0.25500000000E-02 0.  1.
          2   -1    0    0  501    0  0.00000000000E+00 -0.00000000000E+00 -0.12843446281E+04  0.12843446281E+04  0.25500000000E-02 0. -1.
    8880022    1    1    2    0    0  0.76601109195E+03  0.73000067172E+03 -0.76303859318E+03  0.13135042906E+04  0.15294330000E+03 0.  0.
    8880022    1    1    2    0    0 -0.76601109195E+03 -0.73000067172E+03  0.91523337896E+03  0.14073797514E+04  0.15294330000E+03 0.  0.
<mgrwt>
<rscale>  0 0.10691425E+04</rscale>
<asrwt>0</asrwt>
<pdfrwt beam="1">  1        2 0.19759148E+00 0.10691425E+04</pdfrwt>
<pdfrwt beam="2">  1       -2 0.22100606E+00 0.10691425E+04</pdfrwt>
<totfact> 0.16204953E+00</totfact>
</mgrwt>
</event>
<event>
 4    1  0.1033139E-008  0.7412987E+03  0.7818608E-02  0.9649101E-01
         -2   -1    0    0    0  501 -0.00000000000E+00  0.00000000000E+00  0.21553735621E+03  0.21553735622E+03  0.25500000000E-02 0.  1.
          2   -1    0    0  501    0  0.00000000000E+00 -0.00000000000E+00 -0.31743190824E+04  0.31743190824E+04  0.25500000000E-02 0. -1.
    8880022    1    1    2    0    0 -0.58159582466E+03 -0.43344944039E+03 -0.22313339442E+04  0.23512496559E+04  0.15294330000E+03 0.  0.
    8880022    1    1    2    0    0  0.58159582466E+03  0.43344944039E+03 -0.72744778196E+03  0.10386067827E+04  0.15294330000E+03 0.  0.
<mgrwt>
<rscale>  0 0.74129871E+03</rscale>
<asrwt>0</asrwt>
<pdfrwt beam="1">  1        2 0.48835675E+00 0.74129871E+03</pdfrwt>
<pdfrwt beam="2">  1       -2 0.33159596E-01 0.74129871E+03</pdfrwt>
<totfact> 0.12234556E+01</totfact>
</mgrwt>
</event>
<event>
 4    1  0.1033139E-008  0.4490367E+03  0.7818608E-02  0.1028010E+00
         -2   -1    0    0    0  501 -0.00000000000E+00  0.00000000000E+00  0.17999455340E+04  0.17999455340E+04  0.25500000000E-02 0.  1.
          2   -1    0    0  501    0  0.00000000000E+00 -0.00000000000E+00 -0.61172490486E+03  0.61172490487E+03  0.25500000000E-02 0. -1.
    8880022    1    1    2    0    0 -0.10358291493E+03  0.40928332929E+03  0.16839577821E+04  0.17427988206E+04  0.15294330000E+03 0.  0.
    8880022    1    1    2    0    0  0.10358291493E+03 -0.40928332929E+03 -0.49573715300E+03  0.66887161831E+03  0.15294330000E+03 0.  0.
<mgrwt>
<rscale>  0 0.44903665E+03</rscale>
<asrwt>0</asrwt>
<pdfrwt beam="1">  1        2 0.94111526E-01 0.44903665E+03</pdfrwt>
<pdfrwt beam="2">  1       -2 0.27691469E+00 0.44903665E+03</pdfrwt>
<totfact> 0.23461800E+00</totfact>
</mgrwt>
</event>
<event>
 4    1  0.1033139E-008  0.8949170E+03  0.7818608E-02  0.9431958E-01
         -2   -1    0    0    0  501 -0.00000000000E+00  0.00000000000E+00  0.18612653224E+04  0.18612653224E+04  0.25500000000E-02 0.  1.
          2   -1    0    0  501    0  0.00000000000E+00 -0.00000000000E+00 -0.17455977250E+04  0.17455977250E+04  0.25500000000E-02 0. -1.
    8880022    1    1    2    0    0  0.46576906589E+03 -0.74869482504E+03 -0.15076259966E+04  0.17532291814E+04  0.15294330000E+03 0.  0.
    8880022    1    1    2    0    0 -0.46576906589E+03  0.74869482504E+03  0.16232935940E+04  0.18536338660E+04  0.15294330000E+03 0.  0.
<mgrwt>
<rscale>  0 0.89491699E+03</rscale>
<asrwt>0</asrwt>
<pdfrwt beam="1">  1        2 0.26855350E+00 0.89491699E+03</pdfrwt>
<pdfrwt beam="2">  1       -2 0.28634851E+00 0.89491699E+03</pdfrwt>
<totfact> 0.36510512E-01</totfact>
</mgrwt>
</event>
<event>
 4    1  0.1033139E-008  0.4813681E+03  0.7818608E-02  0.1018760E+00
         -2   -1    0    0    0  501 -0.00000000000E+00  0.00000000000E+00  0.99048102121E+03  0.99048102121E+03  0.25500000000E-02 0.  1.
          2   -1    0    0  501    0  0.00000000000E+00 -0.00000000000E+00 -0.54754686836E+03  0.54754686837E+03  0.25500000000E-02 0. -1.
    8880022    1    1    2    0    0  0.35211441753E+02 -0.45506451896E+03  0.80345622976E+03  0.93662005541E+03  0.15294330000E+03 0.  0.
    8880022    1    1    2    0    0 -0.35211441753E+02  0.45506451896E+03 -0.36052207692E+03  0.60140783417E+03  0.15294330000E+03 0. -1.
<mgrwt>
<rscale>  0 0.48136807E+03</rscale>
<asrwt>0</asrwt>
<pdfrwt beam="1">  1        2 0.84237980E-01 0.48136807E+03</pdfrwt>
<pdfrwt beam="2">  1       -2 0.15238170E+00 0.48136807E+03</pdfrwt>
<totfact> 0.16636853E+01</totfact>
</mgrwt>
</event>
<event>
 4    1  0.1033139E-008  0.7454369E+03  0.7818608E-02  0.9642536E-01
          2   -1    0    0  501    0  0.00000000000E+00  0.00000000000E+00  0.40915410958E+04  0.40915410958E+04  0.25500000000E-02 0. -1.
         -2   -1    0    0    0  501 -0.00000000000E+00 -0.00000000000E+00 -0.37757395055E+03  0.37757395056E+03  0.25500000000E-02 0.  1.
    8880022    1    1    2    0    0 -0.70024728150E+03 -0.20478821545E+03  0.36450573623E+04  0.37204998717E+04  0.15294330000E+03 0.  0.
    8880022    1    1    2    0    0  0.70024728150E+03  0.20478821545E+03  0.68909782964E+02  0.74861517460E+03  0.15294330000E+03 0.  0.
<mgrwt>
<rscale>  0 0.74543687E+03</rscale>
<asrwt>0</asrwt>
<pdfrwt beam="1">  1        2 0.62946788E+00 0.74543687E+03</pdfrwt>
<pdfrwt beam="2">  1       -2 0.58088299E-01 0.74543687E+03</pdfrwt>
<totfact> 0.89248611E-01</totfact>
</mgrwt>
</event>
<event>
 4    1  0.1033139E-008  0.5723918E+03  0.7818608E-02  0.9964400E-01
         -2   -1    0    0    0  501 -0.00000000000E+00  0.00000000000E+00  0.24520085119E+03  0.24520085121E+03  0.25500000000E-02 0.  1.
          2   -1    0    0  501    0  0.00000000000E+00 -0.00000000000E+00 -0.26689774811E+04  0.26689774811E+04  0.25500000000E-02 0. -1.
    8880022    1    1    2    0    0  0.50540230438E+03 -0.22092807856E+03 -0.18222359497E+03  0.60069775824E+03  0.15294330000E+03 0.  0.
    8880022    1    1    2    0    0 -0.50540230438E+03  0.22092807856E+03 -0.22415530349E+04  0.23134805741E+04  0.15294330000E+03 0.  0.
<mgrwt>
<rscale>  0 0.57239179E+03</rscale>
<asrwt>0</asrwt>
<pdfrwt beam="1">  1        2 0.41061190E+00 0.57239179E+03</pdfrwt>
<pdfrwt beam="2">  1       -2 0.37723210E-01 0.57239179E+03</pdfrwt>
<totfact> 0.19925121E+01</totfact>
</mgrwt>
</event>
<event>
 4    1  0.1033139E-008  0.5276099E+03  0.7818608E-02  0.1006813E+00
         -2   -1    0    0    0  501 -0.00000000000E+00  0.00000000000E+00  0.32333441080E+03  0.32333441081E+03  0.25500000000E-02 0.  1.
          2   -1    0    0  501    0  0.00000000000E+00 -0.00000000000E+00 -0.28617061723E+04  0.28617061723E+04  0.25500000000E-02 0. -1.
    8880022    1    1    2    0    0 -0.35412519361E+03  0.35996651482E+03  0.62403729047E+02  0.53128751439E+03  0.15294330000E+03 0.  0.
    8880022    1    1    2    0    0  0.35412519361E+03 -0.35996651482E+03 -0.26007754905E+04  0.26537530687E+04  0.15294330000E+03 0.  0.
<mgrwt>
<rscale>  0 0.52760989E+03</rscale>
<asrwt>0</asrwt>
<pdfrwt beam="1">  1        2 0.44026247E+00 0.52760989E+03</pdfrwt>
<pdfrwt beam="2">  1       -2 0.49743757E-01 0.52760989E+03</pdfrwt>
<totfact> 0.90150046E+00</totfact>
</mgrwt>
</event>
<event>
 4    1  0.1033139E-008  0.4402817E+03  0.7818608E-02  0.1030660E+00
          2   -1    0    0  501    0  0.00000000000E+00  0.00000000000E+00  0.11437501595E+04  0.11437501595E+04  0.25500000000E-02 0. -1.
         -2   -1    0    0    0  501 -0.00000000000E+00 -0.00000000000E+00 -0.68031465672E+03  0.68031465673E+03  0.25500000000E-02 0.  1.
    8880022    1    1    2    0    0 -0.21487209992E+03 -0.35254266493E+03  0.10220206805E+04  0.11128226608E+04  0.15294330000E+03 0.  0.
    8880022    1    1    2    0    0  0.21487209992E+03  0.35254266493E+03 -0.55858517772E+03  0.71124215547E+03  0.15294330000E+03 0.  0.
<mgrwt>
<rscale>  0 0.44028173E+03</rscale>
<asrwt>0</asrwt>
<pdfrwt beam="1">  1        2 0.17596156E+00 0.44028173E+03</pdfrwt>
<pdfrwt beam="2">  1       -2 0.10466379E+00 0.44028173E+03</pdfrwt>
<totfact> 0.16184737E+01</totfact>
</mgrwt>
</event>
<event>
 4    1  0.1033139E-008  0.7144475E+03  0.7818608E-02  0.9692839E-01
          2   -1    0    0  501    0  0.00000000000E+00  0.00000000000E+00  0.87640826169E+03  0.87640826169E+03  0.25500000000E-02 0. -1.
         -2   -1    0    0    0  501 -0.00000000000E+00 -0.00000000000E+00 -0.61094572103E+03  0.61094572104E+03  0.25500000000E-02 0.  1.
    8880022    1    1    2    0    0  0.31770421308E+03  0.62137558237E+03 -0.27971276503E+02  0.71499484383E+03  0.15294330000E+03 0.  0.
    8880022    1    1    2    0    0 -0.31770421308E+03 -0.62137558237E+03  0.29343381716E+03  0.77235913890E+03  0.15294330000E+03 0.  0.
<mgrwt>
<rscale>  0 0.71444750E+03</rscale>
<asrwt>0</asrwt>
<pdfrwt beam="1">  1        2 0.13483204E+00 0.71444750E+03</pdfrwt>
<pdfrwt beam="2">  1       -2 0.93991650E-01 0.71444750E+03</pdfrwt>
<totfact> 0.29607361E+01</totfact>
</mgrwt>
</event>
<event>
 4    1  0.1033139E-008  0.6599878E+03  0.7818608E-02  0.9788216E-01
          2   -1    0    0  501    0  0.00000000000E+00  0.00000000000E+00  0.18654907731E+04  0.18654907731E+04  0.25500000000E-02 0. -1.
         -2   -1    0    0    0  501 -0.00000000000E+00 -0.00000000000E+00 -0.40240703685E+03  0.40240703686E+03  0.25500000000E-02 0.  1.
    8880022    1    1    2    0    0 -0.62332472785E+03  0.15381342603E+03  0.14662082972E+04  0.16079025810E+04  0.15294330000E+03 0.  0.
    8880022    1    1    2    0    0  0.62332472785E+03 -0.15381342603E+03 -0.31245608768E+01  0.65999522898E+03  0.15294330000E+03 0.  0.
<mgrwt>
<rscale>  0 0.65998783E+03</rscale>
<asrwt>0</asrwt>
<pdfrwt beam="1">  1        2 0.28699857E+00 0.65998783E+03</pdfrwt>
<pdfrwt beam="2">  1       -2 0.61908776E-01 0.65998783E+03</pdfrwt>
<totfact> 0.20087988E+01</totfact>
</mgrwt>
</event>
<event>
 4    1  0.1033139E-008  0.1181467E+04  0.7818608E-02  0.9129235E-01
          2   -1    0    0  501    0  0.00000000000E+00  0.00000000000E+00  0.33224232540E+04  0.33224232540E+04  0.25500000000E-02 0. -1.
         -2   -1    0    0    0  501 -0.00000000000E+00 -0.00000000000E+00 -0.46053527748E+03  0.46053527749E+03  0.25500000000E-02 0.  1.
    8880022    1    1    2    0    0 -0.10556191774E+04 -0.50807548901E+03  0.87071485509E+03  0.14676541017E+04  0.15294330000E+03 0.  0.
    8880022    1    1    2    0    0  0.10556191774E+04  0.50807548901E+03  0.19911731214E+04  0.23153044298E+04  0.15294330000E+03 0.  0.
<mgrwt>
<rscale>  0 0.11814670E+04</rscale>
<asrwt>0</asrwt>
<pdfrwt beam="1">  1        2 0.51114202E+00 0.11814670E+04</pdfrwt>
<pdfrwt beam="2">  1       -2 0.70851584E-01 0.11814670E+04</pdfrwt>
<totfact> 0.19548030E+00</totfact>
</mgrwt>
</event>
<event>
 4    1  0.1033139E-008  0.1742228E+04  0.7818608E-02  0.8737640E-01
         -2   -1    0    0    0  501 -0.00000000000E+00  0.00000000000E+00  0.28965752734E+04  0.28965752734E+04  0.25500000000E-02 0.  1.
          2   -1    0    0  501    0  0.00000000000E+00 -0.00000000000E+00 -0.13565338758E+04  0.13565338759E+04  0.25500000000E-02 0. -1.
    8880022    1    1    2    0    0  0.14512297832E+04 -0.95178678684E+03  0.17843387786E+04  0.24938369035E+04  0.15294330000E+03 0.  0.
    8880022    1    1    2    0    0 -0.14512297832E+04  0.95178678684E+03 -0.24429738109E+03  0.17592722457E+04  0.15294330000E+03 0.  0.
<mgrwt>
<rscale>  0 0.17422278E+04</rscale>
<asrwt>0</asrwt>
<pdfrwt beam="1">  1        2 0.20869752E+00 0.17422278E+04</pdfrwt>
<pdfrwt beam="2">  1       -2 0.44562696E+00 0.17422278E+04</pdfrwt>
<totfact> 0.52125334E-02</totfact>
</mgrwt>
</event>
<event>
 4    1  0.1033139E-008  0.2543827E+03  0.7818608E-02  0.1110566E+00
          2   -1    0    0  501    0  0.00000000000E+00  0.00000000000E+00  0.20120363105E+04  0.20120363105E+04  0.25500000000E-02 0. -1.
         -2   -1    0    0    0  501 -0.00000000000E+00 -0.00000000000E+00 -0.60907122010E+02  0.60907122063E+02  0.25500000000E-02 0.  1.
    8880022    1    1    2    0    0 -0.30479648178E+02 -0.20097235801E+03  0.26351933179E+03  0.36626901163E+03  0.15294330000E+03 0.  1.
    8880022    1    1    2    0    0  0.30479648178E+02  0.20097235801E+03  0.16876098567E+04  0.17066744210E+04  0.15294330000E+03 0.  0.
<mgrwt>
<rscale>  0 0.25438269E+03</rscale>
<asrwt>0</asrwt>
<pdfrwt beam="1">  1        2 0.30954403E+00 0.25438269E+03</pdfrwt>
<pdfrwt beam="2">  1       -2 0.93703269E-02 0.25438269E+03</pdfrwt>
<totfact> 0.54149487E+02</totfact>
</mgrwt>
</event>
<event>
 4    1  0.1033139E-008  0.5574326E+03  0.7818608E-02  0.9997881E-01
         -2   -1    0    0    0  501 -0.00000000000E+00  0.00000000000E+00  0.43967153745E+03  0.43967153746E+03  0.25500000000E-02 0.  1.
          2   -1    0    0  501    0  0.00000000000E+00 -0.00000000000E+00 -0.11747835478E+04  0.11747835478E+04  0.25500000000E-02 0. -1.
    8880022    1    1    2    0    0  0.25421048700E+03  0.47192848226E+03 -0.87707766400E+03  0.10392287264E+04  0.15294330000E+03 0.  0.
    8880022    1    1    2    0    0 -0.25421048700E+03 -0.47192848226E+03  0.14196565367E+03  0.57522635884E+03  0.15294330000E+03 0.  0.
<mgrwt>
<rscale>  0 0.55743261E+03</rscale>
<asrwt>0</asrwt>
<pdfrwt beam="1">  1        2 0.18073593E+00 0.55743261E+03</pdfrwt>
<pdfrwt beam="2">  1       -2 0.67641775E-01 0.55743261E+03</pdfrwt>
<totfact> 0.40868146E+01</totfact>
</mgrwt>
</event>
<event>
 4    1  0.1033139E-008  0.5760875E+03  0.7818608E-02  0.9956298E-01
          2   -1    0    0  501    0  0.00000000000E+00  0.00000000000E+00  0.24270157741E+04  0.24270157741E+04  0.25500000000E-02 0. -1.
         -2   -1    0    0    0  501 -0.00000000000E+00 -0.00000000000E+00 -0.54084509313E+03  0.54084509313E+03  0.25500000000E-02 0.  1.
    8880022    1    1    2    0    0 -0.54234008637E+03  0.11980148919E+03  0.22257784963E+04  0.22991230357E+04  0.15294330000E+03 0.  0.
    8880022    1    1    2    0    0  0.54234008637E+03 -0.11980148919E+03 -0.33960781525E+03  0.66873783151E+03  0.15294330000E+03 0.  0.
<mgrwt>
<rscale>  0 0.57608751E+03</rscale>
<asrwt>0</asrwt>
<pdfrwt beam="1">  1        2 0.37338704E+00 0.57608751E+03</pdfrwt>
<pdfrwt beam="2">  1       -2 0.83206938E-01 0.57608751E+03</pdfrwt>
<totfact> 0.52655786E+00</totfact>
</mgrwt>
</event>
<event>
 4    1  0.1033139E-008  0.6199123E+03  0.7818608E-02  0.9864934E-01
         -2   -1    0    0    0  501 -0.00000000000E+00  0.00000000000E+00  0.40786747643E+03  0.40786747644E+03  0.25500000000E-02 0.  1.
          2   -1    0    0  501    0  0.00000000000E+00 -0.00000000000E+00 -0.27101322413E+04  0.27101322413E+04  0.25500000000E-02 0. -1.
    8880022    1    1    2    0    0 -0.44682456490E+02 -0.59908524626E+03  0.10803676174E+03  0.62925610773E+03  0.15294330000E+03 0.  0.
    8880022    1    1    2    0    0  0.44682456490E+02  0.59908524626E+03 -0.24103015266E+04  0.24887436100E+04  0.15294330000E+03 0.  0.
<mgrwt>
<rscale>  0 0.61991234E+03</rscale>
<asrwt>0</asrwt>
<pdfrwt beam="1">  1        2 0.41694341E+00 0.61991234E+03</pdfrwt>
<pdfrwt beam="2">  1       -2 0.62748844E-01 0.61991234E+03</pdfrwt>
<totfact> 0.66817468E+00</totfact>
</mgrwt>
</event>
<event>
 4    1  0.1033139E-008  0.5110229E+03  0.7818608E-02  0.1010941E+00
          2   -1    0    0  501    0  0.00000000000E+00  0.00000000000E+00  0.22369416438E+04  0.22369416438E+04  0.25500000000E-02 0. -1.
         -2   -1    0    0    0  501 -0.00000000000E+00 -0.00000000000E+00 -0.17925534478E+04  0.17925534478E+04  0.25500000000E-02 0.  1.
    8880022    1    1    2    0    0  0.39063108375E+03  0.29182202600E+03 -0.17258428627E+04  0.17999105473E+04  0.15294330000E+03 0.  0.
    8880022    1    1    2    0    0 -0.39063108375E+03 -0.29182202600E+03  0.21702310588E+04  0.22295845443E+04  0.15294330000E+03 0.  0.
<mgrwt>
<rscale>  0 0.51102289E+03</rscale>
<asrwt>0</asrwt>
<pdfrwt beam="1">  1        2 0.34414487E+00 0.51102289E+03</pdfrwt>
<pdfrwt beam="2">  1       -2 0.27577746E+00 0.51102289E+03</pdfrwt>
<totfact> 0.25275066E-01</totfact>
</mgrwt>
</event>
<event>
 4    1  0.1033139E-008  0.2215569E+03  0.7818608E-02  0.1132728E+00
         -2   -1    0    0    0  501 -0.00000000000E+00  0.00000000000E+00  0.24673755047E+03  0.24673755049E+03  0.25500000000E-02 0.  1.
          2   -1    0    0  501    0  0.00000000000E+00 -0.00000000000E+00 -0.41512138255E+04  0.41512138255E+04  0.25500000000E-02 0. -1.
    8880022    1    1    2    0    0  0.91640592329E+02  0.13152116049E+03  0.19339790150E+03  0.29409218816E+03  0.15294330000E+03 0.  1.
    8880022    1    1    2    0    0 -0.91640592329E+02 -0.13152116049E+03 -0.40978741765E+04  0.41038591878E+04  0.15294330000E+03 0.  0.
<mgrwt>
<rscale>  0 0.22155692E+03</rscale>
<asrwt>0</asrwt>
<pdfrwt beam="1">  1        2 0.63864823E+00 0.22155692E+03</pdfrwt>
<pdfrwt beam="2">  1       -2 0.37959626E-01 0.22155692E+03</pdfrwt>
<totfact> 0.23635571E+00</totfact>
</mgrwt>
</event>
<event>
 4    1  0.1033139E-008  0.8349695E+03  0.7818608E-02  0.9510735E-01
         -2   -1    0    0    0  501 -0.00000000000E+00  0.00000000000E+00  0.11414271459E+04  0.11414271459E+04  0.25500000000E-02 0.  1.
          2   -1    0    0  501    0  0.00000000000E+00 -0.00000000000E+00 -0.12664971424E+04  0.12664971424E+04  0.25500000000E-02 0. -1.
    8880022    1    1    2    0    0  0.71414166005E+03  0.40470250524E+03  0.80375871168E+03  0.11589659822E+04  0.15294330000E+03 0.  0.
    8880022    1    1    2    0    0 -0.71414166005E+03 -0.40470250524E+03 -0.92882870817E+03  0.12489583062E+04  0.15294330000E+03 0.  0.
<mgrwt>
<rscale>  0 0.83496951E+03</rscale>
<asrwt>0</asrwt>
<pdfrwt beam="1">  1        2 0.19484572E+00 0.83496951E+03</pdfrwt>
<pdfrwt beam="2">  1       -2 0.17560418E+00 0.83496951E+03</pdfrwt>
<totfact> 0.34062973E+00</totfact>
</mgrwt>
</event>
<event>
 4    1  0.1033139E-008  0.1210602E+04  0.7818608E-02  0.9103627E-01
         -2   -1    0    0    0  501 -0.00000000000E+00  0.00000000000E+00  0.64057449126E+03  0.64057449127E+03  0.25500000000E-02 0.  1.
          2   -1    0    0  501    0  0.00000000000E+00 -0.00000000000E+00 -0.25884865570E+04  0.25884865570E+04  0.25500000000E-02 0. -1.
    8880022    1    1    2    0    0  0.66346927255E+03  0.10009865673E+04 -0.42375310056E+03  0.12826238446E+04  0.15294330000E+03 0.  0.
    8880022    1    1    2    0    0 -0.66346927255E+03 -0.10009865673E+04 -0.15241589652E+04  0.19464372036E+04  0.15294330000E+03 0.  0.
<mgrwt>
<rscale>  0 0.12106020E+04</rscale>
<asrwt>0</asrwt>
<pdfrwt beam="1">  1        2 0.39822870E+00 0.12106020E+04</pdfrwt>
<pdfrwt beam="2">  1       -2 0.98549923E-01 0.12106020E+04</pdfrwt>
<totfact> 0.25991047E+00</totfact>
</mgrwt>
</event>
<event>
 4    1  0.1033139E-008  0.1249286E+04  0.7818608E-02  0.9070778E-01
         -2   -1    0    0    0  501 -0.00000000000E+00  0.00000000000E+00  0.11877483516E+04  0.11877483516E+04  0.25500000000E-02 0.  1.
          2   -1    0    0  501    0  0.00000000000E+00 -0.00000000000E+00 -0.18681084444E+04  0.18681084444E+04  0.25500000000E-02 0. -1.
    8880022    1    1    2    0    0 -0.72595083441E+03  0.10051461225E+04 -0.11723170565E+04  0.17131965082E+04  0.15294330000E+03 0.  0.
    8880022    1    1    2    0    0  0.72595083441E+03 -0.10051461225E+04  0.49195696368E+03  0.13426602879E+04  0.15294330000E+03 0.  0.
<mgrwt>
<rscale>  0 0.12492858E+04</rscale>
<asrwt>0</asrwt>
<pdfrwt beam="1">  1        2 0.28740130E+00 0.12492858E+04</pdfrwt>
<pdfrwt beam="2">  1       -2 0.18273051E+00 0.12492858E+04</pdfrwt>
<totfact> 0.13259980E+00</totfact>
</mgrwt>
</event>
<event>
 4    1  0.1033139E-008  0.8823901E+03  0.7818608E-02  0.9447866E-01
          2   -1    0    0  501    0  0.00000000000E+00  0.00000000000E+00  0.23916567131E+04  0.23916567131E+04  0.25500000000E-02 0. -1.
         -2   -1    0    0    0  501 -0.00000000000E+00 -0.00000000000E+00 -0.79465437157E+03  0.79465437158E+03  0.25500000000E-02 0.  1.
    8880022    1    1    2    0    0  0.50572542719E+03  0.70672652722E+03  0.20225596148E+04  0.22066625570E+04  0.15294330000E+03 0.  0.
    8880022    1    1    2    0    0 -0.50572542719E+03 -0.70672652722E+03 -0.42555727326E+03  0.97964852770E+03  0.15294330000E+03 0.  0.
<mgrwt>
<rscale>  0 0.88239008E+03</rscale>
<asrwt>0</asrwt>
<pdfrwt beam="1">  1        2 0.36794717E+00 0.88239008E+03</pdfrwt>
<pdfrwt beam="2">  1       -2 0.12225452E+00 0.88239008E+03</pdfrwt>
<totfact> 0.20847415E+00</totfact>
</mgrwt>
</event>
<event>
 4    1  0.1033139E-008  0.7061689E+03  0.7818608E-02  0.9706740E-01
          2   -1    0    0  501    0  0.00000000000E+00  0.00000000000E+00  0.11779165703E+04  0.11779165703E+04  0.25500000000E-02 0. -1.
         -2   -1    0    0    0  501 -0.00000000000E+00 -0.00000000000E+00 -0.55487992448E+03  0.55487992449E+03  0.25500000000E-02 0.  1.
    8880022    1    1    2    0    0  0.27692079686E+03 -0.63134592161E+03  0.73333668016E+03  0.10180653908E+04  0.15294330000E+03 0.  0.
    8880022    1    1    2    0    0 -0.27692079686E+03  0.63134592161E+03 -0.11030003430E+03  0.71473110402E+03  0.15294330000E+03 0.  0.
<mgrwt>
<rscale>  0 0.70616886E+03</rscale>
<asrwt>0</asrwt>
<pdfrwt beam="1">  1        2 0.18121793E+00 0.70616886E+03</pdfrwt>
<pdfrwt beam="2">  1       -2 0.85366142E-01 0.70616886E+03</pdfrwt>
<totfact> 0.23849751E+01</totfact>
</mgrwt>
</event>
<event>
 4    1  0.1033139E-008  0.4255139E+03  0.7818608E-02  0.1035287E+00
         -2   -1    0    0    0  501 -0.00000000000E+00  0.00000000000E+00  0.29220054235E+03  0.29220054236E+03  0.25500000000E-02 0.  1.
          2   -1    0    0  501    0  0.00000000000E+00 -0.00000000000E+00 -0.11770843380E+04  0.11770843380E+04  0.25500000000E-02 0. -1.
    8880022    1    1    2    0    0  0.30955722237E+03  0.24868603342E+03  0.63113878350E+02  0.43016907350E+03  0.15294330000E+03 0.  0.
    8880022    1    1    2    0    0 -0.30955722237E+03 -0.24868603342E+03 -0.94799767397E+03  0.10391158068E+04  0.15294330000E+03 0.  0.
<mgrwt>
<rscale>  0 0.42551389E+03</rscale>
<asrwt>0</asrwt>
<pdfrwt beam="1">  1        2 0.18108990E+00 0.42551389E+03</pdfrwt>
<pdfrwt beam="2">  1       -2 0.44953930E-01 0.42551389E+03</pdfrwt>
<totfact> 0.96401625E+01</totfact>
</mgrwt>
</event>
<event>
 4    1  0.1033139E-008  0.1146691E+04  0.7818608E-02  0.9160842E-01
         -2   -1    0    0    0  501 -0.00000000000E+00  0.00000000000E+00  0.33913021770E+03  0.33913021771E+03  0.25500000000E-02 0.  1.
          2   -1    0    0  501    0  0.00000000000E+00 -0.00000000000E+00 -0.50091171726E+04  0.50091171726E+04  0.25500000000E-02 0. -1.
    8880022    1    1    2    0    0 -0.11294787611E+04  0.12563943843E+03 -0.10638489859E+04  0.15641847264E+04  0.15294330000E+03 0.  0.
    8880022    1    1    2    0    0  0.11294787611E+04 -0.12563943843E+03 -0.36061379690E+04  0.37840626640E+04  0.15294330000E+03 0.  0.
<mgrwt>
<rscale>  0 0.11466905E+04</rscale>
<asrwt>0</asrwt>
<pdfrwt beam="1">  1        2 0.77063336E+00 0.11466905E+04</pdfrwt>
<pdfrwt beam="2">  1       -2 0.52173883E-01 0.11466905E+04</pdfrwt>
<totfact> 0.12415694E-01</totfact>
</mgrwt>
</event>
<event>
 4    1  0.1033139E-008  0.1422767E+04  0.7818608E-02  0.8937502E-01
         -2   -1    0    0    0  501 -0.00000000000E+00  0.00000000000E+00  0.12231940679E+04  0.12231940679E+04  0.25500000000E-02 0.  1.
          2   -1    0    0  501    0  0.00000000000E+00 -0.00000000000E+00 -0.34119916387E+04  0.34119916387E+04  0.25500000000E-02 0. -1.
    8880022    1    1    2    0    0 -0.14094918154E+04  0.11918957794E+03  0.56874675822E+03  0.15322329657E+04  0.15294330000E+03 0.  0.
    8880022    1    1    2    0    0  0.14094918154E+04 -0.11918957794E+03 -0.27575443290E+04  0.31029527409E+04  0.15294330000E+03 0.  0.
<mgrwt>
<rscale>  0 0.14227667E+04</rscale>
<asrwt>0</asrwt>
<pdfrwt beam="1">  1        2 0.52492179E+00 0.14227667E+04</pdfrwt>
<pdfrwt beam="2">  1       -2 0.18818370E+00 0.14227667E+04</pdfrwt>
<totfact> 0.14285152E-01</totfact>
</mgrwt>
</event>
<event>
 4    1  0.1033139E-008  0.1129415E+04  0.7818608E-02  0.9176987E-01
          2   -1    0    0  501    0  0.00000000000E+00  0.00000000000E+00  0.13691583298E+04  0.13691583298E+04  0.25500000000E-02 0. -1.
         -2   -1    0    0    0  501 -0.00000000000E+00 -0.00000000000E+00 -0.23820342973E+04  0.23820342973E+04  0.25500000000E-02 0.  1.
    8880022    1    1    2    0    0  0.35772999470E+03  0.10602900696E+04 -0.19699853828E+04  0.22707751634E+04  0.15294330000E+03 0.  0.
    8880022    1    1    2    0    0 -0.35772999470E+03 -0.10602900696E+04  0.95710941539E+03  0.14804174637E+04  0.15294330000E+03 0.  0.
<mgrwt>
<rscale>  0 0.11294146E+04</rscale>
<asrwt>0</asrwt>
<pdfrwt beam="1">  1        2 0.21063974E+00 0.11294146E+04</pdfrwt>
<pdfrwt beam="2">  1       -2 0.36646681E+00 0.11294146E+04</pdfrwt>
<totfact> 0.18295036E-01</totfact>
</mgrwt>
</event>
<event>
 4    1  0.1033139E-008  0.4457326E+03  0.7818608E-02  0.1029002E+00
          2   -1    0    0  501    0  0.00000000000E+00  0.00000000000E+00  0.82614654472E+03  0.82614654473E+03  0.25500000000E-02 0. -1.
         -2   -1    0    0    0  501 -0.00000000000E+00 -0.00000000000E+00 -0.44235533033E+03  0.44235533033E+03  0.25500000000E-02 0.  1.
    8880022    1    1    2    0    0  0.14060414956E+03  0.39435568960E+03 -0.23656358960E+03  0.50461859036E+03  0.15294330000E+03 0.  0.
    8880022    1    1    2    0    0 -0.14060414956E+03 -0.39435568960E+03  0.62035480399E+03  0.76388328470E+03  0.15294330000E+03 0.  0.
<mgrwt>
<rscale>  0 0.44573264E+03</rscale>
<asrwt>0</asrwt>
<pdfrwt beam="1">  1        2 0.12709947E+00 0.44573264E+03</pdfrwt>
<pdfrwt beam="2">  1       -2 0.68054667E-01 0.44573264E+03</pdfrwt>
<totfact> 0.68036946E+01</totfact>
</mgrwt>
</event>
<event>
 4    1  0.1033139E-008  0.1015840E+04  0.7818608E-02  0.9291340E-01
          2   -1    0    0  501    0  0.00000000000E+00  0.00000000000E+00  0.26640359573E+04  0.26640359573E+04  0.25500000000E-02 0. -1.
         -2   -1    0    0    0  501 -0.00000000000E+00 -0.00000000000E+00 -0.74406174525E+03  0.74406174526E+03  0.25500000000E-02 0.  1.
    8880022    1    1    2    0    0 -0.17660747182E+03 -0.98860973714E+03  0.21398524174E+04  0.23687337193E+04  0.15294330000E+03 0.  0.
    8880022    1    1    2    0    0  0.17660747182E+03  0.98860973714E+03 -0.21987820541E+03  0.10393639833E+04  0.15294330000E+03 0.  0.
<mgrwt>
<rscale>  0 0.10158401E+04</rscale>
<asrwt>0</asrwt>
<pdfrwt beam="1">  1        2 0.40985168E+00 0.10158401E+04</pdfrwt>
<pdfrwt beam="2">  1       -2 0.11447104E+00 0.10158401E+04</pdfrwt>
<totfact> 0.16774115E+00</totfact>
</mgrwt>
</event>
<event>
 4    1  0.1033139E-008  0.2469256E+03  0.7818608E-02  0.1115263E+00
          2   -1    0    0  501    0  0.00000000000E+00  0.00000000000E+00  0.35731066998E+04  0.35731066999E+04  0.25500000000E-02 0. -1.
         -2   -1    0    0    0  501 -0.00000000000E+00 -0.00000000000E+00 -0.29285041910E+02  0.29285042021E+02  0.25500000000E-02 0.  1.
    8880022    1    1    2    0    0 -0.19297021266E+03  0.18522361985E+02  0.29354699353E+04  0.29458370585E+04  0.15294330000E+03 0. -1.
    8880022    1    1    2    0    0  0.19297021266E+03 -0.18522361985E+02  0.60835172259E+03  0.65655468338E+03  0.15294330000E+03 0.  0.
<mgrwt>
<rscale>  0 0.24692556E+03</rscale>
<asrwt>0</asrwt>
<pdfrwt beam="1">  1        2 0.54970819E+00 0.24692556E+03</pdfrwt>
<pdfrwt beam="2">  1       -2 0.45053954E-02 0.24692556E+03</pdfrwt>
<totfact> 0.20986211E+02</totfact>
</mgrwt>
</event>
<event>
 4    1  0.1033139E-008  0.7912776E+03  0.7818608E-02  0.9572729E-01
          2   -1    0    0  501    0  0.00000000000E+00  0.00000000000E+00  0.18663124561E+04  0.18663124561E+04  0.25500000000E-02 0. -1.
         -2   -1    0    0    0  501 -0.00000000000E+00 -0.00000000000E+00 -0.64756949546E+03  0.64756949547E+03  0.25500000000E-02 0.  1.
    8880022    1    1    2    0    0  0.45971494951E+03 -0.62561232146E+03 -0.26321329089E+03  0.83390736961E+03  0.15294330000E+03 0.  0.
    8880022    1    1    2    0    0 -0.45971494951E+03  0.62561232146E+03  0.14819562515E+04  0.16799745819E+04  0.15294330000E+03 0.  0.
<mgrwt>
<rscale>  0 0.79127762E+03</rscale>
<asrwt>0</asrwt>
<pdfrwt beam="1">  1        2 0.28712500E+00 0.79127762E+03</pdfrwt>
<pdfrwt beam="2">  1       -2 0.99626075E-01 0.79127762E+03</pdfrwt>
<totfact> 0.67799294E+00</totfact>
</mgrwt>
</event>
<event>
 4    1  0.1033139E-008  0.3113480E+03  0.7818608E-02  0.1079702E+00
         -2   -1    0    0    0  501 -0.00000000000E+00  0.00000000000E+00  0.64776127217E+03  0.64776127217E+03  0.25500000000E-02 0.  1.
          2   -1    0    0  501    0  0.00000000000E+00 -0.00000000000E+00 -0.62191539794E+03  0.62191539795E+03  0.25500000000E-02 0. -1.
    8880022    1    1    2    0    0 -0.25708919115E+03  0.86319591734E+02  0.56613352009E+03  0.64609963605E+03  0.15294330000E+03 0.  1.
    8880022    1    1    2    0    0  0.25708919115E+03 -0.86319591734E+02 -0.54028764586E+03  0.62357703406E+03  0.15294330000E+03 0.  0.
<mgrwt>
<rscale>  0 0.31134800E+03</rscale>
<asrwt>0</asrwt>
<pdfrwt beam="1">  1        2 0.95679292E-01 0.31134800E+03</pdfrwt>
<pdfrwt beam="2">  1       -2 0.99655580E-01 0.31134800E+03</pdfrwt>
<totfact> 0.42074733E+01</totfact>
</mgrwt>
</event>
<event>
 4    1  0.1033139E-008  0.5878345E+03  0.7818608E-02  0.9930972E-01
         -2   -1    0    0    0  501 -0.00000000000E+00  0.00000000000E+00  0.42394679768E+03  0.42394679769E+03  0.25500000000E-02 0.  1.
          2   -1    0    0  501    0  0.00000000000E+00 -0.00000000000E+00 -0.17307682929E+04  0.17307682929E+04  0.25500000000E-02 0. -1.
    8880022    1    1    2    0    0 -0.30817356754E+03 -0.47664115430E+03 -0.14370476423E+04  0.15526285186E+04  0.15294330000E+03 0.  0.
    8880022    1    1    2    0    0  0.30817356754E+03  0.47664115430E+03  0.13022614708E+03  0.60208657193E+03  0.15294330000E+03 0.  0.
<mgrwt>
<rscale>  0 0.58783449E+03</rscale>
<asrwt>0</asrwt>
<pdfrwt beam="1">  1        2 0.26627204E+00 0.58783449E+03</pdfrwt>
<pdfrwt beam="2">  1       -2 0.65222586E-01 0.58783449E+03</pdfrwt>
<totfact> 0.21511717E+01</totfact>
</mgrwt>
</event>
<event>
 4    1  0.1033139E-008  0.8545065E+03  0.7818608E-02  0.9484308E-01
          2   -1    0    0  501    0  0.00000000000E+00  0.00000000000E+00  0.28849608450E+04  0.28849608450E+04  0.25500000000E-02 0. -1.
         -2   -1    0    0    0  501 -0.00000000000E+00 -0.00000000000E+00 -0.90721062083E+03  0.90721062083E+03  0.25500000000E-02 0.  1.
    8880022    1    1    2    0    0  0.15009157175E+02 -0.84057382105E+03 -0.62113933861E+03  0.10564068129E+04  0.15294330000E+03 0.  0.
    8880022    1    1    2    0    0 -0.15009157175E+02  0.84057382105E+03  0.25988895628E+04  0.27357646529E+04  0.15294330000E+03 0.  0.
<mgrwt>
<rscale>  0 0.85450645E+03</rscale>
<asrwt>0</asrwt>
<pdfrwt beam="1">  1        2 0.44384014E+00 0.85450645E+03</pdfrwt>
<pdfrwt beam="2">  1       -2 0.13957086E+00 0.85450645E+03</pdfrwt>
<totfact> 0.77381515E-01</totfact>
</mgrwt>
</event>
<event>
 4    1  0.1033139E-008  0.5185552E+03  0.7818608E-02  0.1009046E+00
          2   -1    0    0  501    0  0.00000000000E+00  0.00000000000E+00  0.54393876605E+03  0.54393876605E+03  0.25500000000E-02 0. -1.
         -2   -1    0    0    0  501 -0.00000000000E+00 -0.00000000000E+00 -0.89280462089E+03  0.89280462090E+03  0.25500000000E-02 0.  1.
    8880022    1    1    2    0    0 -0.44424612775E+03 -0.21943845983E+03 -0.65433987827E+03  0.83490130494E+03  0.15294330000E+03 0.  0.
    8880022    1    1    2    0    0  0.44424612775E+03  0.21943845983E+03  0.30547402343E+03  0.60184208201E+03  0.15294330000E+03 0.  0.
<mgrwt>
<rscale>  0 0.51855522E+03</rscale>
<asrwt>0</asrwt>
<pdfrwt beam="1">  1        2 0.83682888E-01 0.51855522E+03</pdfrwt>
<pdfrwt beam="2">  1       -2 0.13735456E+00 0.51855522E+03</pdfrwt>
<totfact> 0.21845043E+01</totfact>
</mgrwt>
</event>
<event>
 4    1  0.1033139E-008  0.6517294E+03  0.7818608E-02  0.9803539E-01
          2   -1    0    0  501    0  0.00000000000E+00  0.00000000000E+00  0.22878237578E+04  0.22878237578E+04  0.25500000000E-02 0. -1.
         -2   -1    0    0    0  501 -0.00000000000E+00 -0.00000000000E+00 -0.23097937962E+03  0.23097937964E+03  0.25500000000E-02 0.  1.
    8880022    1    1    2    0    0  0.60955001029E+03  0.17265111119E+03  0.47055303917E+03  0.80384789415E+03  0.15294330000E+03 0.  0.
    8880022    1    1    2    0    0 -0.60955001029E+03 -0.17265111119E+03  0.15862913390E+04  0.17149552432E+04  0.15294330000E+03 0.  0.
<mgrwt>
<rscale>  0 0.65172945E+03</rscale>
<asrwt>0</asrwt>
<pdfrwt beam="1">  1        2 0.35197288E+00 0.65172945E+03</pdfrwt>
<pdfrwt beam="2">  1       -2 0.35535289E-01 0.65172945E+03</pdfrwt>
<totfact> 0.36075012E+01</totfact>
</mgrwt>
</event>
<event>
 4    1  0.1033139E-008  0.1044489E+04  0.7818608E-02  0.9261052E-01
          2   -1    0    0  501    0  0.00000000000E+00  0.00000000000E+00  0.67049015930E+03  0.67049015931E+03  0.25500000000E-02 0. -1.
         -2   -1    0    0    0  501 -0.00000000000E+00 -0.00000000000E+00 -0.19720430721E+04  0.19720430721E+04  0.25500000000E-02 0.  1.
    8880022    1    1    2    0    0 -0.32530257850E+03 -0.98068550017E+03 -0.12033667138E+04  0.15934393364E+04  0.15294330000E+03 0.  0.
    8880022    1    1    2    0    0  0.32530257850E+03  0.98068550017E+03 -0.98186198969E+02  0.10490938950E+04  0.15294330000E+03 0.  0.
<mgrwt>
<rscale>  0 0.10444891E+04</rscale>
<asrwt>0</asrwt>
<pdfrwt beam="1">  1        2 0.10315233E+00 0.10444891E+04</pdfrwt>
<pdfrwt beam="2">  1       -2 0.30339124E+00 0.10444891E+04</pdfrwt>
<totfact> 0.13111183E+00</totfact>
</mgrwt>
</event>
<event>
 4    1  0.1033139E-008  0.2363472E+03  0.7818608E-02  0.1122250E+00
         -2   -1    0    0    0  501 -0.00000000000E+00  0.00000000000E+00  0.49111824998E+03  0.49111824999E+03  0.25500000000E-02 0.  1.
          2   -1    0    0  501    0  0.00000000000E+00 -0.00000000000E+00 -0.63291691006E+03  0.63291691007E+03  0.25500000000E-02 0. -1.
    8880022    1    1    2    0    0  0.11483245445E+03 -0.13885909139E+03  0.43811975118E+03  0.49780408721E+03  0.15294330000E+03 0.  0.
    8880022    1    1    2    0    0 -0.11483245445E+03  0.13885909139E+03 -0.57991841126E+03  0.62623107284E+03  0.15294330000E+03 0.  0.
<mgrwt>
<rscale>  0 0.23634719E+03</rscale>
<asrwt>0</asrwt>
<pdfrwt beam="1">  1        2 0.97371832E-01 0.23634719E+03</pdfrwt>
<pdfrwt beam="2">  1       -2 0.75556654E-01 0.23634719E+03</pdfrwt>
<totfact> 0.77992567E+01</totfact>
</mgrwt>
</event>
<event>
 4    1  0.1033139E-008  0.1119629E+04  0.7818608E-02  0.9186268E-01
         -2   -1    0    0    0  501 -0.00000000000E+00  0.00000000000E+00  0.81978890193E+03  0.81978890194E+03  0.25500000000E-02 0.  1.
          2   -1    0    0  501    0  0.00000000000E+00 -0.00000000000E+00 -0.18251544037E+04  0.18251544037E+04  0.25500000000E-02 0. -1.
    8880022    1    1    2    0    0  0.56786465347E+03 -0.95273721307E+03  0.29909295546E+02  0.11200288750E+04  0.15294330000E+03 0.  0.
    8880022    1    1    2    0    0 -0.56786465347E+03  0.95273721307E+03 -0.10352747973E+04  0.15249144307E+04  0.15294330000E+03 0.  0.
<mgrwt>
<rscale>  0 0.11196295E+04</rscale>
<asrwt>0</asrwt>
<pdfrwt beam="1">  1        2 0.28079298E+00 0.11196295E+04</pdfrwt>
<pdfrwt beam="2">  1       -2 0.12612137E+00 0.11196295E+04</pdfrwt>
<totfact> 0.38508095E+00</totfact>
</mgrwt>
</event>
<event>
 4    1  0.1033139E-008  0.1020381E+04  0.7818608E-02  0.9286469E-01
         -2   -1    0    0    0  501 -0.00000000000E+00  0.00000000000E+00  0.46572896341E+03  0.46572896342E+03  0.25500000000E-02 0.  1.
          2   -1    0    0  501    0  0.00000000000E+00 -0.00000000000E+00 -0.42048114223E+04  0.42048114223E+04  0.25500000000E-02 0. -1.
    8880022    1    1    2    0    0 -0.63045914490E+03 -0.78759619282E+03 -0.34676684720E+04  0.36146787937E+04  0.15294330000E+03 0.  0.
    8880022    1    1    2    0    0  0.63045914490E+03  0.78759619282E+03 -0.27141398686E+03  0.10558615921E+04  0.15294330000E+03 0.  0.
<mgrwt>
<rscale>  0 0.10203814E+04</rscale>
<asrwt>0</asrwt>
<pdfrwt beam="1">  1        2 0.64689404E+00 0.10203814E+04</pdfrwt>
<pdfrwt beam="2">  1       -2 0.71650613E-01 0.10203814E+04</pdfrwt>
<totfact> 0.43020258E-01</totfact>
</mgrwt>
</event>
<event>
 4    1  0.1033139E-008  0.8811963E+03  0.7818608E-02  0.9449397E-01
         -2   -1    0    0    0  501 -0.00000000000E+00  0.00000000000E+00  0.18950849007E+04  0.18950849007E+04  0.25500000000E-02 0.  1.
          2   -1    0    0  501    0  0.00000000000E+00 -0.00000000000E+00 -0.93943922417E+03  0.93943922417E+03  0.25500000000E-02 0. -1.
    8880022    1    1    2    0    0  0.65893121316E+03  0.56473437350E+03 -0.58638702440E+03  0.10584690131E+04  0.15294330000E+03 0.  0.
    8880022    1    1    2    0    0 -0.65893121316E+03 -0.56473437350E+03  0.15420327009E+04  0.17760551117E+04  0.15294330000E+03 0.  0.
<mgrwt>
<rscale>  0 0.88119629E+03</rscale>
<asrwt>0</asrwt>
<pdfrwt beam="1">  1        2 0.14452911E+00 0.88119629E+03</pdfrwt>
<pdfrwt beam="2">  1       -2 0.29155152E+00 0.88119629E+03</pdfrwt>
<totfact> 0.10077771E+00</totfact>
</mgrwt>
</event>
<event>
 4    1  0.1033139E-008  0.6775532E+03  0.7818608E-02  0.9756408E-01
         -2   -1    0    0    0  501 -0.00000000000E+00  0.00000000000E+00  0.42410938494E+03  0.42410938495E+03  0.25500000000E-02 0.  1.
          2   -1    0    0  501    0  0.00000000000E+00 -0.00000000000E+00 -0.20009563961E+04  0.20009563961E+04  0.25500000000E-02 0. -1.
    8880022    1    1    2    0    0  0.16204112527E+03 -0.63986666587E+03  0.33090894498E+02  0.67836077177E+03  0.15294330000E+03 0.  1.
    8880022    1    1    2    0    0 -0.16204112527E+03  0.63986666587E+03 -0.16099379056E+04  0.17467050093E+04  0.15294330000E+03 0.  0.
<mgrwt>
<rscale>  0 0.67755319E+03</rscale>
<asrwt>0</asrwt>
<pdfrwt beam="1">  1        2 0.30783944E+00 0.67755319E+03</pdfrwt>
<pdfrwt beam="2">  1       -2 0.65247599E-01 0.67755319E+03</pdfrwt>
<totfact> 0.15117420E+01</totfact>
</mgrwt>
</event>
<event>
 4    1  0.1033139E-008  0.1904544E+04  0.7818608E-02  0.8652598E-01
         -2   -1    0    0    0  501 -0.00000000000E+00  0.00000000000E+00  0.21930817000E+04  0.21930817000E+04  0.25500000000E-02 0.  1.
          2   -1    0    0  501    0  0.00000000000E+00 -0.00000000000E+00 -0.23317017596E+04  0.23317017596E+04  0.25500000000E-02 0. -1.
    8880022    1    1    2    0    0  0.15540030536E+04  0.10903985467E+04 -0.12890323850E+04  0.22997588187E+04  0.15294330000E+03 0.  0.
    8880022    1    1    2    0    0 -0.15540030536E+04 -0.10903985467E+04  0.11504123254E+04  0.22250246410E+04  0.15294330000E+03 0.  0.
<mgrwt>
<rscale>  0 0.19045436E+04</rscale>
<asrwt>0</asrwt>
<pdfrwt beam="1">  1        2 0.35872335E+00 0.19045436E+04</pdfrwt>
<pdfrwt beam="2">  1       -2 0.33739719E+00 0.19045436E+04</pdfrwt>
<totfact> 0.72632659E-02</totfact>
</mgrwt>
</event>
<event>
 4    1  0.1033139E-008  0.9200394E+03  0.7818608E-02  0.9400872E-01
          2   -1    0    0  501    0  0.00000000000E+00  0.00000000000E+00  0.97880185169E+03  0.97880185169E+03  0.25500000000E-02 0. -1.
         -2   -1    0    0    0  501 -0.00000000000E+00 -0.00000000000E+00 -0.21341455532E+04  0.21341455532E+04  0.25500000000E-02 0.  1.
    8880022    1    1    2    0    0 -0.55182019332E+02 -0.90555830753E+03 -0.17780522030E+04  0.20019845637E+04  0.15294330000E+03 0.  0.
    8880022    1    1    2    0    0  0.55182019332E+02  0.90555830753E+03  0.62270850152E+03  0.11109628412E+04  0.15294330000E+03 0.  0.
<mgrwt>
<rscale>  0 0.92003943E+03</rscale>
<asrwt>0</asrwt>
<pdfrwt beam="1">  1        2 0.15058490E+00 0.92003943E+03</pdfrwt>
<pdfrwt beam="2">  1       -2 0.32833008E+00 0.92003943E+03</pdfrwt>
<totfact> 0.56434109E-01</totfact>
</mgrwt>
</event>
<event>
 4    1  0.1033139E-008  0.4410462E+03  0.7818608E-02  0.1030426E+00
         -2   -1    0    0    0  501 -0.00000000000E+00  0.00000000000E+00  0.29847030733E+03  0.29847030734E+03  0.25500000000E-02 0.  1.
          2   -1    0    0  501    0  0.00000000000E+00 -0.00000000000E+00 -0.13729815660E+04  0.13729815660E+04  0.25500000000E-02 0. -1.
    8880022    1    1    2    0    0  0.41245344378E+03  0.31815970828E+02  0.68468976197E+02  0.44632919802E+03  0.15294330000E+03 0.  0.
    8880022    1    1    2    0    0 -0.41245344378E+03 -0.31815970828E+02 -0.11429802349E+04  0.12251226753E+04  0.15294330000E+03 0.  0.
<mgrwt>
<rscale>  0 0.44104620E+03</rscale>
<asrwt>0</asrwt>
<pdfrwt beam="1">  1        2 0.21122793E+00 0.44104620E+03</pdfrwt>
<pdfrwt beam="2">  1       -2 0.45918510E-01 0.44104620E+03</pdfrwt>
<totfact> 0.71326150E+01</totfact>
</mgrwt>
</event>
<event>
 4    1  0.1033139E-008  0.1020387E+04  0.7818608E-02  0.9286463E-01
         -2   -1    0    0    0  501 -0.00000000000E+00  0.00000000000E+00  0.10401076410E+04  0.10401076410E+04  0.25500000000E-02 0.  1.
          2   -1    0    0  501    0  0.00000000000E+00 -0.00000000000E+00 -0.11739693004E+04  0.11739693004E+04  0.25500000000E-02 0. -1.
    8880022    1    1    2    0    0  0.32431616722E+03 -0.95530975633E+03 -0.49181311770E+03  0.11327265789E+04  0.15294330000E+03 0.  0.
    8880022    1    1    2    0    0 -0.32431616722E+03  0.95530975633E+03  0.35795145826E+03  0.10813503624E+04  0.15294330000E+03 0.  1.
<mgrwt>
<rscale>  0 0.10203869E+04</rscale>
<asrwt>0</asrwt>
<pdfrwt beam="1">  1        2 0.18061066E+00 0.10203869E+04</pdfrwt>
<pdfrwt beam="2">  1       -2 0.16001656E+00 0.10203869E+04</pdfrwt>
<totfact> 0.48906295E+00</totfact>
</mgrwt>
</event>
<event>
 4    1  0.1033139E-008  0.8379499E+03  0.7818608E-02  0.9506654E-01
         -2   -1    0    0    0  501 -0.00000000000E+00  0.00000000000E+00  0.41802291815E+03  0.41802291816E+03  0.25500000000E-02 0.  1.
          2   -1    0    0  501    0  0.00000000000E+00 -0.00000000000E+00 -0.18461920672E+04  0.18461920672E+04  0.25500000000E-02 0. -1.
    8880022    1    1    2    0    0  0.52863349344E+02 -0.82217633386E+03 -0.10540416691E+04  0.13465377644E+04  0.15294330000E+03 0.  0.
    8880022    1    1    2    0    0 -0.52863349344E+02  0.82217633386E+03 -0.37412747998E+03  0.91767722101E+03  0.15294330000E+03 0.  0.
<mgrwt>
<rscale>  0 0.83794995E+03</rscale>
<asrwt>0</asrwt>
<pdfrwt beam="1">  1        2 0.28402954E+00 0.83794995E+03</pdfrwt>
<pdfrwt beam="2">  1       -2 0.64311219E-01 0.83794995E+03</pdfrwt>
<totfact> 0.18521708E+01</totfact>
</mgrwt>
</event>
<event>
 4    1  0.1033139E-008  0.1045686E+04  0.7818608E-02  0.9259810E-01
          2   -1    0    0  501    0  0.00000000000E+00  0.00000000000E+00  0.24698150120E+04  0.24698150121E+04  0.25500000000E-02 0. -1.
         -2   -1    0    0    0  501 -0.00000000000E+00 -0.00000000000E+00 -0.55234047807E+03  0.55234047808E+03  0.25500000000E-02 0.  1.
    8880022    1    1    2    0    0 -0.17378841360E+03 -0.10197375358E+04  0.28558795060E+03  0.10839830188E+04  0.15294330000E+03 0.  0.
    8880022    1    1    2    0    0  0.17378841360E+03  0.10197375358E+04  0.16318865834E+04  0.19381724713E+04  0.15294330000E+03 0.  0.
<mgrwt>
<rscale>  0 0.10456858E+04</rscale>
<asrwt>0</asrwt>
<pdfrwt beam="1">  1        2 0.37997154E+00 0.10456858E+04</pdfrwt>
<pdfrwt beam="2">  1       -2 0.84975459E-01 0.10456858E+04</pdfrwt>
<totfact> 0.43837241E+00</totfact>
</mgrwt>
</event>
<event>
 4    1  0.1033139E-008  0.4810402E+03  0.7818608E-02  0.1018850E+00
         -2   -1    0    0    0  501 -0.00000000000E+00  0.00000000000E+00  0.27823735732E+03  0.27823735733E+03  0.25500000000E-02 0.  1.
          2   -1    0    0  501    0  0.00000000000E+00 -0.00000000000E+00 -0.17107961979E+04  0.17107961979E+04  0.25500000000E-02 0. -1.
    8880022    1    1    2    0    0  0.32061204213E+03  0.32437005486E+03 -0.14291986987E+04  0.15079816270E+04  0.15294330000E+03 0.  0.
    8880022    1    1    2    0    0 -0.32061204213E+03 -0.32437005486E+03 -0.33601418641E+01  0.48105192819E+03  0.15294330000E+03 0.  0.
<mgrwt>
<rscale>  0 0.48104019E+03</rscale>
<asrwt>0</asrwt>
<pdfrwt beam="1">  1        2 0.26319941E+00 0.48104019E+03</pdfrwt>
<pdfrwt beam="2">  1       -2 0.42805748E-01 0.48104019E+03</pdfrwt>
<totfact> 0.53221222E+01</totfact>
</mgrwt>
</event>
<event>
 4    1  0.1033139E-008  0.7690560E+03  0.7818608E-02  0.9605920E-01
         -2   -1    0    0    0  501 -0.00000000000E+00  0.00000000000E+00  0.33062810627E+03  0.33062810628E+03  0.25500000000E-02 0.  1.
          2   -1    0    0  501    0  0.00000000000E+00 -0.00000000000E+00 -0.24427785326E+04  0.24427785326E+04  0.25500000000E-02 0. -1.
    8880022    1    1    2    0    0 -0.39509103832E+03 -0.64183996300E+03 -0.17735449820E+04  0.19331086164E+04  0.15294330000E+03 0. -1.
    8880022    1    1    2    0    0  0.39509103832E+03  0.64183996300E+03 -0.33860544440E+03  0.84029802253E+03  0.15294330000E+03 0.  1.
<mgrwt>
<rscale>  0 0.76905599E+03</rscale>
<asrwt>0</asrwt>
<pdfrwt beam="1">  1        2 0.37581207E+00 0.76905599E+03</pdfrwt>
<pdfrwt beam="2">  1       -2 0.50865864E-01 0.76905599E+03</pdfrwt>
<totfact> 0.14311559E+01</totfact>
</mgrwt>
</event>
<event>
 4    1  0.1033139E-008  0.6467217E+03  0.7818608E-02  0.9812950E-01
         -2   -1    0    0    0  501 -0.00000000000E+00  0.00000000000E+00  0.46180503410E+03  0.46180503411E+03  0.25500000000E-02 0.  1.
          2   -1    0    0  501    0  0.00000000000E+00 -0.00000000000E+00 -0.19710807518E+04  0.19710807518E+04  0.25500000000E-02 0. -1.
    8880022    1    1    2    0    0 -0.62029635075E+03 -0.10044763128E+03 -0.16489629522E+04  0.17712503381E+04  0.15294330000E+03 0.  0.
    8880022    1    1    2    0    0  0.62029635075E+03  0.10044763128E+03  0.13968723447E+03  0.66163544787E+03  0.15294330000E+03 0.  0.
<mgrwt>
<rscale>  0 0.64672169E+03</rscale>
<asrwt>0</asrwt>
<pdfrwt beam="1">  1        2 0.30324319E+00 0.64672169E+03</pdfrwt>
<pdfrwt beam="2">  1       -2 0.71046930E-01 0.64672169E+03</pdfrwt>
<totfact> 0.13116750E+01</totfact>
</mgrwt>
</event>
<event>
 4    1  0.1033139E-008  0.9206093E+03  0.7818608E-02  0.9400179E-01
          2   -1    0    0  501    0  0.00000000000E+00  0.00000000000E+00  0.29764603284E+04  0.29764603284E+04  0.25500000000E-02 0. -1.
         -2   -1    0    0    0  501 -0.00000000000E+00 -0.00000000000E+00 -0.45808716284E+03  0.45808716285E+03  0.25500000000E-02 0.  1.
    8880022    1    1    2    0    0 -0.42059280197E+03  0.80450703591E+03  0.23155711905E+04  0.24918650580E+04  0.15294330000E+03 0.  0.
    8880022    1    1    2    0    0  0.42059280197E+03 -0.80450703591E+03  0.20280197507E+03  0.94268243328E+03  0.15294330000E+03 0.  0.
<mgrwt>
<rscale>  0 0.92060932E+03</rscale>
<asrwt>0</asrwt>
<pdfrwt beam="1">  1        2 0.45791697E+00 0.92060932E+03</pdfrwt>
<pdfrwt beam="2">  1       -2 0.70474948E-01 0.92060932E+03</pdfrwt>
<totfact> 0.34112896E+00</totfact>
</mgrwt>
</event>
<event>
 4    1  0.1033139E-008  0.1042856E+04  0.7818608E-02  0.9262751E-01
          2   -1    0    0  501    0  0.00000000000E+00  0.00000000000E+00  0.70270230092E+03  0.70270230093E+03  0.25500000000E-02 0. -1.
         -2   -1    0    0    0  501 -0.00000000000E+00 -0.00000000000E+00 -0.19257519680E+04  0.19257519680E+04  0.25500000000E-02 0.  1.
    8880022    1    1    2    0    0 -0.10315490921E+04  0.79826416213E+01 -0.11938494778E+04  0.15851894147E+04  0.15294330000E+03 0.  0.
    8880022    1    1    2    0    0  0.10315490921E+04 -0.79826416213E+01 -0.29200189273E+02  0.10432648542E+04  0.15294330000E+03 0.  0.
<mgrwt>
<rscale>  0 0.10428561E+04</rscale>
<asrwt>0</asrwt>
<pdfrwt beam="1">  1        2 0.10810805E+00 0.10428561E+04</pdfrwt>
<pdfrwt beam="2">  1       -2 0.29626953E+00 0.10428561E+04</pdfrwt>
<totfact> 0.13648384E+00</totfact>
</mgrwt>
</event>
<event>
 4    1  0.1033139E-008  0.1048005E+04  0.7818608E-02  0.9257406E-01
          2   -1    0    0  501    0  0.00000000000E+00  0.00000000000E+00  0.22849622225E+04  0.22849622225E+04  0.25500000000E-02 0. -1.
         -2   -1    0    0    0  501 -0.00000000000E+00 -0.00000000000E+00 -0.53519387018E+03  0.53519387019E+03  0.25500000000E-02 0.  1.
    8880022    1    1    2    0    0 -0.63015247928E+03 -0.82330490267E+03  0.13249515043E+04  0.16893227198E+04  0.15294330000E+03 0.  0.
    8880022    1    1    2    0    0  0.63015247928E+03  0.82330490267E+03  0.42481684807E+03  0.11308333729E+04  0.15294330000E+03 0.  0.
<mgrwt>
<rscale>  0 0.10480051E+04</rscale>
<asrwt>0</asrwt>
<pdfrwt beam="1">  1        2 0.35153265E+00 0.10480051E+04</pdfrwt>
<pdfrwt beam="2">  1       -2 0.82337518E-01 0.10480051E+04</pdfrwt>
<totfact> 0.59904285E+00</totfact>
</mgrwt>
</event>
<event>
 4    1  0.1033139E-008  0.1724289E+03  0.7818608E-02  0.1175338E+00
          2   -1    0    0  501    0  0.00000000000E+00  0.00000000000E+00  0.20796531390E+03  0.20796531391E+03  0.25500000000E-02 0. -1.
         -2   -1    0    0    0  501 -0.00000000000E+00 -0.00000000000E+00 -0.96438834486E+03  0.96438834486E+03  0.25500000000E-02 0.  1.
    8880022    1    1    2    0    0  0.29524132417E+02  0.73948588810E+02 -0.91919778464E+03  0.93523060711E+03  0.15294330000E+03 0.  1.
    8880022    1    1    2    0    0 -0.29524132417E+02 -0.73948588810E+02  0.16277475367E+03  0.23712305166E+03  0.15294330000E+03 0.  0.
<mgrwt>
<rscale>  0 0.17242889E+03</rscale>
<asrwt>0</asrwt>
<pdfrwt beam="1">  1        2 0.31994664E-01 0.17242889E+03</pdfrwt>
<pdfrwt beam="2">  1       -2 0.14836744E+00 0.17242889E+03</pdfrwt>
<totfact> 0.54484114E+01</totfact>
</mgrwt>
</event>
<event>
 4    1  0.1033139E-008  0.4030796E+03  0.7818608E-02  0.1042719E+00
         -2   -1    0    0    0  501 -0.00000000000E+00  0.00000000000E+00  0.32813703640E+03  0.32813703641E+03  0.25500000000E-02 0.  1.
          2   -1    0    0  501    0  0.00000000000E+00 -0.00000000000E+00 -0.14977541777E+04  0.14977541777E+04  0.25500000000E-02 0. -1.
    8880022    1    1    2    0    0 -0.11149194723E+03  0.35588069608E+03  0.16214214367E+03  0.43446893089E+03  0.15294330000E+03 0.  0.
    8880022    1    1    2    0    0  0.11149194723E+03 -0.35588069608E+03 -0.13317592850E+04  0.13914222832E+04  0.15294330000E+03 0. -1.
<mgrwt>
<rscale>  0 0.40307962E+03</rscale>
<asrwt>0</asrwt>
<pdfrwt beam="1">  1        2 0.23042372E+00 0.40307962E+03</pdfrwt>
<pdfrwt beam="2">  1       -2 0.50482622E-01 0.40307962E+03</pdfrwt>
<totfact> 0.50705252E+01</totfact>
</mgrwt>
</event>
<event>
 4    1  0.1033139E-008  0.1883105E+04  0.7818608E-02  0.8663312E-01
         -2   -1    0    0    0  501 -0.00000000000E+00  0.00000000000E+00  0.99889333224E+03  0.99889333224E+03  0.25500000000E-02 0.  1.
          2   -1    0    0  501    0  0.00000000000E+00 -0.00000000000E+00 -0.42698019870E+04  0.42698019870E+04  0.25500000000E-02 0. -1.
    8880022    1    1    2    0    0  0.10683726517E+04 -0.15431368341E+04 -0.27170680734E+04  0.33058345361E+04  0.15294330000E+03 0.  0.
    8880022    1    1    2    0    0 -0.10683726517E+04  0.15431368341E+04 -0.55384058143E+03  0.19628607832E+04  0.15294330000E+03 0.  0.
<mgrwt>
<rscale>  0 0.18831046E+04</rscale>
<asrwt>0</asrwt>
<pdfrwt beam="1">  1        2 0.65689260E+00 0.18831046E+04</pdfrwt>
<pdfrwt beam="2">  1       -2 0.15367590E+00 0.18831046E+04</pdfrwt>
<totfact> 0.52072763E-02</totfact>
</mgrwt>
</event>
<event>
 4    1  0.1033139E-008  0.1538275E+03  0.7818608E-02  0.1195847E+00
         -2   -1    0    0    0  501 -0.00000000000E+00  0.00000000000E+00  0.26011782752E+02  0.26011782877E+02  0.25500000000E-02 0.  1.
          2   -1    0    0  501    0  0.00000000000E+00 -0.00000000000E+00 -0.11917087134E+04  0.11917087134E+04  0.25500000000E-02 0. -1.
    8880022    1    1    2    0    0  0.36393249779E+01 -0.16062625048E+02 -0.28666267619E+03  0.32532813519E+03  0.15294330000E+03 0.  0.
    8880022    1    1    2    0    0 -0.36393249779E+01  0.16062625048E+02 -0.87903425441E+03  0.89239236105E+03  0.15294330000E+03 0. -1.
<mgrwt>
<rscale>  0 0.15382752E+03</rscale>
<asrwt>0</asrwt>
<pdfrwt beam="1">  1        2 0.18333976E+00 0.15382752E+03</pdfrwt>
<pdfrwt beam="2">  1       -2 0.40018137E-02 0.15382752E+03</pdfrwt>
<totfact> 0.54543603E+03</totfact>
</mgrwt>
</event>
<event>
 4    1  0.1033139E-008  0.6139381E+03  0.7818608E-02  0.9876904E-01
          2   -1    0    0  501    0  0.00000000000E+00  0.00000000000E+00  0.26487948538E+04  0.26487948538E+04  0.25500000000E-02 0. -1.
         -2   -1    0    0    0  501 -0.00000000000E+00 -0.00000000000E+00 -0.10681951716E+04  0.10681951716E+04  0.25500000000E-02 0.  1.
    8880022    1    1    2    0    0 -0.32615458707E+03 -0.49714338375E+03  0.25205835305E+04  0.25942747245E+04  0.15294330000E+03 0.  0.
    8880022    1    1    2    0    0  0.32615458707E+03  0.49714338375E+03 -0.93998384835E+03  0.11227153009E+04  0.15294330000E+03 0.  0.
<mgrwt>
<rscale>  0 0.61393812E+03</rscale>
<asrwt>0</asrwt>
<pdfrwt beam="1">  1        2 0.40750690E+00 0.61393812E+03</pdfrwt>
<pdfrwt beam="2">  1       -2 0.16433772E+00 0.61393812E+03</pdfrwt>
<totfact> 0.73027308E-01</totfact>
</mgrwt>
</event>
<event>
 4    1  0.1033139E-008  0.7565994E+03  0.7818608E-02  0.9625053E-01
         -2   -1    0    0    0  501 -0.00000000000E+00  0.00000000000E+00  0.42272075133E+03  0.42272075134E+03  0.25500000000E-02 0.  1.
          2   -1    0    0  501    0  0.00000000000E+00 -0.00000000000E+00 -0.28926637202E+04  0.28926637202E+04  0.25500000000E-02 0. -1.
    8880022    1    1    2    0    0  0.71413290927E+03 -0.19764912826E+03 -0.26043322160E+02  0.75704748705E+03  0.15294330000E+03 0.  0.
    8880022    1    1    2    0    0 -0.71413290927E+03  0.19764912826E+03 -0.24438996467E+04  0.25583369845E+04  0.15294330000E+03 0.  0.
<mgrwt>
<rscale>  0 0.75659939E+03</rscale>
<asrwt>0</asrwt>
<pdfrwt beam="1">  1        2 0.44502518E+00 0.75659939E+03</pdfrwt>
<pdfrwt beam="2">  1       -2 0.65033964E-01 0.75659939E+03</pdfrwt>
<totfact> 0.46978528E+00</totfact>
</mgrwt>
</event>
<event>
 4    1  0.1033139E-008  0.4671097E+03  0.7818608E-02  0.1022739E+00
          2   -1    0    0  501    0  0.00000000000E+00  0.00000000000E+00  0.13154389337E+04  0.13154389337E+04  0.25500000000E-02 0. -1.
         -2   -1    0    0    0  501 -0.00000000000E+00 -0.00000000000E+00 -0.24152248735E+03  0.24152248736E+03  0.25500000000E-02 0.  1.
    8880022    1    1    2    0    0  0.38556560275E+03  0.21479979017E+03  0.10126421263E+03  0.47796012140E+03  0.15294330000E+03 0.  0.
    8880022    1    1    2    0    0 -0.38556560275E+03 -0.21479979017E+03  0.97265223368E+03  0.10790012996E+04  0.15294330000E+03 0.  0.
<mgrwt>
<rscale>  0 0.46710966E+03</rscale>
<asrwt>0</asrwt>
<pdfrwt beam="1">  1        2 0.20237522E+00 0.46710966E+03</pdfrwt>
<pdfrwt beam="2">  1       -2 0.37157306E-01 0.46710966E+03</pdfrwt>
<totfact> 0.11557912E+02</totfact>
</mgrwt>
</event>
<event>
 4    1  0.1033139E-008  0.1409769E+04  0.7818608E-02  0.8946778E-01
         -2   -1    0    0    0  501 -0.00000000000E+00  0.00000000000E+00  0.24723511799E+04  0.24723511799E+04  0.25500000000E-02 0.  1.
          2   -1    0    0  501    0  0.00000000000E+00 -0.00000000000E+00 -0.10141209831E+04  0.10141209831E+04  0.25500000000E-02 0. -1.
    8880022    1    1    2    0    0  0.12348962456E+04  0.66263711091E+03  0.15228593537E+04  0.20752226248E+04  0.15294330000E+03 0.  0.
    8880022    1    1    2    0    0 -0.12348962456E+04 -0.66263711091E+03 -0.64629156915E+02  0.14112495382E+04  0.15294330000E+03 0.  0.
<mgrwt>
<rscale>  0 0.14097689E+04</rscale>
<asrwt>0</asrwt>
<pdfrwt beam="1">  1        2 0.15601861E+00 0.14097689E+04</pdfrwt>
<pdfrwt beam="2">  1       -2 0.38036172E+00 0.14097689E+04</pdfrwt>
<totfact> 0.23564255E-01</totfact>
</mgrwt>
</event>
<event>
 4    1  0.1033139E-008  0.3859679E+03  0.7818608E-02  0.1048750E+00
         -2   -1    0    0    0  501 -0.00000000000E+00  0.00000000000E+00  0.85452833844E+03  0.85452833844E+03  0.25500000000E-02 0.  1.
          2   -1    0    0  501    0  0.00000000000E+00 -0.00000000000E+00 -0.53116152625E+03  0.53116152625E+03  0.25500000000E-02 0. -1.
    8880022    1    1    2    0    0  0.30087318362E+03 -0.18722959678E+03 -0.40619245296E+03  0.56032450989E+03  0.15294330000E+03 0.  0.
    8880022    1    1    2    0    0 -0.30087318362E+03  0.18722959678E+03  0.72955926515E+03  0.82536535481E+03  0.15294330000E+03 0.  0.
<mgrwt>
<rscale>  0 0.38596794E+03</rscale>
<asrwt>0</asrwt>
<pdfrwt beam="1">  1        2 0.81717158E-01 0.38596794E+03</pdfrwt>
<pdfrwt beam="2">  1       -2 0.13146590E+00 0.38596794E+03</pdfrwt>
<totfact> 0.25557052E+01</totfact>
</mgrwt>
</event>
<event>
 4    1  0.1109186E-008  0.1543541E+04  0.7818608E-02  0.8856004E-01
          2   -1    0    0  501    0  0.00000000000E+00  0.00000000000E+00  0.27192463652E+04  0.27192463652E+04  0.25500000000E-02 0. -1.
         -2   -1    0    0    0  501 -0.00000000000E+00 -0.00000000000E+00 -0.17585848540E+04  0.17585848540E+04  0.25500000000E-02 0.  1.
    8880022    1    1    2    0    0  0.15091858553E+04  0.28545776310E+03  0.20662923934E+04  0.25791634280E+04  0.15294330000E+03 0.  0.
    8880022    1    1    2    0    0 -0.15091858553E+04 -0.28545776310E+03 -0.11056308823E+04  0.18986677912E+04  0.15294330000E+03 0.  0.
<mgrwt>
<rscale>  0 0.15435413E+04</rscale>
<asrwt>0</asrwt>
<pdfrwt beam="1">  1        2 0.41834559E+00 0.15435413E+04</pdfrwt>
<pdfrwt beam="2">  1       -2 0.27055152E+00 0.15435413E+04</pdfrwt>
<totfact> 0.11609637E-01</totfact>
</mgrwt>
</event>
<event>
 4    1  0.1033139E-008  0.1776440E+04  0.7818608E-02  0.8718929E-01
         -2   -1    0    0    0  501 -0.00000000000E+00  0.00000000000E+00  0.23669736613E+04  0.23669736613E+04  0.25500000000E-02 0.  1.
          2   -1    0    0  501    0  0.00000000000E+00 -0.00000000000E+00 -0.13913950173E+04  0.13913950173E+04  0.25500000000E-02 0. -1.
    8880022    1    1    2    0    0 -0.16145035643E+04  0.72507044177E+03  0.10360191009E+03  0.17794588822E+04  0.15294330000E+03 0.  0.
    8880022    1    1    2    0    0  0.16145035643E+04 -0.72507044177E+03  0.87197673392E+03  0.19789097964E+04  0.15294330000E+03 0.  0.
<mgrwt>
<rscale>  0 0.17764404E+04</rscale>
<asrwt>0</asrwt>
<pdfrwt beam="1">  1        2 0.21406077E+00 0.17764404E+04</pdfrwt>
<pdfrwt beam="2">  1       -2 0.36414979E+00 0.17764404E+04</pdfrwt>
<totfact> 0.16970883E-01</totfact>
</mgrwt>
</event>
<event>
 4    1  0.1033139E-008  0.4322865E+03  0.7818608E-02  0.1033140E+00
         -2   -1    0    0    0  501 -0.00000000000E+00  0.00000000000E+00  0.31279267595E+03  0.31279267596E+03  0.25500000000E-02 0.  1.
          2   -1    0    0  501    0  0.00000000000E+00 -0.00000000000E+00 -0.10160253811E+04  0.10160253811E+04  0.25500000000E-02 0. -1.
    8880022    1    1    2    0    0  0.73351464370E+02  0.39761729803E+03 -0.77807867307E+03  0.89010000984E+03  0.15294330000E+03 0.  0.
    8880022    1    1    2    0    0 -0.73351464370E+02 -0.39761729803E+03  0.74845967937E+02  0.43871804721E+03  0.15294330000E+03 0.  0.
<mgrwt>
<rscale>  0 0.43228649E+03</rscale>
<asrwt>0</asrwt>
<pdfrwt beam="1">  1        2 0.15631160E+00 0.43228649E+03</pdfrwt>
<pdfrwt beam="2">  1       -2 0.48121951E-01 0.43228649E+03</pdfrwt>
<totfact> 0.10512530E+02</totfact>
</mgrwt>
</event>
<event>
 4    1  0.1033139E-008  0.6855490E+03  0.7818608E-02  0.9742269E-01
         -2   -1    0    0    0  501 -0.00000000000E+00  0.00000000000E+00  0.16893566340E+04  0.16893566340E+04  0.25500000000E-02 0.  1.
          2   -1    0    0  501    0  0.00000000000E+00 -0.00000000000E+00 -0.15153572658E+04  0.15153572658E+04  0.25500000000E-02 0. -1.
    8880022    1    1    2    0    0  0.34635686466E+03  0.57150915929E+03  0.15348190061E+04  0.16809660411E+04  0.15294330000E+03 0.  0.
    8880022    1    1    2    0    0 -0.34635686466E+03 -0.57150915929E+03 -0.13608196379E+04  0.15237478587E+04  0.15294330000E+03 0.  0.
<mgrwt>
<rscale>  0 0.68554901E+03</rscale>
<asrwt>0</asrwt>
<pdfrwt beam="1">  1        2 0.23313189E+00 0.68554901E+03</pdfrwt>
<pdfrwt beam="2">  1       -2 0.25990102E+00 0.68554901E+03</pdfrwt>
<totfact> 0.73670362E-01</totfact>
</mgrwt>
</event>
<event>
 4    1  0.1033139E-008  0.9880025E+03  0.7818608E-02  0.9321802E-01
         -2   -1    0    0    0  501 -0.00000000000E+00  0.00000000000E+00  0.72185025108E+03  0.72185025109E+03  0.25500000000E-02 0.  1.
          2   -1    0    0  501    0  0.00000000000E+00 -0.00000000000E+00 -0.14674802905E+04  0.14674802905E+04  0.25500000000E-02 0. -1.
    8880022    1    1    2    0    0  0.79505272642E+03  0.56625834470E+03 -0.66119079210E+02  0.99021247033E+03  0.15294330000E+03 0.  0.
    8880022    1    1    2    0    0 -0.79505272642E+03 -0.56625834470E+03 -0.67951096017E+03  0.11991180712E+04  0.15294330000E+03 0.  0.
<mgrwt>
<rscale>  0 0.98800253E+03</rscale>
<asrwt>0</asrwt>
<pdfrwt beam="1">  1        2 0.22576620E+00 0.98800253E+03</pdfrwt>
<pdfrwt beam="2">  1       -2 0.11105389E+00 0.98800253E+03</pdfrwt>
<totfact> 0.84656070E+00</totfact>
</mgrwt>
</event>
<event>
 4    1  0.1033139E-008  0.6340360E+03  0.7818608E-02  0.9837204E-01
          2   -1    0    0  501    0  0.00000000000E+00  0.00000000000E+00  0.21403252741E+04  0.21403252741E+04  0.25500000000E-02 0. -1.
         -2   -1    0    0    0  501 -0.00000000000E+00 -0.00000000000E+00 -0.55387199790E+03  0.55387199791E+03  0.25500000000E-02 0.  1.
    8880022    1    1    2    0    0 -0.13601362105E+03  0.60009187675E+03  0.18883536614E+04  0.19919541082E+04  0.15294330000E+03 0.  0.
    8880022    1    1    2    0    0  0.13601362105E+03 -0.60009187675E+03 -0.30190038513E+03  0.70224316388E+03  0.15294330000E+03 0.  0.
<mgrwt>
<rscale>  0 0.63403598E+03</rscale>
<asrwt>0</asrwt>
<pdfrwt beam="1">  1        2 0.32928081E+00 0.63403598E+03</pdfrwt>
<pdfrwt beam="2">  1       -2 0.85211077E-01 0.63403598E+03</pdfrwt>
<totfact> 0.70909787E+00</totfact>
</mgrwt>
</event>
<event>
 4    1  0.1033139E-008  0.2951849E+03  0.7818608E-02  0.1087673E+00
          2   -1    0    0  501    0  0.00000000000E+00  0.00000000000E+00  0.13281630486E+04  0.13281630486E+04  0.25500000000E-02 0. -1.
         -2   -1    0    0    0  501 -0.00000000000E+00 -0.00000000000E+00 -0.22469644305E+03  0.22469644306E+03  0.25500000000E-02 0.  1.
    8880022    1    1    2    0    0 -0.22214825188E+02 -0.25149352871E+03  0.12050555800E+04  0.12406825127E+04  0.15294330000E+03 0. -1.
    8880022    1    1    2    0    0  0.22214825188E+02  0.25149352871E+03 -0.10158897445E+03  0.31217697895E+03  0.15294330000E+03 0.  0.
<mgrwt>
<rscale>  0 0.29518494E+03</rscale>
<asrwt>0</asrwt>
<pdfrwt beam="1">  1        2 0.20433278E+00 0.29518494E+03</pdfrwt>
<pdfrwt beam="2">  1       -2 0.34568683E-01 0.29518494E+03</pdfrwt>
<totfact> 0.13395257E+02</totfact>
</mgrwt>
</event>
<event>
 4    1  0.1033139E-008  0.1794637E+03  0.7818608E-02  0.1168323E+00
         -2   -1    0    0    0  501 -0.00000000000E+00  0.00000000000E+00  0.71769706633E+02  0.71769706678E+02  0.25500000000E-02 0.  1.
          2   -1    0    0  501    0  0.00000000000E+00 -0.00000000000E+00 -0.31934156995E+04  0.31934156995E+04  0.25500000000E-02 0. -1.
    8880022    1    1    2    0    0 -0.71842123720E+02  0.60450736909E+02 -0.30743640722E+04  0.30795976497E+04  0.15294330000E+03 0. -1.
    8880022    1    1    2    0    0  0.71842123720E+02 -0.60450736909E+02 -0.47281920668E+02  0.18558775652E+03  0.15294330000E+03 0.  0.
<mgrwt>
<rscale>  0 0.17946374E+03</rscale>
<asrwt>0</asrwt>
<pdfrwt beam="1">  1        2 0.49129461E+00 0.17946374E+03</pdfrwt>
<pdfrwt beam="2">  1       -2 0.11041496E-01 0.17946374E+03</pdfrwt>
<totfact> 0.94392500E+01</totfact>
</mgrwt>
</event>
<event>
 4    1  0.1033139E-008  0.8385479E+03  0.7818608E-02  0.9505838E-01
         -2   -1    0    0    0  501 -0.00000000000E+00  0.00000000000E+00  0.90205504774E+03  0.90205504774E+03  0.25500000000E-02 0.  1.
          2   -1    0    0  501    0  0.00000000000E+00 -0.00000000000E+00 -0.14858470480E+04  0.14858470480E+04  0.25500000000E-02 0. -1.
    8880022    1    1    2    0    0  0.78238439646E+01 -0.82444513849E+03 -0.11150950763E+04  0.13952059637E+04  0.15294330000E+03 0.  0.
    8880022    1    1    2    0    0 -0.78238439646E+01  0.82444513849E+03  0.53130307606E+03  0.99269613203E+03  0.15294330000E+03 0.  0.
<mgrwt>
<rscale>  0 0.83854794E+03</rscale>
<asrwt>0</asrwt>
<pdfrwt beam="1">  1        2 0.22859185E+00 0.83854794E+03</pdfrwt>
<pdfrwt beam="2">  1       -2 0.13877770E+00 0.83854794E+03</pdfrwt>
<totfact> 0.48115591E+00</totfact>
</mgrwt>
</event>
<event>
 4    1  0.1033139E-008  0.2418357E+03  0.7818608E-02  0.1118576E+00
         -2   -1    0    0    0  501 -0.00000000000E+00  0.00000000000E+00  0.20027440008E+03  0.20027440010E+03  0.25500000000E-02 0.  1.
          2   -1    0    0  501    0  0.00000000000E+00 -0.00000000000E+00 -0.18976481899E+04  0.18976481899E+04  0.25500000000E-02 0. -1.
    8880022    1    1    2    0    0  0.17447494687E+03 -0.68200847771E+02  0.11619430691E+03  0.26830138407E+03  0.15294330000E+03 0.  1.
    8880022    1    1    2    0    0 -0.17447494687E+03  0.68200847771E+02 -0.18135680967E+04  0.18296212059E+04  0.15294330000E+03 0.  0.
<mgrwt>
<rscale>  0 0.24183572E+03</rscale>
<asrwt>0</asrwt>
<pdfrwt beam="1">  1        2 0.29194586E+00 0.24183572E+03</pdfrwt>
<pdfrwt beam="2">  1       -2 0.30811448E-01 0.24183572E+03</pdfrwt>
<totfact> 0.83561787E+01</totfact>
</mgrwt>
</event>
<event>
 4    1  0.1033139E-008  0.6905000E+03  0.7818608E-02  0.9733618E-01
         -2   -1    0    0    0  501 -0.00000000000E+00  0.00000000000E+00  0.10198170842E+04  0.10198170842E+04  0.25500000000E-02 0.  1.
          2   -1    0    0  501    0  0.00000000000E+00 -0.00000000000E+00 -0.26632838939E+04  0.26632838939E+04  0.25500000000E-02 0. -1.
    8880022    1    1    2    0    0  0.52257851318E+03  0.42462965755E+03  0.85038563932E+03  0.10954204841E+04  0.15294330000E+03 0.  0.
    8880022    1    1    2    0    0 -0.52257851318E+03 -0.42462965755E+03 -0.24938524490E+04  0.25876804940E+04  0.15294330000E+03 0.  0.
<mgrwt>
<rscale>  0 0.69050004E+03</rscale>
<asrwt>0</asrwt>
<pdfrwt beam="1">  1        2 0.40973598E+00 0.69050004E+03</pdfrwt>
<pdfrwt beam="2">  1       -2 0.15689494E+00 0.69050004E+03</pdfrwt>
<totfact> 0.79608407E-01</totfact>
</mgrwt>
</event>
<event>
 4    1  0.1033139E-008  0.4018215E+03  0.7818608E-02  0.1043151E+00
         -2   -1    0    0    0  501 -0.00000000000E+00  0.00000000000E+00  0.47019756592E+03  0.47019756593E+03  0.25500000000E-02 0.  1.
          2   -1    0    0  501    0  0.00000000000E+00 -0.00000000000E+00 -0.16681937419E+04  0.16681937419E+04  0.25500000000E-02 0. -1.
    8880022    1    1    2    0    0 -0.27204317113E+03 -0.25310343946E+03 -0.15518160617E+04  0.16029951903E+04  0.15294330000E+03 0.  0.
    8880022    1    1    2    0    0  0.27204317113E+03  0.25310343946E+03  0.35381988572E+03  0.53539611744E+03  0.15294330000E+03 0.  0.
<mgrwt>
<rscale>  0 0.40182147E+03</rscale>
<asrwt>0</asrwt>
<pdfrwt beam="1">  1        2 0.25664519E+00 0.40182147E+03</pdfrwt>
<pdfrwt beam="2">  1       -2 0.72338088E-01 0.40182147E+03</pdfrwt>
<totfact> 0.19299798E+01</totfact>
</mgrwt>
</event>
<event>
 4    1  0.1033139E-008  0.2093748E+03  0.7818608E-02  0.1142062E+00
          2   -1    0    0  501    0  0.00000000000E+00  0.00000000000E+00  0.11466976911E+04  0.11466976911E+04  0.25500000000E-02 0. -1.
         -2   -1    0    0    0  501 -0.00000000000E+00 -0.00000000000E+00 -0.83148230997E+03  0.83148230997E+03  0.25500000000E-02 0.  1.
    8880022    1    1    2    0    0 -0.12378502414E+03  0.71578125784E+02 -0.80847673749E+03  0.83514815954E+03  0.15294330000E+03 0.  0.
    8880022    1    1    2    0    0  0.12378502414E+03 -0.71578125784E+02  0.11236921186E+04  0.11430318415E+04  0.15294330000E+03 0.  0.
<mgrwt>
<rscale>  0 0.20937482E+03</rscale>
<asrwt>0</asrwt>
<pdfrwt beam="1">  1        2 0.17641503E+00 0.20937482E+03</pdfrwt>
<pdfrwt beam="2">  1       -2 0.12792036E+00 0.20937482E+03</pdfrwt>
<totfact> 0.10627671E+01</totfact>
</mgrwt>
</event>
<event>
 4    1  0.1033139E-008  0.1534787E+03  0.7818608E-02  0.1196262E+00
         -2   -1    0    0    0  501 -0.00000000000E+00  0.00000000000E+00  0.44395821999E+02  0.44395822072E+02  0.25500000000E-02 0.  1.
          2   -1    0    0  501    0  0.00000000000E+00 -0.00000000000E+00 -0.76063191225E+03  0.76063191225E+03  0.25500000000E-02 0. -1.
    8880022    1    1    2    0    0 -0.12454794721E+02 -0.29894458967E+01 -0.57947988101E+03  0.59946029410E+03  0.15294330000E+03 0. -1.
    8880022    1    1    2    0    0  0.12454794721E+02  0.29894458967E+01 -0.13675620924E+03  0.20556744022E+03  0.15294330000E+03 0.  0.
<mgrwt>
<rscale>  0 0.15347870E+03</rscale>
<asrwt>0</asrwt>
<pdfrwt beam="1">  1        2 0.11702028E+00 0.15347870E+03</pdfrwt>
<pdfrwt beam="2">  1       -2 0.68301270E-02 0.15347870E+03</pdfrwt>
<totfact> 0.44776727E+03</totfact>
</mgrwt>
</event>
<event>
 4    1  0.1033139E-008  0.1439557E+04  0.7818608E-02  0.8925673E-01
          2   -1    0    0  501    0  0.00000000000E+00  0.00000000000E+00  0.39654808819E+04  0.39654808819E+04  0.25500000000E-02 0. -1.
         -2   -1    0    0    0  501 -0.00000000000E+00 -0.00000000000E+00 -0.64308810870E+03  0.64308810871E+03  0.25500000000E-02 0.  1.
    8880022    1    1    2    0    0 -0.12028264920E+04 -0.77597662784E+03  0.26586436197E+04  0.30233605221E+04  0.15294330000E+03 0.  0.
    8880022    1    1    2    0    0  0.12028264920E+04  0.77597662784E+03  0.66374915345E+03  0.15852084685E+04  0.15294330000E+03 0.  0.
<mgrwt>
<rscale>  0 0.14395565E+04</rscale>
<asrwt>0</asrwt>
<pdfrwt beam="1">  1        2 0.61007398E+00 0.14395565E+04</pdfrwt>
<pdfrwt beam="2">  1       -2 0.98936632E-01 0.14395565E+04</pdfrwt>
<totfact> 0.30203431E-01</totfact>
</mgrwt>
</event>
<event>
 4    1  0.1033139E-008  0.1140195E+04  0.7818608E-02  0.9166877E-01
          2   -1    0    0  501    0  0.00000000000E+00  0.00000000000E+00  0.13019274116E+04  0.13019274116E+04  0.25500000000E-02 0. -1.
         -2   -1    0    0    0  501 -0.00000000000E+00 -0.00000000000E+00 -0.15112411013E+04  0.15112411013E+04  0.25500000000E-02 0.  1.
    8880022    1    1    2    0    0 -0.78855310893E+03  0.80921989454E+03 -0.92392330602E+03  0.14675417445E+04  0.15294330000E+03 0.  0.
    8880022    1    1    2    0    0  0.78855310893E+03 -0.80921989454E+03  0.71460961626E+03  0.13456267685E+04  0.15294330000E+03 0.  0.
<mgrwt>
<rscale>  0 0.11401949E+04</rscale>
<asrwt>0</asrwt>
<pdfrwt beam="1">  1        2 0.20029652E+00 0.11401949E+04</pdfrwt>
<pdfrwt beam="2">  1       -2 0.23249863E+00 0.11401949E+04</pdfrwt>
<totfact> 0.13299055E+00</totfact>
</mgrwt>
</event>
<event>
 4    1  0.1033139E-008  0.7553243E+03  0.7818608E-02  0.9627034E-01
         -2   -1    0    0    0  501 -0.00000000000E+00  0.00000000000E+00  0.18765549048E+04  0.18765549048E+04  0.25500000000E-02 0.  1.
          2   -1    0    0  501    0  0.00000000000E+00 -0.00000000000E+00 -0.89136282218E+03  0.89136282218E+03  0.25500000000E-02 0. -1.
    8880022    1    1    2    0    0  0.50288687749E+03  0.54242786609E+03  0.16160126586E+04  0.17838194323E+04  0.15294330000E+03 0.  0.
    8880022    1    1    2    0    0 -0.50288687749E+03 -0.54242786609E+03 -0.63082057596E+03  0.98409829465E+03  0.15294330000E+03 0.  0.
<mgrwt>
<rscale>  0 0.75532434E+03</rscale>
<asrwt>0</asrwt>
<pdfrwt beam="1">  1        2 0.13713274E+00 0.75532434E+03</pdfrwt>
<pdfrwt beam="2">  1       -2 0.28870075E+00 0.75532434E+03</pdfrwt>
<totfact> 0.11531263E+00</totfact>
</mgrwt>
</event>
<event>
 4    1  0.1033139E-008  0.3763006E+03  0.7818608E-02  0.1052310E+00
          2   -1    0    0  501    0  0.00000000000E+00  0.00000000000E+00  0.79660177754E+03  0.79660177754E+03  0.25500000000E-02 0. -1.
         -2   -1    0    0    0  501 -0.00000000000E+00 -0.00000000000E+00 -0.78018557119E+03  0.78018557119E+03  0.25500000000E-02 0.  1.
    8880022    1    1    2    0    0  0.12664557333E+03 -0.31964257737E+03  0.70099025073E+03  0.79560634937E+03  0.15294330000E+03 0.  0.
    8880022    1    1    2    0    0 -0.12664557333E+03  0.31964257737E+03 -0.68457404438E+03  0.78118099936E+03  0.15294330000E+03 0.  0.
<mgrwt>
<rscale>  0 0.37630059E+03</rscale>
<asrwt>0</asrwt>
<pdfrwt beam="1">  1        2 0.12255412E+00 0.37630059E+03</pdfrwt>
<pdfrwt beam="2">  1       -2 0.12002855E+00 0.37630059E+03</pdfrwt>
<totfact> 0.19632004E+01</totfact>
</mgrwt>
</event>
<event>
 4    1  0.1170425E-008  0.8485390E+03  0.7818608E-02  0.9492300E-01
          2   -1    0    0  501    0  0.00000000000E+00  0.00000000000E+00  0.17602299375E+04  0.17602299375E+04  0.25500000000E-02 0. -1.
         -2   -1    0    0    0  501 -0.00000000000E+00 -0.00000000000E+00 -0.18114373285E+04  0.18114373285E+04  0.25500000000E-02 0.  1.
    8880022    1    1    2    0    0  0.49995215604E+03 -0.66833723071E+03  0.15457127167E+04  0.17633054947E+04  0.15294330000E+03 0.  0.
    8880022    1    1    2    0    0 -0.49995215604E+03  0.66833723071E+03 -0.15969201077E+04  0.18083617712E+04  0.15294330000E+03 0.  1.
<mgrwt>
<rscale>  0 0.84853902E+03</rscale>
<asrwt>0</asrwt>
<pdfrwt beam="1">  1        2 0.27080461E+00 0.84853902E+03</pdfrwt>
<pdfrwt beam="2">  1       -2 0.27868267E+00 0.84853902E+03</pdfrwt>
<totfact> 0.40224879E-01</totfact>
</mgrwt>
</event>
<event>
 4    1  0.1033139E-008  0.6712716E+03  0.7818608E-02  0.9767663E-01
          2   -1    0    0  501    0  0.00000000000E+00  0.00000000000E+00  0.19789982363E+04  0.19789982363E+04  0.25500000000E-02 0. -1.
         -2   -1    0    0    0  501 -0.00000000000E+00 -0.00000000000E+00 -0.68930789194E+03  0.68930789194E+03  0.25500000000E-02 0.  1.
    8880022    1    1    2    0    0  0.58611334103E+03 -0.28928371306E+03  0.17366338246E+04  0.18618546154E+04  0.15294330000E+03 0.  0.
    8880022    1    1    2    0    0 -0.58611334103E+03  0.28928371306E+03 -0.44694348017E+03  0.80645151290E+03  0.15294330000E+03 0.  0.
<mgrwt>
<rscale>  0 0.67127161E+03</rscale>
<asrwt>0</asrwt>
<pdfrwt beam="1">  1        2 0.30446126E+00 0.67127161E+03</pdfrwt>
<pdfrwt beam="2">  1       -2 0.10604737E+00 0.67127161E+03</pdfrwt>
<totfact> 0.51719150E+00</totfact>
</mgrwt>
</event>
<event>
 4    1  0.1033139E-008  0.8794234E+03  0.7818608E-02  0.9451675E-01
         -2   -1    0    0    0  501 -0.00000000000E+00  0.00000000000E+00  0.16323398128E+04  0.16323398128E+04  0.25500000000E-02 0.  1.
          2   -1    0    0  501    0  0.00000000000E+00 -0.00000000000E+00 -0.87446116046E+03  0.87446116046E+03  0.25500000000E-02 0. -1.
    8880022    1    1    2    0    0 -0.38183735711E+03 -0.77729918885E+03 -0.46948656689E+03  0.99689672774E+03  0.15294330000E+03 0.  0.
    8880022    1    1    2    0    0  0.38183735711E+03  0.77729918885E+03  0.12273652193E+04  0.15099042455E+04  0.15294330000E+03 0.  0.
<mgrwt>
<rscale>  0 0.87942336E+03</rscale>
<asrwt>0</asrwt>
<pdfrwt beam="1">  1        2 0.13453249E+00 0.87942336E+03</pdfrwt>
<pdfrwt beam="2">  1       -2 0.25112920E+00 0.87942336E+03</pdfrwt>
<totfact> 0.19552295E+00</totfact>
</mgrwt>
</event>
<event>
 4    1  0.1033139E-008  0.1118445E+04  0.7818608E-02  0.9187399E-01
         -2   -1    0    0    0  501 -0.00000000000E+00  0.00000000000E+00  0.68369115887E+03  0.68369115887E+03  0.25500000000E-02 0.  1.
          2   -1    0    0  501    0  0.00000000000E+00 -0.00000000000E+00 -0.20460425209E+04  0.20460425209E+04  0.25500000000E-02 0. -1.
    8880022    1    1    2    0    0  0.88086319918E+03  0.67201711226E+03 -0.11250392793E+04  0.15863896142E+04  0.15294330000E+03 0.  0.
    8880022    1    1    2    0    0 -0.88086319918E+03 -0.67201711226E+03 -0.23731208274E+03  0.11433440657E+04  0.15294330000E+03 0.  0.
<mgrwt>
<rscale>  0 0.11184447E+04</rscale>
<asrwt>0</asrwt>
<pdfrwt beam="1">  1        2 0.31477577E+00 0.11184447E+04</pdfrwt>
<pdfrwt beam="2">  1       -2 0.10518326E+00 0.11184447E+04</pdfrwt>
<totfact> 0.45503317E+00</totfact>
</mgrwt>
</event>
<event>
 4    1  0.1033139E-008  0.5393968E+03  0.7818608E-02  0.1003978E+00
         -2   -1    0    0    0  501 -0.00000000000E+00  0.00000000000E+00  0.72356090671E+03  0.72356090671E+03  0.25500000000E-02 0.  1.
          2   -1    0    0  501    0  0.00000000000E+00 -0.00000000000E+00 -0.14205576156E+04  0.14205576156E+04  0.25500000000E-02 0. -1.
    8880022    1    1    2    0    0  0.47264879712E+03  0.21014364293E+03 -0.12562339351E+04  0.13671402959E+04  0.15294330000E+03 0.  0.
    8880022    1    1    2    0    0 -0.47264879712E+03 -0.21014364293E+03  0.55923722620E+03  0.77697822638E+03  0.15294330000E+03 0.  0.
<mgrwt>
<rscale>  0 0.53939678E+03</rscale>
<asrwt>0</asrwt>
<pdfrwt beam="1">  1        2 0.21854733E+00 0.53939678E+03</pdfrwt>
<pdfrwt beam="2">  1       -2 0.11131706E+00 0.53939678E+03</pdfrwt>
<totfact> 0.95142557E+00</totfact>
</mgrwt>
</event>
<event>
 4    1  0.1033139E-008  0.1966423E+03  0.7818608E-02  0.1152603E+00
         -2   -1    0    0    0  501 -0.00000000000E+00  0.00000000000E+00  0.23165036482E+03  0.23165036484E+03  0.25500000000E-02 0.  1.
          2   -1    0    0  501    0  0.00000000000E+00 -0.00000000000E+00 -0.16784910748E+03  0.16784910750E+03  0.25500000000E-02 0. -1.
    8880022    1    1    2    0    0  0.53416135615E+02 -0.11145967939E+03  0.17077871851E+02  0.19738249769E+03  0.15294330000E+03 0.  1.
    8880022    1    1    2    0    0 -0.53416135615E+02  0.11145967939E+03  0.46723385490E+02  0.20211697465E+03  0.15294330000E+03 0.  0.
<mgrwt>
<rscale>  0 0.19664231E+03</rscale>
<asrwt>0</asrwt>
<pdfrwt beam="1">  1        2 0.25822940E-01 0.19664231E+03</pdfrwt>
<pdfrwt beam="2">  1       -2 0.35638518E-01 0.19664231E+03</pdfrwt>
<totfact> 0.15241661E+03</totfact>
</mgrwt>
</event>
<event>
 4    1  0.1033139E-008  0.7542856E+03  0.7818608E-02  0.9628651E-01
         -2   -1    0    0    0  501 -0.00000000000E+00  0.00000000000E+00  0.35432847209E+03  0.35432847210E+03  0.25500000000E-02 0.  1.
          2   -1    0    0  501    0  0.00000000000E+00 -0.00000000000E+00 -0.31476525847E+04  0.31476525847E+04  0.25500000000E-02 0. -1.
    8880022    1    1    2    0    0 -0.20753919965E+03 -0.70886004325E+03 -0.26221959087E+04  0.27285267301E+04  0.15294330000E+03 0.  0.
    8880022    1    1    2    0    0  0.20753919965E+03  0.70886004325E+03 -0.17112820391E+03  0.77345432670E+03  0.15294330000E+03 0.  0.
<mgrwt>
<rscale>  0 0.75428558E+03</rscale>
<asrwt>0</asrwt>
<pdfrwt beam="1">  1        2 0.48425422E+00 0.75428558E+03</pdfrwt>
<pdfrwt beam="2">  1       -2 0.54512075E-01 0.75428558E+03</pdfrwt>
<totfact> 0.47541302E+00</totfact>
</mgrwt>
</event>
<event>
 4    1  0.1033139E-008  0.9222647E+03  0.7818608E-02  0.9398170E-01
          2   -1    0    0  501    0  0.00000000000E+00  0.00000000000E+00  0.17373491176E+04  0.17373491176E+04  0.25500000000E-02 0. -1.
         -2   -1    0    0    0  501 -0.00000000000E+00 -0.00000000000E+00 -0.70901456169E+03  0.70901456169E+03  0.25500000000E-02 0.  1.
    8880022    1    1    2    0    0 -0.42691164487E+03  0.80307343645E+03  0.11946475280E+04  0.15092232658E+04  0.15294330000E+03 0.  0.
    8880022    1    1    2    0    0  0.42691164487E+03 -0.80307343645E+03 -0.16631297210E+03  0.93714041347E+03  0.15294330000E+03 0.  0.
<mgrwt>
<rscale>  0 0.92226469E+03</rscale>
<asrwt>0</asrwt>
<pdfrwt beam="1">  1        2 0.26728448E+00 0.92226469E+03</pdfrwt>
<pdfrwt beam="2">  1       -2 0.10907916E+00 0.92226469E+03</pdfrwt>
<totfact> 0.63058211E+00</totfact>
</mgrwt>
</event>
<event>
 4    1  0.1033139E-008  0.3144729E+03  0.7818608E-02  0.1078222E+00
         -2   -1    0    0    0  501 -0.00000000000E+00  0.00000000000E+00  0.26221697517E+04  0.26221697517E+04  0.25500000000E-02 0.  1.
          2   -1    0    0  501    0  0.00000000000E+00 -0.00000000000E+00 -0.70534890362E+03  0.70534890362E+03  0.25500000000E-02 0. -1.
    8880022    1    1    2    0    0  0.50801196296E+02 -0.27003851030E+03  0.25770789981E+04  0.25961951726E+04  0.15294330000E+03 0.  0.
    8880022    1    1    2    0    0 -0.50801196296E+02  0.27003851030E+03 -0.66025815008E+03  0.73132348270E+03  0.15294330000E+03 0.  0.
<mgrwt>
<rscale>  0 0.31447291E+03</rscale>
<asrwt>0</asrwt>
<pdfrwt beam="1">  1        2 0.10851522E+00 0.31447291E+03</pdfrwt>
<pdfrwt beam="2">  1       -2 0.40341073E+00 0.31447291E+03</pdfrwt>
<totfact> 0.35218014E-01</totfact>
</mgrwt>
</event>
<event>
 4    1  0.1033139E-008  0.6091686E+03  0.7818608E-02  0.9886565E-01
          2   -1    0    0  501    0  0.00000000000E+00  0.00000000000E+00  0.11562969851E+04  0.11562969851E+04  0.25500000000E-02 0. -1.
         -2   -1    0    0    0  501 -0.00000000000E+00 -0.00000000000E+00 -0.73288924147E+03  0.73288924148E+03  0.25500000000E-02 0.  1.
    8880022    1    1    2    0    0  0.54986567527E+03  0.21293767774E+03 -0.49649390737E+03  0.78587058001E+03  0.15294330000E+03 0.  0.
    8880022    1    1    2    0    0 -0.54986567527E+03 -0.21293767774E+03  0.91990165098E+03  0.11033156466E+04  0.15294330000E+03 0.  0.
<mgrwt>
<rscale>  0 0.60916859E+03</rscale>
<asrwt>0</asrwt>
<pdfrwt beam="1">  1        2 0.17789184E+00 0.60916859E+03</pdfrwt>
<pdfrwt beam="2">  1       -2 0.11275219E+00 0.60916859E+03</pdfrwt>
<totfact> 0.12927000E+01</totfact>
</mgrwt>
</event>
<event>
 4    1  0.1033139E-008  0.7725783E+03  0.7818608E-02  0.9600580E-01
         -2   -1    0    0    0  501 -0.00000000000E+00  0.00000000000E+00  0.10810231446E+04  0.10810231446E+04  0.25500000000E-02 0.  1.
          2   -1    0    0  501    0  0.00000000000E+00 -0.00000000000E+00 -0.81673998377E+03  0.81673998378E+03  0.25500000000E-02 0. -1.
    8880022    1    1    2    0    0  0.41611040570E+03  0.63272240979E+03  0.67222918319E+03  0.10240943537E+04  0.15294330000E+03 0.  0.
    8880022    1    1    2    0    0 -0.41611040570E+03 -0.63272240979E+03 -0.40794602239E+03  0.87366877464E+03  0.15294330000E+03 0.  0.
<mgrwt>
<rscale>  0 0.77257826E+03</rscale>
<asrwt>0</asrwt>
<pdfrwt beam="1">  1        2 0.12565231E+00 0.77257826E+03</pdfrwt>
<pdfrwt beam="2">  1       -2 0.16631125E+00 0.77257826E+03</pdfrwt>
<totfact> 0.77032509E+00</totfact>
</mgrwt>
</event>
<event>
 4    1  0.1033139E-008  0.9558342E+03  0.7818608E-02  0.9358357E-01
          2   -1    0    0  501    0  0.00000000000E+00  0.00000000000E+00  0.30539505488E+04  0.30539505488E+04  0.25500000000E-02 0. -1.
         -2   -1    0    0    0  501 -0.00000000000E+00 -0.00000000000E+00 -0.40174409288E+03  0.40174409288E+03  0.25500000000E-02 0.  1.
    8880022    1    1    2    0    0  0.91585898922E+03 -0.22678126102E+03  0.45298881921E+03  0.10577419117E+04  0.15294330000E+03 0.  0.
    8880022    1    1    2    0    0 -0.91585898922E+03  0.22678126102E+03  0.21992176368E+04  0.23979527300E+04  0.15294330000E+03 0.  0.
<mgrwt>
<rscale>  0 0.95583423E+03</rscale>
<asrwt>0</asrwt>
<pdfrwt beam="1">  1        2 0.46983854E+00 0.95583423E+03</pdfrwt>
<pdfrwt beam="2">  1       -2 0.61806784E-01 0.95583423E+03</pdfrwt>
<totfact> 0.40357398E+00</totfact>
</mgrwt>
</event>
<event>
 4    1  0.1033139E-008  0.5515423E+03  0.7818608E-02  0.1001138E+00
         -2   -1    0    0    0  501 -0.00000000000E+00  0.00000000000E+00  0.10723312652E+04  0.10723312652E+04  0.25500000000E-02 0.  1.
          2   -1    0    0  501    0  0.00000000000E+00 -0.00000000000E+00 -0.48933022055E+03  0.48933022056E+03  0.25500000000E-02 0. -1.
    8880022    1    1    2    0    0  0.14713895066E+03 -0.50907507826E+03 -0.21469750616E+03  0.59185638314E+03  0.15294330000E+03 0.  0.
    8880022    1    1    2    0    0 -0.14713895066E+03  0.50907507826E+03  0.79769855081E+03  0.96980510263E+03  0.15294330000E+03 0.  0.
<mgrwt>
<rscale>  0 0.55154235E+03</rscale>
<asrwt>0</asrwt>
<pdfrwt beam="1">  1        2 0.75281573E-01 0.55154235E+03</pdfrwt>
<pdfrwt beam="2">  1       -2 0.16497404E+00 0.55154235E+03</pdfrwt>
<totfact> 0.15167808E+01</totfact>
</mgrwt>
</event>
<event>
 4    1  0.1033139E-008  0.4097875E+03  0.7818608E-02  0.1040442E+00
         -2   -1    0    0    0  501 -0.00000000000E+00  0.00000000000E+00  0.88122084421E+03  0.88122084422E+03  0.25500000000E-02 0.  1.
          2   -1    0    0  501    0  0.00000000000E+00 -0.00000000000E+00 -0.35976556676E+03  0.35976556677E+03  0.25500000000E-02 0. -1.
    8880022    1    1    2    0    0 -0.36127645679E+03  0.11837852564E+03  0.68626140628E+03  0.79930002148E+03  0.15294330000E+03 0.  0.
    8880022    1    1    2    0    0  0.36127645679E+03 -0.11837852564E+03 -0.16480612882E+03  0.44168638951E+03  0.15294330000E+03 0.  0.
<mgrwt>
<rscale>  0 0.40978751E+03</rscale>
<asrwt>0</asrwt>
<pdfrwt beam="1">  1        2 0.55348548E-01 0.40978751E+03</pdfrwt>
<pdfrwt beam="2">  1       -2 0.13557244E+00 0.40978751E+03</pdfrwt>
<totfact> 0.36473769E+01</totfact>
</mgrwt>
</event>
<event>
 4    1  0.1033139E-008  0.3075053E+03  0.7818608E-02  0.1081548E+00
          2   -1    0    0  501    0  0.00000000000E+00  0.00000000000E+00  0.11888234280E+03  0.11888234283E+03  0.25500000000E-02 0. -1.
         -2   -1    0    0    0  501 -0.00000000000E+00 -0.00000000000E+00 -0.10568961375E+04  0.10568961375E+04  0.25500000000E-02 0.  1.
    8880022    1    1    2    0    0 -0.19874627071E+03 -0.17795446278E+03 -0.76142782033E+03  0.82117711215E+03  0.15294330000E+03 0.  0.
    8880022    1    1    2    0    0  0.19874627071E+03  0.17795446278E+03 -0.17658597433E+03  0.35460136814E+03  0.15294330000E+03 0. -1.
<mgrwt>
<rscale>  0 0.30750532E+03</rscale>
<asrwt>0</asrwt>
<pdfrwt beam="1">  1        2 0.18289592E-01 0.30750532E+03</pdfrwt>
<pdfrwt beam="2">  1       -2 0.16259940E+00 0.30750532E+03</pdfrwt>
<totfact> 0.79086837E+01</totfact>
</mgrwt>
</event>
<event>
 4    1  0.1033139E-008  0.1176071E+04  0.7818608E-02  0.9134064E-01
          2   -1    0    0  501    0  0.00000000000E+00  0.00000000000E+00  0.93807026507E+03  0.93807026508E+03  0.25500000000E-02 0. -1.
         -2   -1    0    0    0  501 -0.00000000000E+00 -0.00000000000E+00 -0.20125652259E+04  0.20125652259E+04  0.25500000000E-02 0.  1.
    8880022    1    1    2    0    0 -0.10322095036E+04  0.54248870371E+03 -0.13001100912E+04  0.17531196067E+04  0.15294330000E+03 0.  0.
    8880022    1    1    2    0    0  0.10322095036E+04 -0.54248870371E+03  0.22561513039E+03  0.11975158843E+04  0.15294330000E+03 0.  0.
<mgrwt>
<rscale>  0 0.11760706E+04</rscale>
<asrwt>0</asrwt>
<pdfrwt beam="1">  1        2 0.14431850E+00 0.11760706E+04</pdfrwt>
<pdfrwt beam="2">  1       -2 0.30962542E+00 0.11760706E+04</pdfrwt>
<totfact> 0.75361013E-01</totfact>
</mgrwt>
</event>
<event>
 4    1  0.1033139E-008  0.5765481E+03  0.7818608E-02  0.9955292E-01
         -2   -1    0    0    0  501 -0.00000000000E+00  0.00000000000E+00  0.35392385392E+03  0.35392385393E+03  0.25500000000E-02 0.  1.
          2   -1    0    0  501    0  0.00000000000E+00 -0.00000000000E+00 -0.11030813806E+04  0.11030813806E+04  0.25500000000E-02 0. -1.
    8880022    1    1    2    0    0  0.44792104716E+01 -0.55587403664E+03 -0.93787723060E+02  0.58412652563E+03  0.15294330000E+03 0.  0.
    8880022    1    1    2    0    0 -0.44792104716E+01  0.55587403664E+03 -0.65536980359E+03  0.87287870888E+03  0.15294330000E+03 0. -1.
<mgrwt>
<rscale>  0 0.57654806E+03</rscale>
<asrwt>0</asrwt>
<pdfrwt beam="1">  1        2 0.16970483E+00 0.57654806E+03</pdfrwt>
<pdfrwt beam="2">  1       -2 0.54449824E-01 0.57654806E+03</pdfrwt>
<totfact> 0.71111166E+01</totfact>
</mgrwt>
</event>
<event>
 4    1  0.1033139E-008  0.1237871E+04  0.7818608E-02  0.9080339E-01
          2   -1    0    0  501    0  0.00000000000E+00  0.00000000000E+00  0.16002644645E+04  0.16002644645E+04  0.25500000000E-02 0. -1.
         -2   -1    0    0    0  501 -0.00000000000E+00 -0.00000000000E+00 -0.11596107709E+04  0.11596107709E+04  0.25500000000E-02 0.  1.
    8880022    1    1    2    0    0  0.74352418225E+02 -0.12261336636E+04  0.79636432993E+03  0.14719102697E+04  0.15294330000E+03 0.  0.
    8880022    1    1    2    0    0 -0.74352418225E+02  0.12261336636E+04 -0.35571063632E+03  0.12879649657E+04  0.15294330000E+03 0.  0.
<mgrwt>
<rscale>  0 0.12378706E+04</rscale>
<asrwt>0</asrwt>
<pdfrwt beam="1">  1        2 0.24619453E+00 0.12378706E+04</pdfrwt>
<pdfrwt beam="2">  1       -2 0.17840166E+00 0.12378706E+04</pdfrwt>
<totfact> 0.20043811E+00</totfact>
</mgrwt>
</event>
<event>
 4    1  0.1033139E-008  0.1324935E+04  0.7818608E-02  0.9010022E-01
          2   -1    0    0  501    0  0.00000000000E+00  0.00000000000E+00  0.10465204733E+04  0.10465204733E+04  0.25500000000E-02 0. -1.
         -2   -1    0    0    0  501 -0.00000000000E+00 -0.00000000000E+00 -0.32137403514E+04  0.32137403514E+04  0.25500000000E-02 0.  1.
    8880022    1    1    2    0    0 -0.43671391438E+03  0.12415074573E+04  0.38918432755E+03  0.13809112584E+04  0.15294330000E+03 0.  0.
    8880022    1    1    2    0    0  0.43671391438E+03 -0.12415074573E+04 -0.25564042056E+04  0.28793495663E+04  0.15294330000E+03 0.  0.
<mgrwt>
<rscale>  0 0.13249345E+04</rscale>
<asrwt>0</asrwt>
<pdfrwt beam="1">  1        2 0.16100315E+00 0.13249345E+04</pdfrwt>
<pdfrwt beam="2">  1       -2 0.49442159E+00 0.13249345E+04</pdfrwt>
<totfact> 0.40430309E-02</totfact>
</mgrwt>
</event>
<event>
 4    1  0.1033139E-008  0.6857838E+03  0.7818608E-02  0.9741857E-01
          2   -1    0    0  501    0  0.00000000000E+00  0.00000000000E+00  0.28086446273E+04  0.28086446273E+04  0.25500000000E-02 0. -1.
         -2   -1    0    0    0  501 -0.00000000000E+00 -0.00000000000E+00 -0.34610452213E+03  0.34610452214E+03  0.25500000000E-02 0.  1.
    8880022    1    1    2    0    0  0.22021107639E+03  0.63120112603E+03  0.23645617729E+04  0.24620015862E+04  0.15294330000E+03 0.  0.
    8880022    1    1    2    0    0 -0.22021107639E+03 -0.63120112603E+03  0.97978332194E+02  0.69274756316E+03  0.15294330000E+03 0.  1.
<mgrwt>
<rscale>  0 0.68578381E+03</rscale>
<asrwt>0</asrwt>
<pdfrwt beam="1">  1        2 0.43209917E+00 0.68578381E+03</pdfrwt>
<pdfrwt beam="2">  1       -2 0.53246850E-01 0.68578381E+03</pdfrwt>
<totfact> 0.81374111E+00</totfact>
</mgrwt>
</event>
<event>
 4    1  0.1033139E-008  0.5456990E+03  0.7818608E-02  0.1002494E+00
         -2   -1    0    0    0  501 -0.00000000000E+00  0.00000000000E+00  0.52063085928E+03  0.52063085928E+03  0.25500000000E-02 0.  1.
          2   -1    0    0  501    0  0.00000000000E+00 -0.00000000000E+00 -0.21944249656E+04  0.21944249656E+04  0.25500000000E-02 0. -1.
    8880022    1    1    2    0    0  0.22464072947E+03 -0.47321485209E+03  0.33038058799E+03  0.63791750212E+03  0.15294330000E+03 0.  0.
    8880022    1    1    2    0    0 -0.22464072947E+03  0.47321485209E+03 -0.20041746943E+04  0.20771383227E+04  0.15294330000E+03 0.  0.
<mgrwt>
<rscale>  0 0.54569901E+03</rscale>
<asrwt>0</asrwt>
<pdfrwt beam="1">  1        2 0.33760384E+00 0.54569901E+03</pdfrwt>
<pdfrwt beam="2">  1       -2 0.80097057E-01 0.54569901E+03</pdfrwt>
<totfact> 0.77605724E+00</totfact>
</mgrwt>
</event>
<event>
 4    1  0.1033139E-008  0.5086543E+03  0.7818608E-02  0.1011544E+00
         -2   -1    0    0    0  501 -0.00000000000E+00  0.00000000000E+00  0.53648916942E+03  0.53648916943E+03  0.25500000000E-02 0.  1.
          2   -1    0    0  501    0  0.00000000000E+00 -0.00000000000E+00 -0.36535865690E+04  0.36535865690E+04  0.25500000000E-02 0. -1.
    8880022    1    1    2    0    0 -0.28197624559E+03  0.39474919022E+03 -0.35104255598E+04  0.35470856756E+04  0.15294330000E+03 0. -1.
    8880022    1    1    2    0    0  0.28197624559E+03 -0.39474919022E+03  0.39332816021E+03  0.64299006282E+03  0.15294330000E+03 0.  0.
<mgrwt>
<rscale>  0 0.50865428E+03</rscale>
<asrwt>0</asrwt>
<pdfrwt beam="1">  1        2 0.56209023E+00 0.50865428E+03</pdfrwt>
<pdfrwt beam="2">  1       -2 0.82536798E-01 0.50865428E+03</pdfrwt>
<totfact> 0.95764761E-01</totfact>
</mgrwt>
</event>
<event>
 4    1  0.1033139E-008  0.1126272E+04  0.7818608E-02  0.9179957E-01
          2   -1    0    0  501    0  0.00000000000E+00  0.00000000000E+00  0.23971289205E+04  0.23971289205E+04  0.25500000000E-02 0. -1.
         -2   -1    0    0    0  501 -0.00000000000E+00 -0.00000000000E+00 -0.53863357254E+03  0.53863357254E+03  0.25500000000E-02 0.  1.
    8880022    1    1    2    0    0  0.10119281469E+04 -0.47021120422E+03  0.73467991442E+03  0.13447094038E+04  0.15294330000E+03 0.  0.
    8880022    1    1    2    0    0 -0.10119281469E+04  0.47021120422E+03  0.11238154335E+04  0.15910530892E+04  0.15294330000E+03 0.  0.
<mgrwt>
<rscale>  0 0.11262721E+04</rscale>
<asrwt>0</asrwt>
<pdfrwt beam="1">  1        2 0.36878906E+00 0.11262721E+04</pdfrwt>
<pdfrwt beam="2">  1       -2 0.82866705E-01 0.11262721E+04</pdfrwt>
<totfact> 0.50575042E+00</totfact>
</mgrwt>
</event>
<event>
 4    1  0.1033139E-008  0.6203805E+03  0.7818608E-02  0.9864002E-01
         -2   -1    0    0    0  501 -0.00000000000E+00  0.00000000000E+00  0.19290075389E+03  0.19290075391E+03  0.25500000000E-02 0.  1.
          2   -1    0    0  501    0  0.00000000000E+00 -0.00000000000E+00 -0.22919448688E+04  0.22919448688E+04  0.25500000000E-02 0. -1.
    8880022    1    1    2    0    0  0.45704012301E+03 -0.39063370706E+03 -0.60245521386E+03  0.86476835329E+03  0.15294330000E+03 0.  0.
    8880022    1    1    2    0    0 -0.45704012301E+03  0.39063370706E+03 -0.14965889010E+04  0.16200772694E+04  0.15294330000E+03 0.  0.
<mgrwt>
<rscale>  0 0.62038054E+03</rscale>
<asrwt>0</asrwt>
<pdfrwt beam="1">  1        2 0.35260688E+00 0.62038054E+03</pdfrwt>
<pdfrwt beam="2">  1       -2 0.29677041E-01 0.62038054E+03</pdfrwt>
<totfact> 0.50558539E+01</totfact>
</mgrwt>
</event>
<event>
 4    1  0.1033139E-008  0.1355683E+04  0.7818608E-02  0.8986537E-01
          2   -1    0    0  501    0  0.00000000000E+00  0.00000000000E+00  0.22057820449E+04  0.22057820449E+04  0.25500000000E-02 0. -1.
         -2   -1    0    0    0  501 -0.00000000000E+00 -0.00000000000E+00 -0.10400496831E+04  0.10400496831E+04  0.25500000000E-02 0.  1.
    8880022    1    1    2    0    0  0.11810528705E+04 -0.64776487089E+03  0.13066139265E+04  0.18828480600E+04  0.15294330000E+03 0.  0.
    8880022    1    1    2    0    0 -0.11810528705E+04  0.64776487089E+03 -0.14088156478E+03  0.13629836680E+04  0.15294330000E+03 0.  0.
<mgrwt>
<rscale>  0 0.13556832E+04</rscale>
<asrwt>0</asrwt>
<pdfrwt beam="1">  1        2 0.33935108E+00 0.13556832E+04</pdfrwt>
<pdfrwt beam="2">  1       -2 0.16000764E+00 0.13556832E+04</pdfrwt>
<totfact> 0.12352981E+00</totfact>
</mgrwt>
</event>
<event>
 4    1  0.1033139E-008  0.4958414E+03  0.7818608E-02  0.1014870E+00
         -2   -1    0    0    0  501 -0.00000000000E+00  0.00000000000E+00  0.27717711929E+03  0.27717711930E+03  0.25500000000E-02 0.  1.
          2   -1    0    0  501    0  0.00000000000E+00 -0.00000000000E+00 -0.14776439288E+04  0.14776439288E+04  0.25500000000E-02 0. -1.
    8880022    1    1    2    0    0 -0.35410222720E+03  0.31157452625E+03 -0.45508916644E+02  0.49792548361E+03  0.15294330000E+03 0.  0.
    8880022    1    1    2    0    0  0.35410222720E+03 -0.31157452625E+03 -0.11549578929E+04  0.12568955645E+04  0.15294330000E+03 0.  0.
<mgrwt>
<rscale>  0 0.49584143E+03</rscale>
<asrwt>0</asrwt>
<pdfrwt beam="1">  1        2 0.22732983E+00 0.49584143E+03</pdfrwt>
<pdfrwt beam="2">  1       -2 0.42642635E-01 0.49584143E+03</pdfrwt>
<totfact> 0.71622737E+01</totfact>
</mgrwt>
</event>
<event>
 4    1  0.1033139E-008  0.4852594E+03  0.7818608E-02  0.1017700E+00
          2   -1    0    0  501    0  0.00000000000E+00  0.00000000000E+00  0.21299135682E+04  0.21299135682E+04  0.25500000000E-02 0. -1.
         -2   -1    0    0    0  501 -0.00000000000E+00 -0.00000000000E+00 -0.38792388309E+03  0.38792388310E+03  0.25500000000E-02 0.  1.
    8880022    1    1    2    0    0 -0.97963698714E+02  0.44998684612E+03 -0.19352017780E+03  0.52242392765E+03  0.15294330000E+03 0.  0.
    8880022    1    1    2    0    0  0.97963698714E+02 -0.44998684612E+03  0.19355098629E+04  0.19954135237E+04  0.15294330000E+03 0. -1.
<mgrwt>
<rscale>  0 0.48525942E+03</rscale>
<asrwt>0</asrwt>
<pdfrwt beam="1">  1        2 0.32767901E+00 0.48525942E+03</pdfrwt>
<pdfrwt beam="2">  1       -2 0.59680597E-01 0.48525942E+03</pdfrwt>
<totfact> 0.16132923E+01</totfact>
</mgrwt>
</event>
<event>
 4    1  0.1033139E-008  0.4249946E+03  0.7818608E-02  0.1035453E+00
          2   -1    0    0  501    0  0.00000000000E+00  0.00000000000E+00  0.28240285282E+04  0.28240285282E+04  0.25500000000E-02 0. -1.
         -2   -1    0    0    0  501 -0.00000000000E+00 -0.00000000000E+00 -0.24625812784E+03  0.24625812786E+03  0.25500000000E-02 0.  1.
    8880022    1    1    2    0    0  0.23922260208E+03 -0.31622987529E+03 -0.31943852872E+02  0.42619344214E+03  0.15294330000E+03 0.  0.
    8880022    1    1    2    0    0 -0.23922260208E+03  0.31622987529E+03  0.26097142532E+04  0.26440932139E+04  0.15294330000E+03 0.  0.
<mgrwt>
<rscale>  0 0.42499464E+03</rscale>
<asrwt>0</asrwt>
<pdfrwt beam="1">  1        2 0.43446592E+00 0.42499464E+03</pdfrwt>
<pdfrwt beam="2">  1       -2 0.37885866E-01 0.42499464E+03</pdfrwt>
<totfact> 0.16677272E+01</totfact>
</mgrwt>
</event>
<event>
 4    1  0.1033139E-008  0.1666475E+03  0.7818608E-02  0.1181390E+00
          2   -1    0    0  501    0  0.00000000000E+00  0.00000000000E+00  0.10467086603E+04  0.10467086603E+04  0.25500000000E-02 0. -1.
         -2   -1    0    0    0  501 -0.00000000000E+00 -0.00000000000E+00 -0.23536990317E+03  0.23536990318E+03  0.25500000000E-02 0.  1.
    8880022    1    1    2    0    0  0.64470569632E+02 -0.14943116770E+02  0.10094980236E+04  0.10231606247E+04  0.15294330000E+03 0.  0.
    8880022    1    1    2    0    0 -0.64470569632E+02  0.14943116770E+02 -0.19815926656E+03  0.25891793879E+03  0.15294330000E+03 0.  1.
<mgrwt>
<rscale>  0 0.16664754E+03</rscale>
<asrwt>0</asrwt>
<pdfrwt beam="1">  1        2 0.16103210E+00 0.16664754E+03</pdfrwt>
<pdfrwt beam="2">  1       -2 0.36210754E-01 0.16664754E+03</pdfrwt>
<totfact> 0.18282946E+02</totfact>
</mgrwt>
</event>
<event>
 4    1  0.1033139E-008  0.5559295E+03  0.7818608E-02  0.1000131E+00
         -2   -1    0    0    0  501 -0.00000000000E+00  0.00000000000E+00  0.50952183521E+03  0.50952183521E+03  0.25500000000E-02 0.  1.
          2   -1    0    0  501    0  0.00000000000E+00 -0.00000000000E+00 -0.10407936779E+04  0.10407936779E+04  0.25500000000E-02 0. -1.
    8880022    1    1    2    0    0 -0.31749275835E+03 -0.42995850624E+03  0.23505245209E+03  0.60357872473E+03  0.15294330000E+03 0.  0.
    8880022    1    1    2    0    0  0.31749275835E+03  0.42995850624E+03 -0.76632429477E+03  0.94673678837E+03  0.15294330000E+03 0.  0.
<mgrwt>
<rscale>  0 0.55592951E+03</rscale>
<asrwt>0</asrwt>
<pdfrwt beam="1">  1        2 0.16012210E+00 0.55592951E+03</pdfrwt>
<pdfrwt beam="2">  1       -2 0.78387975E-01 0.55592951E+03</pdfrwt>
<totfact> 0.35647559E+01</totfact>
</mgrwt>
</event>
<event>
 4    1  0.1033139E-008  0.3981468E+03  0.7818608E-02  0.1044423E+00
          2   -1    0    0  501    0  0.00000000000E+00  0.00000000000E+00  0.12294664664E+04  0.12294664664E+04  0.25500000000E-02 0. -1.
         -2   -1    0    0    0  501 -0.00000000000E+00 -0.00000000000E+00 -0.32375673687E+03  0.32375673688E+03  0.25500000000E-02 0.  1.
    8880022    1    1    2    0    0  0.36653576868E+03 -0.27942073851E+02 -0.14958473852E+03  0.42531926388E+03  0.15294330000E+03 0.  0.
    8880022    1    1    2    0    0 -0.36653576868E+03  0.27942073851E+02  0.10552944680E+04  0.11279039394E+04  0.15294330000E+03 0.  0.
<mgrwt>
<rscale>  0 0.39814681E+03</rscale>
<asrwt>0</asrwt>
<pdfrwt beam="1">  1        2 0.18914868E+00 0.39814681E+03</pdfrwt>
<pdfrwt beam="2">  1       -2 0.49808730E-01 0.39814681E+03</pdfrwt>
<totfact> 0.73578241E+01</totfact>
</mgrwt>
</event>
<event>
 4    1  0.1033139E-008  0.1899348E+03  0.7818608E-02  0.1158520E+00
         -2   -1    0    0    0  501 -0.00000000000E+00  0.00000000000E+00  0.61527097057E+02  0.61527097110E+02  0.25500000000E-02 0.  1.
          2   -1    0    0  501    0  0.00000000000E+00 -0.00000000000E+00 -0.91724818050E+03  0.91724818050E+03  0.25500000000E-02 0. -1.
    8880022    1    1    2    0    0  0.55158546387E+02  0.98189173246E+02 -0.13391332280E+03  0.23239623495E+03  0.15294330000E+03 0.  0.
    8880022    1    1    2    0    0 -0.55158546387E+02 -0.98189173246E+02 -0.72180776064E+03  0.74637904266E+03  0.15294330000E+03 0.  0.
<mgrwt>
<rscale>  0 0.18993481E+03</rscale>
<asrwt>0</asrwt>
<pdfrwt beam="1">  1        2 0.14111509E+00 0.18993481E+03</pdfrwt>
<pdfrwt beam="2">  1       -2 0.94657079E-02 0.18993481E+03</pdfrwt>
<totfact> 0.21342453E+03</totfact>
</mgrwt>
</event>
<event>
 4    1  0.1213372E-008  0.9217205E+03  0.7818608E-02  0.9398830E-01
          2   -1    0    0  501    0  0.00000000000E+00  0.00000000000E+00  0.10250064018E+04  0.10250064018E+04  0.25500000000E-02 0. -1.
         -2   -1    0    0    0  501 -0.00000000000E+00 -0.00000000000E+00 -0.44733096090E+04  0.44733096090E+04  0.25500000000E-02 0.  1.
    8880022    1    1    2    0    0  0.89886415696E+03  0.13498229354E+03 -0.42055828858E+04  0.43054031234E+04  0.15294330000E+03 0.  0.
    8880022    1    1    2    0    0 -0.89886415696E+03 -0.13498229354E+03  0.75727967863E+03  0.11929128874E+04  0.15294330000E+03 0.  0.
<mgrwt>
<rscale>  0 0.92172048E+03</rscale>
<asrwt>0</asrwt>
<pdfrwt beam="1">  1        2 0.15769330E+00 0.92172048E+03</pdfrwt>
<pdfrwt beam="2">  1       -2 0.68820146E+00 0.92172048E+03</pdfrwt>
<totfact> 0.61828252E-03</totfact>
</mgrwt>
</event>
<event>
 4    1  0.1033139E-008  0.7410642E+03  0.7818608E-02  0.9649474E-01
          2   -1    0    0  501    0  0.00000000000E+00  0.00000000000E+00  0.20810917213E+04  0.20810917213E+04  0.25500000000E-02 0. -1.
         -2   -1    0    0    0  501 -0.00000000000E+00 -0.00000000000E+00 -0.10013447044E+04  0.10013447044E+04  0.25500000000E-02 0.  1.
    8880022    1    1    2    0    0  0.21953586930E+03 -0.69107782385E+03  0.18625098196E+04  0.20045246414E+04  0.15294330000E+03 0.  0.
    8880022    1    1    2    0    0 -0.21953586930E+03  0.69107782385E+03 -0.78276280272E+03  0.10779117844E+04  0.15294330000E+03 0.  1.
<mgrwt>
<rscale>  0 0.74106424E+03</rscale>
<asrwt>0</asrwt>
<pdfrwt beam="1">  1        2 0.32016795E+00 0.74106424E+03</pdfrwt>
<pdfrwt beam="2">  1       -2 0.15405303E+00 0.74106424E+03</pdfrwt>
<totfact> 0.17510521E+00</totfact>
</mgrwt>
</event>
<event>
 4    1  0.1033139E-008  0.1319824E+04  0.7818608E-02  0.9013990E-01
         -2   -1    0    0    0  501 -0.00000000000E+00  0.00000000000E+00  0.12538264158E+04  0.12538264158E+04  0.25500000000E-02 0.  1.
          2   -1    0    0  501    0  0.00000000000E+00 -0.00000000000E+00 -0.17136675617E+04  0.17136675617E+04  0.25500000000E-02 0. -1.
    8880022    1    1    2    0    0 -0.61354308118E+03 -0.11584946512E+04  0.41561120908E+03  0.13837157582E+04  0.15294330000E+03 0.  0.
    8880022    1    1    2    0    0  0.61354308118E+03  0.11584946512E+04 -0.87545235498E+03  0.15837782194E+04  0.15294330000E+03 0.  0.
<mgrwt>
<rscale>  0 0.13198245E+04</rscale>
<asrwt>0</asrwt>
<pdfrwt beam="1">  1        2 0.26364117E+00 0.13198245E+04</pdfrwt>
<pdfrwt beam="2">  1       -2 0.19289637E+00 0.13198245E+04</pdfrwt>
<totfact> 0.13680132E+00</totfact>
</mgrwt>
</event>
<event>
 4    1  0.1033139E-008  0.3860928E+03  0.7818608E-02  0.1048705E+00
         -2   -1    0    0    0  501 -0.00000000000E+00  0.00000000000E+00  0.16167083953E+04  0.16167083953E+04  0.25500000000E-02 0.  1.
          2   -1    0    0  501    0  0.00000000000E+00 -0.00000000000E+00 -0.39373903866E+03  0.39373903867E+03  0.25500000000E-02 0. -1.
    8880022    1    1    2    0    0 -0.37303329902E+02  0.35254005771E+03 -0.26820008082E+03  0.47010527233E+03  0.15294330000E+03 0. -1.
    8880022    1    1    2    0    0  0.37303329902E+02 -0.35254005771E+03  0.14911694374E+04  0.15403421616E+04  0.15294330000E+03 0.  0.
<mgrwt>
<rscale>  0 0.38609284E+03</rscale>
<asrwt>0</asrwt>
<pdfrwt beam="1">  1        2 0.60575237E-01 0.38609284E+03</pdfrwt>
<pdfrwt beam="2">  1       -2 0.24872437E+00 0.38609284E+03</pdfrwt>
<totfact> 0.57923621E+00</totfact>
</mgrwt>
</event>
<event>
 4    1  0.1033139E-008  0.1275624E+04  0.7818608E-02  0.9049122E-01
         -2   -1    0    0    0  501 -0.00000000000E+00  0.00000000000E+00  0.18123307066E+04  0.18123307066E+04  0.25500000000E-02 0.  1.
          2   -1    0    0  501    0  0.00000000000E+00 -0.00000000000E+00 -0.13397540476E+04  0.13397540476E+04  0.25500000000E-02 0. -1.
    8880022    1    1    2    0    0  0.58292347885E+03  0.11242885748E+04  0.11414272605E+04  0.17117454325E+04  0.15294330000E+03 0.  0.
    8880022    1    1    2    0    0 -0.58292347885E+03 -0.11242885748E+04 -0.66885060140E+03  0.14403393217E+04  0.15294330000E+03 0.  0.
<mgrwt>
<rscale>  0 0.12756239E+04</rscale>
<asrwt>0</asrwt>
<pdfrwt beam="1">  1        2 0.20611601E+00 0.12756239E+04</pdfrwt>
<pdfrwt beam="2">  1       -2 0.27882011E+00 0.12756239E+04</pdfrwt>
<totfact> 0.64776817E-01</totfact>
</mgrwt>
</event>
<event>
 4    1  0.1033139E-008  0.2544039E+03  0.7818608E-02  0.1110553E+00
         -2   -1    0    0    0  501 -0.00000000000E+00  0.00000000000E+00  0.74898067707E+02  0.74898067750E+02  0.25500000000E-02 0.  1.
          2   -1    0    0  501    0  0.00000000000E+00 -0.00000000000E+00 -0.27552924395E+04  0.27552924395E+04  0.25500000000E-02 0. -1.
    8880022    1    1    2    0    0  0.16609517851E+03 -0.11722673414E+03 -0.16782178094E+03  0.30477125634E+03  0.15294330000E+03 0.  0.
    8880022    1    1    2    0    0 -0.16609517851E+03  0.11722673414E+03 -0.25125725909E+04  0.25254192509E+04  0.15294330000E+03 0.  0.
<mgrwt>
<rscale>  0 0.25440395E+03</rscale>
<asrwt>0</asrwt>
<pdfrwt beam="1">  1        2 0.42389107E+00 0.25440395E+03</pdfrwt>
<pdfrwt beam="2">  1       -2 0.11522782E-01 0.25440395E+03</pdfrwt>
<totfact> 0.15389679E+02</totfact>
</mgrwt>
</event>
<event>
 4    1  0.1033139E-008  0.1220932E+04  0.7818608E-02  0.9094729E-01
         -2   -1    0    0    0  501 -0.00000000000E+00  0.00000000000E+00  0.86164791800E+03  0.86164791800E+03  0.25500000000E-02 0.  1.
          2   -1    0    0  501    0  0.00000000000E+00 -0.00000000000E+00 -0.27781378682E+04  0.27781378682E+04  0.25500000000E-02 0. -1.
    8880022    1    1    2    0    0 -0.17999830513E+03  0.11978666443E+04 -0.20760658425E+04  0.24084694150E+04  0.15294330000E+03 0.  0.
    8880022    1    1    2    0    0  0.17999830513E+03 -0.11978666443E+04  0.15957589236E+03  0.12313163712E+04  0.15294330000E+03 0.  0.
<mgrwt>
<rscale>  0 0.12209322E+04</rscale>
<asrwt>0</asrwt>
<pdfrwt beam="1">  1        2 0.42740582E+00 0.12209322E+04</pdfrwt>
<pdfrwt beam="2">  1       -2 0.13256122E+00 0.12209322E+04</pdfrwt>
<totfact> 0.96582547E-01</totfact>
</mgrwt>
</event>
<event>
 4    1  0.1033139E-008  0.5256895E+03  0.7818608E-02  0.1007283E+00
         -2   -1    0    0    0  501 -0.00000000000E+00  0.00000000000E+00  0.46764270296E+03  0.46764270297E+03  0.25500000000E-02 0.  1.
          2   -1    0    0  501    0  0.00000000000E+00 -0.00000000000E+00 -0.14031487177E+04  0.14031487177E+04  0.25500000000E-02 0. -1.
    8880022    1    1    2    0    0  0.36102838068E+03  0.35016616043E+03 -0.11794201940E+04  0.12912712645E+04  0.15294330000E+03 0.  0.
    8880022    1    1    2    0    0 -0.36102838068E+03 -0.35016616043E+03  0.24391417922E+03  0.57952015617E+03  0.15294330000E+03 0.  1.
<mgrwt>
<rscale>  0 0.52568953E+03</rscale>
<asrwt>0</asrwt>
<pdfrwt beam="1">  1        2 0.21586903E+00 0.52568953E+03</pdfrwt>
<pdfrwt beam="2">  1       -2 0.71945032E-01 0.52568953E+03</pdfrwt>
<totfact> 0.26579250E+01</totfact>
</mgrwt>
</event>
<event>
 4    1  0.1033139E-008  0.9064895E+03  0.7818608E-02  0.9417505E-01
         -2   -1    0    0    0  501 -0.00000000000E+00  0.00000000000E+00  0.12667757846E+04  0.12667757846E+04  0.25500000000E-02 0.  1.
          2   -1    0    0  501    0  0.00000000000E+00 -0.00000000000E+00 -0.26454250068E+04  0.26454250068E+04  0.25500000000E-02 0. -1.
    8880022    1    1    2    0    0 -0.87920594449E+03  0.15914939194E+03 -0.23887632028E+04  0.25549780652E+04  0.15294330000E+03 0.  0.
    8880022    1    1    2    0    0  0.87920594449E+03 -0.15914939194E+03  0.10101139806E+04  0.13572227262E+04  0.15294330000E+03 0.  0.
<mgrwt>
<rscale>  0 0.90648953E+03</rscale>
<asrwt>0</asrwt>
<pdfrwt beam="1">  1        2 0.40698846E+00 0.90648953E+03</pdfrwt>
<pdfrwt beam="2">  1       -2 0.19488858E+00 0.90648953E+03</pdfrwt>
<totfact> 0.42243788E-01</totfact>
</mgrwt>
</event>
<event>
 4    1  0.1033139E-008  0.1449352E+04  0.7818608E-02  0.8918850E-01
         -2   -1    0    0    0  501 -0.00000000000E+00  0.00000000000E+00  0.10510766979E+04  0.10510766979E+04  0.25500000000E-02 0.  1.
          2   -1    0    0  501    0  0.00000000000E+00 -0.00000000000E+00 -0.42976202397E+04  0.42976202397E+04  0.25500000000E-02 0. -1.
    8880022    1    1    2    0    0  0.78517916595E+03  0.12086044192E+04  0.33278160157E+03  0.14870663106E+04  0.15294330000E+03 0.  0.
    8880022    1    1    2    0    0 -0.78517916595E+03 -0.12086044192E+04 -0.35793251434E+04  0.38616306271E+04  0.15294330000E+03 0.  0.
<mgrwt>
<rscale>  0 0.14493525E+04</rscale>
<asrwt>0</asrwt>
<pdfrwt beam="1">  1        2 0.66117233E+00 0.14493525E+04</pdfrwt>
<pdfrwt beam="2">  1       -2 0.16170411E+00 0.14493525E+04</pdfrwt>
<totfact> 0.45386009E-02</totfact>
</mgrwt>
</event>
<event>
 4    1  0.1033139E-008  0.1000046E+04  0.7818608E-02  0.9308495E-01
          2   -1    0    0  501    0  0.00000000000E+00  0.00000000000E+00  0.18639081671E+04  0.18639081671E+04  0.25500000000E-02 0. -1.
         -2   -1    0    0    0  501 -0.00000000000E+00 -0.00000000000E+00 -0.56356902544E+03  0.56356902544E+03  0.25500000000E-02 0.  1.
    8880022    1    1    2    0    0  0.47563856711E+03  0.86629535331E+03  0.38444162255E+03  0.10713947451E+04  0.15294330000E+03 0.  0.
    8880022    1    1    2    0    0 -0.47563856711E+03 -0.86629535331E+03  0.91589751907E+03  0.13560824474E+04  0.15294330000E+03 0.  0.
<mgrwt>
<rscale>  0 0.10000457E+04</rscale>
<asrwt>0</asrwt>
<pdfrwt beam="1">  1        2 0.28675510E+00 0.10000457E+04</pdfrwt>
<pdfrwt beam="2">  1       -2 0.86702927E-01 0.10000457E+04</pdfrwt>
<totfact> 0.91559888E+00</totfact>
</mgrwt>
</event>
<event>
 4    1  0.1033139E-008  0.1088725E+04  0.7818608E-02  0.9216251E-01
          2   -1    0    0  501    0  0.00000000000E+00  0.00000000000E+00  0.15194399508E+04  0.15194399508E+04  0.25500000000E-02 0. -1.
         -2   -1    0    0    0  501 -0.00000000000E+00 -0.00000000000E+00 -0.10568014141E+04  0.10568014141E+04  0.25500000000E-02 0.  1.
    8880022    1    1    2    0    0  0.17480751835E+03 -0.10636604433E+04  0.89043479866E+03  0.14064839106E+04  0.15294330000E+03 0.  0.
    8880022    1    1    2    0    0 -0.17480751835E+03  0.10636604433E+04 -0.42779626195E+03  0.11697574543E+04  0.15294330000E+03 0.  0.
<mgrwt>
<rscale>  0 0.10887253E+04</rscale>
<asrwt>0</asrwt>
<pdfrwt beam="1">  1        2 0.23375999E+00 0.10887253E+04</pdfrwt>
<pdfrwt beam="2">  1       -2 0.16258483E+00 0.10887253E+04</pdfrwt>
<totfact> 0.29320283E+00</totfact>
</mgrwt>
</event>
<event>
 4    1  0.1033139E-008  0.1010064E+04  0.7818608E-02  0.9297575E-01
         -2   -1    0    0    0  501 -0.00000000000E+00  0.00000000000E+00  0.14141312668E+04  0.14141312668E+04  0.25500000000E-02 0.  1.
          2   -1    0    0  501    0  0.00000000000E+00 -0.00000000000E+00 -0.18230179254E+04  0.18230179254E+04  0.25500000000E-02 0. -1.
    8880022    1    1    2    0    0  0.37700346052E+03  0.92450336378E+03  0.10537350907E+04  0.14596531688E+04  0.15294330000E+03 0.  0.
    8880022    1    1    2    0    0 -0.37700346052E+03 -0.92450336378E+03 -0.14626217492E+04  0.17774960234E+04  0.15294330000E+03 0.  0.
<mgrwt>
<rscale>  0 0.10100642E+04</rscale>
<asrwt>0</asrwt>
<pdfrwt beam="1">  1        2 0.28046429E+00 0.10100642E+04</pdfrwt>
<pdfrwt beam="2">  1       -2 0.21755866E+00 0.10100642E+04</pdfrwt>
<totfact> 0.85495955E-01</totfact>
</mgrwt>
</event>
<event>
 4    1  0.1033139E-008  0.9638558E+03  0.7818608E-02  0.9349100E-01
         -2   -1    0    0    0  501 -0.00000000000E+00  0.00000000000E+00  0.14282567393E+04  0.14282567393E+04  0.25500000000E-02 0.  1.
          2   -1    0    0  501    0  0.00000000000E+00 -0.00000000000E+00 -0.69497439672E+03  0.69497439672E+03  0.25500000000E-02 0. -1.
    8880022    1    1    2    0    0 -0.67953193499E+03 -0.66623020556E+03  0.97950101942E+02  0.96882001061E+03  0.15294330000E+03 0. -1.
    8880022    1    1    2    0    0  0.67953193499E+03  0.66623020556E+03  0.63533224065E+03  0.11544111254E+04  0.15294330000E+03 0.  0.
<mgrwt>
<rscale>  0 0.96385579E+03</rscale>
<asrwt>0</asrwt>
<pdfrwt beam="1">  1        2 0.10691914E+00 0.96385579E+03</pdfrwt>
<pdfrwt beam="2">  1       -2 0.21973180E+00 0.96385579E+03</pdfrwt>
<totfact> 0.40973807E+00</totfact>
</mgrwt>
</event>
<event>
 4    1  0.1033139E-008  0.5774754E+03  0.7818608E-02  0.9953272E-01
         -2   -1    0    0    0  501 -0.00000000000E+00  0.00000000000E+00  0.41824806475E+03  0.41824806476E+03  0.25500000000E-02 0.  1.
          2   -1    0    0  501    0  0.00000000000E+00 -0.00000000000E+00 -0.15100785877E+04  0.15100785877E+04  0.25500000000E-02 0. -1.
    8880022    1    1    2    0    0  0.19368775632E+03  0.52208352545E+03 -0.12083176245E+04  0.13392196568E+04  0.15294330000E+03 0.  0.
    8880022    1    1    2    0    0 -0.19368775632E+03 -0.52208352545E+03  0.11648710155E+03  0.58910699566E+03  0.15294330000E+03 0.  0.
<mgrwt>
<rscale>  0 0.57747537E+03</rscale>
<asrwt>0</asrwt>
<pdfrwt beam="1">  1        2 0.23231978E+00 0.57747537E+03</pdfrwt>
<pdfrwt beam="2">  1       -2 0.64345857E-01 0.57747537E+03</pdfrwt>
<totfact> 0.29270069E+01</totfact>
</mgrwt>
</event>
<event>
 4    1  0.1033139E-008  0.1152685E+04  0.7818608E-02  0.9155310E-01
          2   -1    0    0  501    0  0.00000000000E+00  0.00000000000E+00  0.44626692695E+04  0.44626692695E+04  0.25500000000E-02 0. -1.
         -2   -1    0    0    0  501 -0.00000000000E+00 -0.00000000000E+00 -0.49730639777E+03  0.49730639778E+03  0.25500000000E-02 0.  1.
    8880022    1    1    2    0    0 -0.58601702191E+03 -0.98075290122E+03  0.41163556451E+03  0.12239802671E+04  0.15294330000E+03 0.  0.
    8880022    1    1    2    0    0  0.58601702191E+03  0.98075290122E+03  0.35537273072E+04  0.37359954002E+04  0.15294330000E+03 0.  0.
<mgrwt>
<rscale>  0 0.11526855E+04</rscale>
<asrwt>0</asrwt>
<pdfrwt beam="1">  1        2 0.68656450E+00 0.11526855E+04</pdfrwt>
<pdfrwt beam="2">  1       -2 0.76508677E-01 0.11526855E+04</pdfrwt>
<totfact> 0.21276532E-01</totfact>
</mgrwt>
</event>
<event>
 4    1  0.1033139E-008  0.1217156E+04  0.7818608E-02  0.9097971E-01
          2   -1    0    0  501    0  0.00000000000E+00  0.00000000000E+00  0.23744864627E+04  0.23744864627E+04  0.25500000000E-02 0. -1.
         -2   -1    0    0    0  501 -0.00000000000E+00 -0.00000000000E+00 -0.89572795548E+03  0.89572795549E+03  0.25500000000E-02 0.  1.
    8880022    1    1    2    0    0 -0.60481052352E+03 -0.10451220621E+04 -0.16135497880E+03  0.12278041278E+04  0.15294330000E+03 0.  0.
    8880022    1    1    2    0    0  0.60481052352E+03  0.10451220621E+04  0.16401134860E+04  0.20424102904E+04  0.15294330000E+03 0.  0.
<mgrwt>
<rscale>  0 0.12171555E+04</rscale>
<asrwt>0</asrwt>
<pdfrwt beam="1">  1        2 0.36530561E+00 0.12171555E+04</pdfrwt>
<pdfrwt beam="2">  1       -2 0.13780430E+00 0.12171555E+04</pdfrwt>
<totfact> 0.15006970E+00</totfact>
</mgrwt>
</event>
<event>
 4    1  0.1033139E-008  0.5292372E+03  0.7818608E-02  0.1006417E+00
          2   -1    0    0  501    0  0.00000000000E+00  0.00000000000E+00  0.20317848226E+04  0.20317848226E+04  0.25500000000E-02 0. -1.
         -2   -1    0    0    0  501 -0.00000000000E+00 -0.00000000000E+00 -0.26663260614E+03  0.26663260615E+03  0.25500000000E-02 0.  1.
    8880022    1    1    2    0    0 -0.38933236955E+03 -0.32422311923E+03  0.16812366384E+04  0.17625687539E+04  0.15294330000E+03 0.  0.
    8880022    1    1    2    0    0  0.38933236955E+03  0.32422311923E+03  0.83915578032E+02  0.53584867479E+03  0.15294330000E+03 0.  0.
<mgrwt>
<rscale>  0 0.52923717E+03</rscale>
<asrwt>0</asrwt>
<pdfrwt beam="1">  1        2 0.31258229E+00 0.52923717E+03</pdfrwt>
<pdfrwt beam="2">  1       -2 0.41020400E-01 0.52923717E+03</pdfrwt>
<totfact> 0.38528359E+01</totfact>
</mgrwt>
</event>
<event>
 4    1  0.1033139E-008  0.5992929E+03  0.7818608E-02  0.9906874E-01
          2   -1    0    0  501    0  0.00000000000E+00  0.00000000000E+00  0.92485824556E+03  0.92485824557E+03  0.25500000000E-02 0. -1.
         -2   -1    0    0    0  501 -0.00000000000E+00 -0.00000000000E+00 -0.17848927553E+04  0.17848927553E+04  0.25500000000E-02 0.  1.
    8880022    1    1    2    0    0 -0.39826220360E+03 -0.42088900808E+03  0.76844194387E+03  0.97450244435E+03  0.15294330000E+03 0.  0.
    8880022    1    1    2    0    0  0.39826220360E+03  0.42088900808E+03 -0.16284764536E+04  0.17352485565E+04  0.15294330000E+03 0.  1.
<mgrwt>
<rscale>  0 0.59929291E+03</rscale>
<asrwt>0</asrwt>
<pdfrwt beam="1">  1        2 0.14228588E+00 0.59929291E+03</pdfrwt>
<pdfrwt beam="2">  1       -2 0.27459888E+00 0.59929291E+03</pdfrwt>
<totfact> 0.13723547E+00</totfact>
</mgrwt>
</event>
<event>
 4    1  0.1033139E-008  0.4696564E+03  0.7818608E-02  0.1022017E+00
          2   -1    0    0  501    0  0.00000000000E+00  0.00000000000E+00  0.15286728802E+04  0.15286728802E+04  0.25500000000E-02 0. -1.
         -2   -1    0    0    0  501 -0.00000000000E+00 -0.00000000000E+00 -0.58819382111E+03  0.58819382112E+03  0.25500000000E-02 0.  1.
    8880022    1    1    2    0    0 -0.42159880772E+03 -0.13942701928E+03  0.13897277359E+04  0.14669424942E+04  0.15294330000E+03 0.  0.
    8880022    1    1    2    0    0  0.42159880772E+03  0.13942701928E+03 -0.44924867680E+03  0.64992420712E+03  0.15294330000E+03 0.  1.
<mgrwt>
<rscale>  0 0.46965637E+03</rscale>
<asrwt>0</asrwt>
<pdfrwt beam="1">  1        2 0.23518044E+00 0.46965637E+03</pdfrwt>
<pdfrwt beam="2">  1       -2 0.90491356E-01 0.46965637E+03</pdfrwt>
<totfact> 0.13704403E+01</totfact>
</mgrwt>
</event>
<event>
 4    1  0.1033139E-008  0.4327312E+03  0.7818608E-02  0.1033001E+00
         -2   -1    0    0    0  501 -0.00000000000E+00  0.00000000000E+00  0.42065625210E+03  0.42065625211E+03  0.25500000000E-02 0.  1.
          2   -1    0    0  501    0  0.00000000000E+00 -0.00000000000E+00 -0.20898708962E+04  0.20898708962E+04  0.25500000000E-02 0. -1.
    8880022    1    1    2    0    0 -0.93415046146E+02 -0.39387598658E+03 -0.19481860603E+04  0.19956666160E+04  0.15294330000E+03 0.  0.
    8880022    1    1    2    0    0  0.93415046146E+02  0.39387598658E+03  0.27897141621E+03  0.51486053231E+03  0.15294330000E+03 0.  0.
<mgrwt>
<rscale>  0 0.43273123E+03</rscale>
<asrwt>0</asrwt>
<pdfrwt beam="1">  1        2 0.32151860E+00 0.43273123E+03</pdfrwt>
<pdfrwt beam="2">  1       -2 0.64716347E-01 0.43273123E+03</pdfrwt>
<totfact> 0.14476517E+01</totfact>
</mgrwt>
</event>
<event>
 4    1  0.1033139E-008  0.6555837E+03  0.7818608E-02  0.9796358E-01
          2   -1    0    0  501    0  0.00000000000E+00  0.00000000000E+00  0.10658192885E+04  0.10658192885E+04  0.25500000000E-02 0. -1.
         -2   -1    0    0    0  501 -0.00000000000E+00 -0.00000000000E+00 -0.51578533495E+03  0.51578533496E+03  0.25500000000E-02 0.  1.
    8880022    1    1    2    0    0 -0.20071926973E+03  0.60507028478E+03 -0.94369479249E+02  0.66234094422E+03  0.15294330000E+03 0.  0.
    8880022    1    1    2    0    0  0.20071926973E+03 -0.60507028478E+03  0.64440343281E+03  0.91926367926E+03  0.15294330000E+03 0.  0.
<mgrwt>
<rscale>  0 0.65558365E+03</rscale>
<asrwt>0</asrwt>
<pdfrwt beam="1">  1        2 0.16397220E+00 0.65558365E+03</pdfrwt>
<pdfrwt beam="2">  1       -2 0.79351591E-01 0.65558365E+03</pdfrwt>
<totfact> 0.33075590E+01</totfact>
</mgrwt>
</event>
<event>
 4    1  0.1033139E-008  0.9932099E+03  0.7818608E-02  0.9316024E-01
         -2   -1    0    0    0  501 -0.00000000000E+00  0.00000000000E+00  0.71539006496E+03  0.71539006496E+03  0.25500000000E-02 0.  1.
          2   -1    0    0  501    0  0.00000000000E+00 -0.00000000000E+00 -0.31640722898E+04  0.31640722898E+04  0.25500000000E-02 0. -1.
    8880022    1    1    2    0    0 -0.29047553765E+03  0.93738908392E+03  0.23264673489E+03  0.10200933726E+04  0.15294330000E+03 0.  0.
    8880022    1    1    2    0    0  0.29047553765E+03 -0.93738908392E+03 -0.26813289597E+04  0.28593689821E+04  0.15294330000E+03 0.  0.
<mgrwt>
<rscale>  0 0.99320994E+03</rscale>
<asrwt>0</asrwt>
<pdfrwt beam="1">  1        2 0.48678034E+00 0.99320994E+03</pdfrwt>
<pdfrwt beam="2">  1       -2 0.11006001E+00 0.99320994E+03</pdfrwt>
<totfact> 0.91964841E-01</totfact>
</mgrwt>
</event>
<event>
 4    1  0.1033139E-008  0.8390053E+03  0.7818608E-02  0.9505214E-01
          2   -1    0    0  501    0  0.00000000000E+00  0.00000000000E+00  0.19423206902E+04  0.19423206902E+04  0.25500000000E-02 0. -1.
         -2   -1    0    0    0  501 -0.00000000000E+00 -0.00000000000E+00 -0.39769191516E+03  0.39769191517E+03  0.25500000000E-02 0.  1.
    8880022    1    1    2    0    0  0.25459000569E+03  0.78467967049E+03  0.11207706032E+04  0.14000202335E+04  0.15294330000E+03 0.  0.
    8880022    1    1    2    0    0 -0.25459000569E+03 -0.78467967049E+03  0.42385817188E+03  0.93999237187E+03  0.15294330000E+03 0.  0.
<mgrwt>
<rscale>  0 0.83900531E+03</rscale>
<asrwt>0</asrwt>
<pdfrwt beam="1">  1        2 0.29881857E+00 0.83900531E+03</pdfrwt>
<pdfrwt beam="2">  1       -2 0.61183371E-01 0.83900531E+03</pdfrwt>
<totfact> 0.18250771E+01</totfact>
</mgrwt>
</event>
<event>
 4    1  0.1033139E-008  0.1120247E+04  0.7818608E-02  0.9185679E-01
         -2   -1    0    0    0  501 -0.00000000000E+00  0.00000000000E+00  0.58283662918E+03  0.58283662918E+03  0.25500000000E-02 0.  1.
          2   -1    0    0  501    0  0.00000000000E+00 -0.00000000000E+00 -0.30101749672E+04  0.30101749672E+04  0.25500000000E-02 0. -1.
    8880022    1    1    2    0    0 -0.80515537911E+03 -0.76373225345E+03 -0.21722333248E+04  0.24440849842E+04  0.15294330000E+03 0.  0.
    8880022    1    1    2    0    0  0.80515537911E+03  0.76373225345E+03 -0.25510501323E+03  0.11489266122E+04  0.15294330000E+03 0.  0.
<mgrwt>
<rscale>  0 0.11202472E+04</rscale>
<asrwt>0</asrwt>
<pdfrwt beam="1">  1        2 0.46310383E+00 0.11202472E+04</pdfrwt>
<pdfrwt beam="2">  1       -2 0.89667176E-01 0.11202472E+04</pdfrwt>
<totfact> 0.18339531E+00</totfact>
</mgrwt>
</event>
<event>
 4    1  0.1033139E-008  0.4402766E+03  0.7818608E-02  0.1030662E+00
          2   -1    0    0  501    0  0.00000000000E+00  0.00000000000E+00  0.61143789249E+03  0.61143789250E+03  0.25500000000E-02 0. -1.
         -2   -1    0    0    0  501 -0.00000000000E+00 -0.00000000000E+00 -0.78038658515E+03  0.78038658516E+03  0.25500000000E-02 0.  1.
    8880022    1    1    2    0    0  0.40677513941E+03  0.70610034495E+02 -0.62071259930E+03  0.76100431994E+03  0.15294330000E+03 0.  0.
    8880022    1    1    2    0    0 -0.40677513941E+03 -0.70610034495E+02  0.45176390665E+03  0.63082015772E+03  0.15294330000E+03 0.  0.
<mgrwt>
<rscale>  0 0.44027655E+03</rscale>
<asrwt>0</asrwt>
<pdfrwt beam="1">  1        2 0.94067368E-01 0.44027655E+03</pdfrwt>
<pdfrwt beam="2">  1       -2 0.12005948E+00 0.44027655E+03</pdfrwt>
<totfact> 0.26934603E+01</totfact>
</mgrwt>
</event>
<event>
 4    1  0.1033139E-008  0.3536123E+03  0.7818608E-02  0.1061142E+00
         -2   -1    0    0    0  501 -0.00000000000E+00  0.00000000000E+00  0.20861255192E+03  0.20861255193E+03  0.25500000000E-02 0.  1.
          2   -1    0    0  501    0  0.00000000000E+00 -0.00000000000E+00 -0.32796495663E+04  0.32796495663E+04  0.25500000000E-02 0. -1.
    8880022    1    1    2    0    0  0.14260919342E+03  0.28515368932E+03  0.41196804469E+02  0.35600398634E+03  0.15294330000E+03 0.  0.
    8880022    1    1    2    0    0 -0.14260919342E+03 -0.28515368932E+03 -0.31122338189E+04  0.31322581319E+04  0.15294330000E+03 0. -1.
<mgrwt>
<rscale>  0 0.35361230E+03</rscale>
<asrwt>0</asrwt>
<pdfrwt beam="1">  1        2 0.50456143E+00 0.35361230E+03</pdfrwt>
<pdfrwt beam="2">  1       -2 0.32094241E-01 0.35361230E+03</pdfrwt>
<totfact> 0.12367702E+01</totfact>
</mgrwt>
</event>
<event>
 4    1  0.1033139E-008  0.1986867E+04  0.7818608E-02  0.8612785E-01
          2   -1    0    0  501    0  0.00000000000E+00  0.00000000000E+00  0.38296052437E+04  0.38296052437E+04  0.25500000000E-02 0. -1.
         -2   -1    0    0    0  501 -0.00000000000E+00 -0.00000000000E+00 -0.12722773763E+04  0.12722773763E+04  0.25500000000E-02 0.  1.
    8880022    1    1    2    0    0 -0.76545562636E+03  0.18271092892E+04  0.16737299614E+03  0.19939047227E+04  0.15294330000E+03 0.  0.
    8880022    1    1    2    0    0  0.76545562636E+03 -0.18271092892E+04  0.23899548712E+04  0.31079778973E+04  0.15294330000E+03 0.  0.
<mgrwt>
<rscale>  0 0.19868675E+04</rscale>
<asrwt>0</asrwt>
<pdfrwt beam="1">  1        2 0.58917004E+00 0.19868675E+04</pdfrwt>
<pdfrwt beam="2">  1       -2 0.19573498E+00 0.19868675E+04</pdfrwt>
<totfact> 0.59358998E-02</totfact>
</mgrwt>
</event>
<event>
 4    1  0.1033139E-008  0.2338748E+04  0.7818608E-02  0.8462798E-01
         -2   -1    0    0    0  501 -0.00000000000E+00  0.00000000000E+00  0.38822802776E+04  0.38822802776E+04  0.25500000000E-02 0.  1.
          2   -1    0    0  501    0  0.00000000000E+00 -0.00000000000E+00 -0.22260599590E+04  0.22260599590E+04  0.25500000000E-02 0. -1.
    8880022    1    1    2    0    0 -0.23287723132E+04 -0.15221785887E+03 -0.10223446732E+04  0.25524362964E+04  0.15294330000E+03 0.  0.
    8880022    1    1    2    0    0  0.23287723132E+04  0.15221785887E+03  0.26785649918E+04  0.35559039401E+04  0.15294330000E+03 0.  0.
<mgrwt>
<rscale>  0 0.23387480E+04</rscale>
<asrwt>0</asrwt>
<pdfrwt beam="1">  1        2 0.34247077E+00 0.23387480E+04</pdfrwt>
<pdfrwt beam="2">  1       -2 0.59727388E+00 0.23387480E+04</pdfrwt>
<totfact> 0.21534933E-03</totfact>
</mgrwt>
</event>
<event>
 4    1  0.1033139E-008  0.1785985E+03  0.7818608E-02  0.1169166E+00
         -2   -1    0    0    0  501 -0.00000000000E+00  0.00000000000E+00  0.78740686008E+03  0.78740686008E+03  0.25500000000E-02 0.  1.
          2   -1    0    0  501    0  0.00000000000E+00 -0.00000000000E+00 -0.10128016666E+04  0.10128016666E+04  0.25500000000E-02 0. -1.
    8880022    1    1    2    0    0  0.58935618249E+01  0.92038332766E+02 -0.99461704097E+03  0.10105248636E+04  0.15294330000E+03 0.  0.
    8880022    1    1    2    0    0 -0.58935618249E+01 -0.92038332766E+02  0.76922223444E+03  0.78968366309E+03  0.15294330000E+03 0.  1.
<mgrwt>
<rscale>  0 0.17859855E+03</rscale>
<asrwt>0</asrwt>
<pdfrwt beam="1">  1        2 0.15581564E+00 0.17859855E+03</pdfrwt>
<pdfrwt beam="2">  1       -2 0.12113952E+00 0.17859855E+03</pdfrwt>
<totfact> 0.14761650E+01</totfact>
</mgrwt>
</event>
<event>
 4    1  0.1033139E-008  0.1031091E+04  0.7818608E-02  0.9275087E-01
         -2   -1    0    0    0  501 -0.00000000000E+00  0.00000000000E+00  0.86873933940E+03  0.86873933941E+03  0.25500000000E-02 0.  1.
          2   -1    0    0  501    0  0.00000000000E+00 -0.00000000000E+00 -0.38799211786E+04  0.38799211786E+04  0.25500000000E-02 0. -1.
    8880022    1    1    2    0    0  0.57695059035E+02 -0.10180514492E+04 -0.34701040819E+04  0.36200513070E+04  0.15294330000E+03 0.  0.
    8880022    1    1    2    0    0 -0.57695059035E+02  0.10180514492E+04  0.45892224275E+03  0.11286092110E+04  0.15294330000E+03 0.  0.
<mgrwt>
<rscale>  0 0.10310912E+04</rscale>
<asrwt>0</asrwt>
<pdfrwt beam="1">  1        2 0.59691094E+00 0.10310912E+04</pdfrwt>
<pdfrwt beam="2">  1       -2 0.13365221E+00 0.10310912E+04</pdfrwt>
<totfact> 0.17898794E-01</totfact>
</mgrwt>
</event>
<event>
 4    1  0.1033139E-008  0.7187177E+03  0.7818608E-02  0.9685747E-01
         -2   -1    0    0    0  501 -0.00000000000E+00  0.00000000000E+00  0.10876957435E+04  0.10876957435E+04  0.25500000000E-02 0.  1.
          2   -1    0    0  501    0  0.00000000000E+00 -0.00000000000E+00 -0.35928788011E+04  0.35928788011E+04  0.25500000000E-02 0. -1.
    8880022    1    1    2    0    0 -0.70207160143E+03 -0.16091916369E+02 -0.34327292362E+04  0.35071619788E+04  0.15294330000E+03 0.  0.
    8880022    1    1    2    0    0  0.70207160143E+03  0.16091916369E+02  0.92754617858E+03  0.11734125659E+04  0.15294330000E+03 0.  0.
<mgrwt>
<rscale>  0 0.71871770E+03</rscale>
<asrwt>0</asrwt>
<pdfrwt beam="1">  1        2 0.55275058E+00 0.71871770E+03</pdfrwt>
<pdfrwt beam="2">  1       -2 0.16733781E+00 0.71871770E+03</pdfrwt>
<totfact> 0.17214859E-01</totfact>
</mgrwt>
</event>
<event>
 4    1  0.1033139E-008  0.1134862E+04  0.7818608E-02  0.9171864E-01
          2   -1    0    0  501    0  0.00000000000E+00  0.00000000000E+00  0.21754230766E+04  0.21754230766E+04  0.25500000000E-02 0. -1.
         -2   -1    0    0    0  501 -0.00000000000E+00 -0.00000000000E+00 -0.85746166857E+03  0.85746166858E+03  0.25500000000E-02 0.  1.
    8880022    1    1    2    0    0  0.25316911103E+03 -0.10956389916E+04  0.15026974700E+04  0.18830854304E+04  0.15294330000E+03 0.  0.
    8880022    1    1    2    0    0 -0.25316911103E+03  0.10956389916E+04 -0.18473606194E+03  0.11497993148E+04  0.15294330000E+03 0.  1.
<mgrwt>
<rscale>  0 0.11348617E+04</rscale>
<asrwt>0</asrwt>
<pdfrwt beam="1">  1        2 0.33468047E+00 0.11348617E+04</pdfrwt>
<pdfrwt beam="2">  1       -2 0.13191718E+00 0.11348617E+04</pdfrwt>
<totfact> 0.21943051E+00</totfact>
</mgrwt>
</event>
<event>
 4    1  0.1033139E-008  0.1075913E+04  0.7818608E-02  0.9228992E-01
         -2   -1    0    0    0  501 -0.00000000000E+00  0.00000000000E+00  0.75586996030E+03  0.75586996030E+03  0.25500000000E-02 0.  1.
          2   -1    0    0  501    0  0.00000000000E+00 -0.00000000000E+00 -0.21031329709E+04  0.21031329709E+04  0.25500000000E-02 0. -1.
    8880022    1    1    2    0    0  0.85910594965E+03  0.62939227703E+03 -0.14189170523E+04  0.17807062996E+04  0.15294330000E+03 0.  0.
    8880022    1    1    2    0    0 -0.85910594965E+03 -0.62939227703E+03  0.71654041659E+02  0.10782966316E+04  0.15294330000E+03 0.  0.
<mgrwt>
<rscale>  0 0.10759133E+04</rscale>
<asrwt>0</asrwt>
<pdfrwt beam="1">  1        2 0.32355892E+00 0.10759133E+04</pdfrwt>
<pdfrwt beam="2">  1       -2 0.11628769E+00 0.10759133E+04</pdfrwt>
<totfact> 0.33286582E+00</totfact>
</mgrwt>
</event>
<event>
 4    1  0.1033139E-008  0.8330240E+03  0.7818608E-02  0.9513409E-01
         -2   -1    0    0    0  501 -0.00000000000E+00  0.00000000000E+00  0.84767282781E+03  0.84767282782E+03  0.25500000000E-02 0.  1.
          2   -1    0    0  501    0  0.00000000000E+00 -0.00000000000E+00 -0.18357892988E+04  0.18357892988E+04  0.25500000000E-02 0. -1.
    8880022    1    1    2    0    0  0.81281513394E+03 -0.99341957721E+02  0.50467365847E+03  0.97397352176E+03  0.15294330000E+03 0.  0.
    8880022    1    1    2    0    0 -0.81281513394E+03  0.99341957721E+02 -0.14927901294E+04  0.17094886048E+04  0.15294330000E+03 0.  0.
<mgrwt>
<rscale>  0 0.83302396E+03</rscale>
<asrwt>0</asrwt>
<pdfrwt beam="1">  1        2 0.28242912E+00 0.83302396E+03</pdfrwt>
<pdfrwt beam="2">  1       -2 0.13041120E+00 0.83302396E+03</pdfrwt>
<totfact> 0.36199320E+00</totfact>
</mgrwt>
</event>
<event>
 4    1  0.1033139E-008  0.3476392E+03  0.7818608E-02  0.1063588E+00
          2   -1    0    0  501    0  0.00000000000E+00  0.00000000000E+00  0.78980116281E+03  0.78980116281E+03  0.25500000000E-02 0. -1.
         -2   -1    0    0    0  501 -0.00000000000E+00 -0.00000000000E+00 -0.17196375984E+03  0.17196375986E+03  0.25500000000E-02 0.  1.
    8880022    1    1    2    0    0  0.20463155603E+03 -0.23576959886E+03  0.14929860446E+03  0.37834257463E+03  0.15294330000E+03 0.  0.
    8880022    1    1    2    0    0 -0.20463155603E+03  0.23576959886E+03  0.46853879851E+03  0.58342234804E+03  0.15294330000E+03 0.  0.
<mgrwt>
<rscale>  0 0.34763922E+03</rscale>
<asrwt>0</asrwt>
<pdfrwt beam="1">  1        2 0.12150787E+00 0.34763922E+03</pdfrwt>
<pdfrwt beam="2">  1       -2 0.26455963E-01 0.34763922E+03</pdfrwt>
<totfact> 0.46368931E+02</totfact>
</mgrwt>
</event>
<event>
 4    1  0.1033139E-008  0.1233615E+04  0.7818608E-02  0.9083932E-01
          2   -1    0    0  501    0  0.00000000000E+00  0.00000000000E+00  0.11289767506E+04  0.11289767506E+04  0.25500000000E-02 0. -1.
         -2   -1    0    0    0  501 -0.00000000000E+00 -0.00000000000E+00 -0.15973351194E+04  0.15973351194E+04  0.25500000000E-02 0.  1.
    8880022    1    1    2    0    0  0.12239995202E+04 -0.15489631392E+02  0.30443910066E+03  0.12706256621E+04  0.15294330000E+03 0.  0.
    8880022    1    1    2    0    0 -0.12239995202E+04  0.15489631392E+02 -0.77279746944E+03  0.14556862079E+04  0.15294330000E+03 0.  0.
<mgrwt>
<rscale>  0 0.12336152E+04</rscale>
<asrwt>0</asrwt>
<pdfrwt beam="1">  1        2 0.17368873E+00 0.12336152E+04</pdfrwt>
<pdfrwt beam="2">  1       -2 0.24574387E+00 0.12336152E+04</pdfrwt>
<totfact> 0.13837028E+00</totfact>
</mgrwt>
</event>
<event>
 4    1  0.1033139E-008  0.1166109E+04  0.7818608E-02  0.9143050E-01
         -2   -1    0    0    0  501 -0.00000000000E+00  0.00000000000E+00  0.69539993817E+03  0.69539993817E+03  0.25500000000E-02 0.  1.
          2   -1    0    0  501    0  0.00000000000E+00 -0.00000000000E+00 -0.24538244275E+04  0.24538244275E+04  0.25500000000E-02 0. -1.
    8880022    1    1    2    0    0  0.51132484874E+03 -0.10368048690E+04 -0.15888495780E+04  0.19708505960E+04  0.15294330000E+03 0.  0.
    8880022    1    1    2    0    0 -0.51132484874E+03  0.10368048690E+04 -0.16957491135E+03  0.11783737696E+04  0.15294330000E+03 0.  0.
<mgrwt>
<rscale>  0 0.11661085E+04</rscale>
<asrwt>0</asrwt>
<pdfrwt beam="1">  1        2 0.37751144E+00 0.11661085E+04</pdfrwt>
<pdfrwt beam="2">  1       -2 0.10698461E+00 0.11661085E+04</pdfrwt>
<totfact> 0.25644566E+00</totfact>
</mgrwt>
</event>
<event>
 4    1  0.1033139E-008  0.7543103E+03  0.7818608E-02  0.9628612E-01
          2   -1    0    0  501    0  0.00000000000E+00  0.00000000000E+00  0.23506154374E+04  0.23506154374E+04  0.25500000000E-02 0. -1.
         -2   -1    0    0    0  501 -0.00000000000E+00 -0.00000000000E+00 -0.67137982155E+03  0.67137982155E+03  0.25500000000E-02 0.  1.
    8880022    1    1    2    0    0  0.56171107132E+03 -0.47965934289E+03 -0.36867275056E+03  0.83958541131E+03  0.15294330000E+03 0.  0.
    8880022    1    1    2    0    0 -0.56171107132E+03  0.47965934289E+03  0.20479083664E+04  0.21824098477E+04  0.15294330000E+03 0.  0.
<mgrwt>
<rscale>  0 0.75431032E+03</rscale>
<asrwt>0</asrwt>
<pdfrwt beam="1">  1        2 0.36163314E+00 0.75431032E+03</pdfrwt>
<pdfrwt beam="2">  1       -2 0.10328920E+00 0.75431032E+03</pdfrwt>
<totfact> 0.33900196E+00</totfact>
</mgrwt>
</event>
<event>
 4    1  0.1033139E-008  0.7197237E+03  0.7818608E-02  0.9684084E-01
          2   -1    0    0  501    0  0.00000000000E+00  0.00000000000E+00  0.40568678417E+03  0.40568678418E+03  0.25500000000E-02 0. -1.
         -2   -1    0    0    0  501 -0.00000000000E+00 -0.00000000000E+00 -0.26386019740E+04  0.26386019740E+04  0.25500000000E-02 0.  1.
    8880022    1    1    2    0    0  0.70275636112E+03  0.27276010282E+02 -0.22099544382E+04  0.23241989492E+04  0.15294330000E+03 0.  0.
    8880022    1    1    2    0    0 -0.70275636112E+03 -0.27276010282E+02 -0.22960751668E+02  0.72008980895E+03  0.15294330000E+03 0.  0.
<mgrwt>
<rscale>  0 0.71972365E+03</rscale>
<asrwt>0</asrwt>
<pdfrwt beam="1">  1        2 0.62413353E-01 0.71972365E+03</pdfrwt>
<pdfrwt beam="2">  1       -2 0.40593875E+00 0.71972365E+03</pdfrwt>
<totfact> 0.56822754E-01</totfact>
</mgrwt>
</event>
<event>
 4    1  0.1033139E-008  0.3230627E+03  0.7818608E-02  0.1074248E+00
          2   -1    0    0  501    0  0.00000000000E+00  0.00000000000E+00  0.28906739253E+04  0.28906739253E+04  0.25500000000E-02 0. -1.
         -2   -1    0    0    0  501 -0.00000000000E+00 -0.00000000000E+00 -0.90582169057E+02  0.90582169093E+02  0.25500000000E-02 0.  1.
    8880022    1    1    2    0    0 -0.85776261507E+02  0.27133056987E+03  0.24405919869E+03  0.40488812117E+03  0.15294330000E+03 0.  0.
    8880022    1    1    2    0    0  0.85776261507E+02 -0.27133056987E+03  0.25560325576E+04  0.25763679733E+04  0.15294330000E+03 0. -1.
<mgrwt>
<rscale>  0 0.32306268E+03</rscale>
<asrwt>0</asrwt>
<pdfrwt beam="1">  1        2 0.44471907E+00 0.32306268E+03</pdfrwt>
<pdfrwt beam="2">  1       -2 0.13935718E-01 0.32306268E+03</pdfrwt>
<totfact> 0.92214573E+01</totfact>
</mgrwt>
</event>
<event>
 4    1  0.1033139E-008  0.7552724E+03  0.7818608E-02  0.9627115E-01
         -2   -1    0    0    0  501 -0.00000000000E+00  0.00000000000E+00  0.42850028293E+03  0.42850028294E+03  0.25500000000E-02 0.  1.
          2   -1    0    0  501    0  0.00000000000E+00 -0.00000000000E+00 -0.18965616437E+04  0.18965616437E+04  0.25500000000E-02 0. -1.
    8880022    1    1    2    0    0  0.69348988092E+03 -0.25713147498E+03 -0.13687315318E+04  0.15632857926E+04  0.15294330000E+03 0.  0.
    8880022    1    1    2    0    0 -0.69348988092E+03  0.25713147498E+03 -0.99329828963E+02  0.76177613398E+03  0.15294330000E+03 0.  0.
<mgrwt>
<rscale>  0 0.75527244E+03</rscale>
<asrwt>0</asrwt>
<pdfrwt beam="1">  1        2 0.29177871E+00 0.75527244E+03</pdfrwt>
<pdfrwt beam="2">  1       -2 0.65923122E-01 0.75527244E+03</pdfrwt>
<totfact> 0.16660121E+01</totfact>
</mgrwt>
</event>
<event>
 4    1  0.1033139E-008  0.1205730E+04  0.7818608E-02  0.9107856E-01
          2   -1    0    0  501    0  0.00000000000E+00  0.00000000000E+00  0.15829330628E+04  0.15829330628E+04  0.25500000000E-02 0. -1.
         -2   -1    0    0    0  501 -0.00000000000E+00 -0.00000000000E+00 -0.17955529256E+04  0.17955529256E+04  0.25500000000E-02 0.  1.
    8880022    1    1    2    0    0 -0.11840016108E+04 -0.16891959840E+03 -0.12869774567E+04  0.17635465041E+04  0.15294330000E+03 0.  0.
    8880022    1    1    2    0    0  0.11840016108E+04  0.16891959840E+03  0.10743575939E+04  0.16149394842E+04  0.15294330000E+03 0.  0.
<mgrwt>
<rscale>  0 0.12057302E+04</rscale>
<asrwt>0</asrwt>
<pdfrwt beam="1">  1        2 0.24352816E+00 0.12057302E+04</pdfrwt>
<pdfrwt beam="2">  1       -2 0.27623891E+00 0.12057302E+04</pdfrwt>
<totfact> 0.49237109E-01</totfact>
</mgrwt>
</event>
<event>
 4    1  0.1033139E-008  0.8658462E+03  0.7818608E-02  0.9469312E-01
         -2   -1    0    0    0  501 -0.00000000000E+00  0.00000000000E+00  0.84239708432E+03  0.84239708432E+03  0.25500000000E-02 0.  1.
          2   -1    0    0  501    0  0.00000000000E+00 -0.00000000000E+00 -0.40906901101E+04  0.40906901101E+04  0.25500000000E-02 0. -1.
    8880022    1    1    2    0    0  0.54669455618E+03  0.65377593143E+03  0.55765807638E+03  0.10298893579E+04  0.15294330000E+03 0.  0.
    8880022    1    1    2    0    0 -0.54669455618E+03 -0.65377593143E+03 -0.38059511021E+04  0.39031978365E+04  0.15294330000E+03 0.  0.
<mgrwt>
<rscale>  0 0.86584615E+03</rscale>
<asrwt>0</asrwt>
<pdfrwt beam="1">  1        2 0.62933693E+00 0.86584615E+03</pdfrwt>
<pdfrwt beam="2">  1       -2 0.12959955E+00 0.86584615E+03</pdfrwt>
<totfact> 0.13691793E-01</totfact>
</mgrwt>
</event>
<event>
 4    1  0.1033139E-008  0.7862541E+03  0.7818608E-02  0.9580130E-01
         -2   -1    0    0    0  501 -0.00000000000E+00  0.00000000000E+00  0.38484640675E+03  0.38484640675E+03  0.25500000000E-02 0.  1.
          2   -1    0    0  501    0  0.00000000000E+00 -0.00000000000E+00 -0.25105398325E+04  0.25105398325E+04  0.25500000000E-02 0. -1.
    8880022    1    1    2    0    0  0.44265954278E+03 -0.63155082371E+03 -0.19316556828E+04  0.20855429134E+04  0.15294330000E+03 0.  0.
    8880022    1    1    2    0    0 -0.44265954278E+03  0.63155082371E+03 -0.19403774298E+03  0.80984332587E+03  0.15294330000E+03 0.  1.
<mgrwt>
<rscale>  0 0.78625414E+03</rscale>
<asrwt>0</asrwt>
<pdfrwt beam="1">  1        2 0.38623689E+00 0.78625414E+03</pdfrwt>
<pdfrwt beam="2">  1       -2 0.59207141E-01 0.78625414E+03</pdfrwt>
<totfact> 0.95345763E+00</totfact>
</mgrwt>
</event>
<event>
 4    1  0.1033139E-008  0.4802467E+03  0.7818608E-02  0.1019067E+00
          2   -1    0    0  501    0  0.00000000000E+00  0.00000000000E+00  0.30343140714E+04  0.30343140714E+04  0.25500000000E-02 0. -1.
         -2   -1    0    0    0  501 -0.00000000000E+00 -0.00000000000E+00 -0.38205401234E+03  0.38205401235E+03  0.25500000000E-02 0.  1.
    8880022    1    1    2    0    0 -0.33125212963E+03  0.31227753909E+03  0.28549788098E+04  0.28950890992E+04  0.15294330000E+03 0. -1.
    8880022    1    1    2    0    0  0.33125212963E+03 -0.31227753909E+03 -0.20271875076E+03  0.52127898455E+03  0.15294330000E+03 0.  0.
<mgrwt>
<rscale>  0 0.48024669E+03</rscale>
<asrwt>0</asrwt>
<pdfrwt beam="1">  1        2 0.46681756E+00 0.48024669E+03</pdfrwt>
<pdfrwt beam="2">  1       -2 0.58777540E-01 0.48024669E+03</pdfrwt>
<totfact> 0.51104048E+00</totfact>
</mgrwt>
</event>
<event>
 4    1  0.1033139E-008  0.1455757E+04  0.7818608E-02  0.8914419E-01
          2   -1    0    0  501    0  0.00000000000E+00  0.00000000000E+00  0.96781782680E+03  0.96781782680E+03  0.25500000000E-02 0. -1.
         -2   -1    0    0    0  501 -0.00000000000E+00 -0.00000000000E+00 -0.26357778261E+04  0.26357778261E+04  0.25500000000E-02 0.  1.
    8880022    1    1    2    0    0 -0.77822913285E+03 -0.12207361839E+04 -0.15752182045E+04  0.21448872834E+04  0.15294330000E+03 0.  0.
    8880022    1    1    2    0    0  0.77822913285E+03  0.12207361839E+04 -0.92741794859E+02  0.14587083695E+04  0.15294330000E+03 0.  0.
<mgrwt>
<rscale>  0 0.14557572E+04</rscale>
<asrwt>0</asrwt>
<pdfrwt beam="1">  1        2 0.14889505E+00 0.14557572E+04</pdfrwt>
<pdfrwt beam="2">  1       -2 0.40550428E+00 0.14557572E+04</pdfrwt>
<totfact> 0.17242903E-01</totfact>
</mgrwt>
</event>
<event>
 4    1  0.1033139E-008  0.3444132E+03  0.7818608E-02  0.1064932E+00
         -2   -1    0    0    0  501 -0.00000000000E+00  0.00000000000E+00  0.34719917175E+03  0.34719917176E+03  0.25500000000E-02 0.  1.
          2   -1    0    0  501    0  0.00000000000E+00 -0.00000000000E+00 -0.70569838272E+03  0.70569838272E+03  0.25500000000E-02 0. -1.
    8880022    1    1    2    0    0  0.21140233182E+03 -0.22480632733E+03  0.19886748541E+03  0.39770436316E+03  0.15294330000E+03 0.  0.
    8880022    1    1    2    0    0 -0.21140233182E+03  0.22480632733E+03 -0.55736669638E+03  0.65519319132E+03  0.15294330000E+03 0. -1.
<mgrwt>
<rscale>  0 0.34441325E+03</rscale>
<asrwt>0</asrwt>
<pdfrwt beam="1">  1        2 0.10856898E+00 0.34441325E+03</pdfrwt>
<pdfrwt beam="2">  1       -2 0.53415257E-01 0.34441325E+03</pdfrwt>
<totfact> 0.13981843E+02</totfact>
</mgrwt>
</event>
<event>
 4    1  0.1033139E-008  0.2680719E+03  0.7818608E-02  0.1102388E+00
         -2   -1    0    0    0  501 -0.00000000000E+00  0.00000000000E+00  0.16542760603E+03  0.16542760605E+03  0.25500000000E-02 0.  1.
          2   -1    0    0  501    0  0.00000000000E+00 -0.00000000000E+00 -0.29445999170E+04  0.29445999170E+04  0.25500000000E-02 0. -1.
    8880022    1    1    2    0    0 -0.15495528039E+02 -0.21961509547E+03  0.46150620424E+02  0.27201550384E+03  0.15294330000E+03 0.  0.
    8880022    1    1    2    0    0  0.15495528039E+02  0.21961509547E+03 -0.28253229314E+04  0.28380120193E+04  0.15294330000E+03 0.  0.
<mgrwt>
<rscale>  0 0.26807192E+03</rscale>
<asrwt>0</asrwt>
<pdfrwt beam="1">  1        2 0.45301533E+00 0.26807192E+03</pdfrwt>
<pdfrwt beam="2">  1       -2 0.25450403E-01 0.26807192E+03</pdfrwt>
<totfact> 0.31271914E+01</totfact>
</mgrwt>
</event>
<event>
 4    1  0.1033139E-008  0.7679343E+03  0.7818608E-02  0.9607627E-01
          2   -1    0    0  501    0  0.00000000000E+00  0.00000000000E+00  0.22745922610E+04  0.22745922610E+04  0.25500000000E-02 0. -1.
         -2   -1    0    0    0  501 -0.00000000000E+00 -0.00000000000E+00 -0.37901391511E+03  0.37901391512E+03  0.25500000000E-02 0.  1.
    8880022    1    1    2    0    0  0.75253813720E+03  0.42227098264E+01  0.16935746414E+04  0.18595478478E+04  0.15294330000E+03 0.  0.
    8880022    1    1    2    0    0 -0.75253813720E+03 -0.42227098264E+01  0.20200370454E+03  0.79405832839E+03  0.15294330000E+03 0.  0.
<mgrwt>
<rscale>  0 0.76793433E+03</rscale>
<asrwt>0</asrwt>
<pdfrwt beam="1">  1        2 0.34993727E+00 0.76793433E+03</pdfrwt>
<pdfrwt beam="2">  1       -2 0.58309833E-01 0.76793433E+03</pdfrwt>
<totfact> 0.13393455E+01</totfact>
</mgrwt>
</event>
<event>
 4    1  0.1033139E-008  0.3593989E+03  0.7818608E-02  0.1058822E+00
         -2   -1    0    0    0  501 -0.00000000000E+00  0.00000000000E+00  0.15157983867E+03  0.15157983869E+03  0.25500000000E-02 0.  1.
          2   -1    0    0  501    0  0.00000000000E+00 -0.00000000000E+00 -0.12449493909E+04  0.12449493909E+04  0.25500000000E-02 0. -1.
    8880022    1    1    2    0    0 -0.86293400583E+02 -0.31357511349E+03 -0.93890860832E+03  0.10053441851E+04  0.15294330000E+03 0.  0.
    8880022    1    1    2    0    0  0.86293400583E+02  0.31357511349E+03 -0.15446094387E+03  0.39118504442E+03  0.15294330000E+03 0.  0.
<mgrwt>
<rscale>  0 0.35939888E+03</rscale>
<asrwt>0</asrwt>
<pdfrwt beam="1">  1        2 0.19153067E+00 0.35939888E+03</pdfrwt>
<pdfrwt beam="2">  1       -2 0.23319976E-01 0.35939888E+03</pdfrwt>
<totfact> 0.30170071E+02</totfact>
</mgrwt>
</event>
<event>
 4    1  0.1033139E-008  0.9229682E+03  0.7818608E-02  0.9397317E-01
         -2   -1    0    0    0  501 -0.00000000000E+00  0.00000000000E+00  0.69235584932E+03  0.69235584933E+03  0.25500000000E-02 0.  1.
          2   -1    0    0  501    0  0.00000000000E+00 -0.00000000000E+00 -0.15181784446E+04  0.15181784446E+04  0.25500000000E-02 0. -1.
    8880022    1    1    2    0    0 -0.45826301721E+03  0.78643090881E+03 -0.89412700498E+03  0.12850421477E+04  0.15294330000E+03 0.  0.
    8880022    1    1    2    0    0  0.45826301721E+03 -0.78643090881E+03  0.68304409737E+02  0.92549214620E+03  0.15294330000E+03 0.  0.
<mgrwt>
<rscale>  0 0.92296816E+03</rscale>
<asrwt>0</asrwt>
<pdfrwt beam="1">  1        2 0.23356591E+00 0.92296816E+03</pdfrwt>
<pdfrwt beam="2">  1       -2 0.10651628E+00 0.92296816E+03</pdfrwt>
<totfact> 0.88335828E+00</totfact>
</mgrwt>
</event>
<event>
 4    1  0.1033139E-008  0.1548697E+04  0.7818608E-02  0.8852700E-01
         -2   -1    0    0    0  501 -0.00000000000E+00  0.00000000000E+00  0.32366976351E+04  0.32366976351E+04  0.25500000000E-02 0.  1.
          2   -1    0    0  501    0  0.00000000000E+00 -0.00000000000E+00 -0.10899681053E+04  0.10899681053E+04  0.25500000000E-02 0. -1.
    8880022    1    1    2    0    0 -0.64783576665E+03  0.13983492725E+04 -0.15067563963E+03  0.15560098553E+04  0.15294330000E+03 0.  0.
    8880022    1    1    2    0    0  0.64783576665E+03 -0.13983492725E+04  0.22974051694E+04  0.27706558851E+04  0.15294330000E+03 0.  0.
<mgrwt>
<rscale>  0 0.15486974E+04</rscale>
<asrwt>0</asrwt>
<pdfrwt beam="1">  1        2 0.16768740E+00 0.15486974E+04</pdfrwt>
<pdfrwt beam="2">  1       -2 0.49795348E+00 0.15486974E+04</pdfrwt>
<totfact> 0.35065285E-02</totfact>
</mgrwt>
</event>
<event>
 4    1  0.1033139E-008  0.6570347E+03  0.7818608E-02  0.9793668E-01
         -2   -1    0    0    0  501 -0.00000000000E+00  0.00000000000E+00  0.50892687121E+04  0.50892687121E+04  0.25500000000E-02 0.  1.
          2   -1    0    0  501    0  0.00000000000E+00 -0.00000000000E+00 -0.39473086690E+03  0.39473086690E+03  0.25500000000E-02 0. -1.
    8880022    1    1    2    0    0 -0.46031442881E+03  0.44318565788E+03  0.47768541530E+04  0.48218285072E+04  0.15294330000E+03 0.  0.
    8880022    1    1    2    0    0  0.46031442881E+03 -0.44318565788E+03 -0.82316307845E+02  0.66217107176E+03  0.15294330000E+03 0.  0.
<mgrwt>
<rscale>  0 0.65703467E+03</rscale>
<asrwt>0</asrwt>
<pdfrwt beam="1">  1        2 0.60727827E-01 0.65703467E+03</pdfrwt>
<pdfrwt beam="2">  1       -2 0.78296441E+00 0.65703467E+03</pdfrwt>
<totfact> 0.92323404E-03</totfact>
</mgrwt>
</event>
<event>
 4    1  0.1033139E-008  0.8902818E+03  0.7818608E-02  0.9437812E-01
          2   -1    0    0  501    0  0.00000000000E+00  0.00000000000E+00  0.21546120278E+04  0.21546120278E+04  0.25500000000E-02 0. -1.
         -2   -1    0    0    0  501 -0.00000000000E+00 -0.00000000000E+00 -0.56210668798E+03  0.56210668799E+03  0.25500000000E-02 0.  1.
    8880022    1    1    2    0    0  0.53176931731E+03 -0.69744630931E+03 -0.22548004227E+01  0.89028461648E+03  0.15294330000E+03 0.  0.
    8880022    1    1    2    0    0 -0.53176931731E+03  0.69744630931E+03  0.15947601403E+04  0.18264340993E+04  0.15294330000E+03 0.  0.
<mgrwt>
<rscale>  0 0.89028176E+03</rscale>
<asrwt>0</asrwt>
<pdfrwt beam="1">  1        2 0.33147877E+00 0.89028176E+03</pdfrwt>
<pdfrwt beam="2">  1       -2 0.86477954E-01 0.89028176E+03</pdfrwt>
<totfact> 0.64583813E+00</totfact>
</mgrwt>
</event>
<event>
 4    1  0.1033139E-008  0.4731203E+03  0.7818608E-02  0.1021043E+00
         -2   -1    0    0    0  501 -0.00000000000E+00  0.00000000000E+00  0.46978555599E+03  0.46978555599E+03  0.25500000000E-02 0.  1.
          2   -1    0    0  501    0  0.00000000000E+00 -0.00000000000E+00 -0.66743375557E+03  0.66743375557E+03  0.25500000000E-02 0. -1.
    8880022    1    1    2    0    0 -0.36575484686E+03 -0.25821409863E+03 -0.40296567989E+03  0.62146932420E+03  0.15294330000E+03 0.  0.
    8880022    1    1    2    0    0  0.36575484686E+03  0.25821409863E+03  0.20531748031E+03  0.51574998737E+03  0.15294330000E+03 0.  0.
<mgrwt>
<rscale>  0 0.47312026E+03</rscale>
<asrwt>0</asrwt>
<pdfrwt beam="1">  1        2 0.10268212E+00 0.47312026E+03</pdfrwt>
<pdfrwt beam="2">  1       -2 0.72274701E-01 0.47312026E+03</pdfrwt>
<totfact> 0.78046638E+01</totfact>
</mgrwt>
</event>
<event>
 4    1  0.1033139E-008  0.8939476E+03  0.7818608E-02  0.9433179E-01
         -2   -1    0    0    0  501 -0.00000000000E+00  0.00000000000E+00  0.13038640829E+04  0.13038640829E+04  0.25500000000E-02 0.  1.
          2   -1    0    0  501    0  0.00000000000E+00 -0.00000000000E+00 -0.15233154735E+04  0.15233154735E+04  0.25500000000E-02 0. -1.
    8880022    1    1    2    0    0  0.78097504167E+03  0.40722074080E+03 -0.12025429253E+04  0.14984164600E+04  0.15294330000E+03 0.  0.
    8880022    1    1    2    0    0 -0.78097504167E+03 -0.40722074080E+03  0.98309153479E+03  0.13287630964E+04  0.15294330000E+03 0.  0.
<mgrwt>
<rscale>  0 0.89394765E+03</rscale>
<asrwt>0</asrwt>
<pdfrwt beam="1">  1        2 0.23435622E+00 0.89394765E+03</pdfrwt>
<pdfrwt beam="2">  1       -2 0.20059448E+00 0.89394765E+03</pdfrwt>
<totfact> 0.16374886E+00</totfact>
</mgrwt>
</event>
<event>
 4    1  0.1033139E-008  0.7464781E+03  0.7818608E-02  0.9640892E-01
         -2   -1    0    0    0  501 -0.00000000000E+00  0.00000000000E+00  0.44912876120E+03  0.44912876121E+03  0.25500000000E-02 0.  1.
          2   -1    0    0  501    0  0.00000000000E+00 -0.00000000000E+00 -0.22763927381E+04  0.22763927381E+04  0.25500000000E-02 0. -1.
    8880022    1    1    2    0    0  0.41970319480E+03 -0.59806948433E+03 -0.18328395683E+04  0.19790225911E+04  0.15294330000E+03 0.  0.
    8880022    1    1    2    0    0 -0.41970319480E+03  0.59806948433E+03  0.55755913856E+01  0.74649890827E+03  0.15294330000E+03 0.  0.
<mgrwt>
<rscale>  0 0.74647809E+03</rscale>
<asrwt>0</asrwt>
<pdfrwt beam="1">  1        2 0.35021426E+00 0.74647809E+03</pdfrwt>
<pdfrwt beam="2">  1       -2 0.69096734E-01 0.74647809E+03</pdfrwt>
<totfact> 0.93272553E+00</totfact>
</mgrwt>
</event>
<event>
 4    1  0.1033139E-008  0.1333097E+04  0.7818608E-02  0.9003723E-01
         -2   -1    0    0    0  501 -0.00000000000E+00  0.00000000000E+00  0.20454820050E+04  0.20454820050E+04  0.25500000000E-02 0.  1.
          2   -1    0    0  501    0  0.00000000000E+00 -0.00000000000E+00 -0.22224236307E+04  0.22224236307E+04  0.25500000000E-02 0. -1.
    8880022    1    1    2    0    0  0.10647898442E+04  0.78738651098E+03 -0.17538681202E+04  0.22029979497E+04  0.15294330000E+03 0.  0.
    8880022    1    1    2    0    0 -0.10647898442E+04 -0.78738651098E+03  0.15769264945E+04  0.20649076861E+04  0.15294330000E+03 0.  0.
<mgrwt>
<rscale>  0 0.13330966E+04</rscale>
<asrwt>0</asrwt>
<pdfrwt beam="1">  1        2 0.34191133E+00 0.13330966E+04</pdfrwt>
<pdfrwt beam="2">  1       -2 0.31468954E+00 0.13330966E+04</pdfrwt>
<totfact> 0.12431946E-01</totfact>
</mgrwt>
</event>
<event>
 4    1  0.1033139E-008  0.8164156E+03  0.7818608E-02  0.9536555E-01
         -2   -1    0    0    0  501 -0.00000000000E+00  0.00000000000E+00  0.20579235432E+04  0.20579235432E+04  0.25500000000E-02 0.  1.
          2   -1    0    0  501    0  0.00000000000E+00 -0.00000000000E+00 -0.44510985214E+03  0.44510985215E+03  0.25500000000E-02 0. -1.
    8880022    1    1    2    0    0  0.59010870325E+03  0.54306037647E+03  0.14595305501E+04  0.16723528138E+04  0.15294330000E+03 0.  0.
    8880022    1    1    2    0    0 -0.59010870325E+03 -0.54306037647E+03  0.15328314089E+03  0.83068058148E+03  0.15294330000E+03 0.  0.
<mgrwt>
<rscale>  0 0.81641565E+03</rscale>
<asrwt>0</asrwt>
<pdfrwt beam="1">  1        2 0.68478439E-01 0.81641565E+03</pdfrwt>
<pdfrwt beam="2">  1       -2 0.31660362E+00 0.81641565E+03</pdfrwt>
<totfact> 0.18313121E+00</totfact>
</mgrwt>
</event>
<event>
 4    1  0.1033139E-008  0.4404524E+03  0.7818608E-02  0.1030608E+00
         -2   -1    0    0    0  501 -0.00000000000E+00  0.00000000000E+00  0.24103480008E+03  0.24103480009E+03  0.25500000000E-02 0.  1.
          2   -1    0    0  501    0  0.00000000000E+00 -0.00000000000E+00 -0.14874257508E+04  0.14874257508E+04  0.25500000000E-02 0. -1.
    8880022    1    1    2    0    0 -0.40109574760E+03 -0.98635001497E+02 -0.37751509866E+02  0.44206729327E+03  0.15294330000E+03 0.  0.
    8880022    1    1    2    0    0  0.40109574760E+03  0.98635001497E+02 -0.12086394409E+04  0.12863932576E+04  0.15294330000E+03 0.  0.
<mgrwt>
<rscale>  0 0.44045240E+03</rscale>
<asrwt>0</asrwt>
<pdfrwt beam="1">  1        2 0.22883472E+00 0.44045240E+03</pdfrwt>
<pdfrwt beam="2">  1       -2 0.37082278E-01 0.44045240E+03</pdfrwt>
<totfact> 0.93470372E+01</totfact>
</mgrwt>
</event>
<event>
 4    1  0.1033139E-008  0.8357108E+03  0.7818608E-02  0.9509719E-01
         -2   -1    0    0    0  501 -0.00000000000E+00  0.00000000000E+00  0.22492155671E+03  0.22492155672E+03  0.25500000000E-02 0.  1.
          2   -1    0    0  501    0  0.00000000000E+00 -0.00000000000E+00 -0.45921018757E+04  0.45921018757E+04  0.25500000000E-02 0. -1.
    8880022    1    1    2    0    0 -0.74896244776E+03 -0.33775155954E+03 -0.35541348019E+04  0.36510665165E+04  0.15294330000E+03 0.  0.
    8880022    1    1    2    0    0  0.74896244776E+03  0.33775155954E+03 -0.81304551710E+03  0.11659569160E+04  0.15294330000E+03 0.  0.
<mgrwt>
<rscale>  0 0.83571079E+03</rscale>
<asrwt>0</asrwt>
<pdfrwt beam="1">  1        2 0.70647714E+00 0.83571079E+03</pdfrwt>
<pdfrwt beam="2">  1       -2 0.34603320E-01 0.83571079E+03</pdfrwt>
<totfact> 0.87299543E-01</totfact>
</mgrwt>
</event>
<event>
 4    1  0.1033139E-008  0.1018358E+04  0.7818608E-02  0.9288636E-01
          2   -1    0    0  501    0  0.00000000000E+00  0.00000000000E+00  0.21027616806E+04  0.21027616806E+04  0.25500000000E-02 0. -1.
         -2   -1    0    0    0  501 -0.00000000000E+00 -0.00000000000E+00 -0.80883343870E+03  0.80883343870E+03  0.25500000000E-02 0.  1.
    8880022    1    1    2    0    0 -0.47674068060E+03 -0.88678021357E+03 -0.26247288200E+03  0.10516389545E+04  0.15294330000E+03 0.  0.
    8880022    1    1    2    0    0  0.47674068060E+03  0.88678021357E+03  0.15564011239E+04  0.18599561649E+04  0.15294330000E+03 0.  0.
<mgrwt>
<rscale>  0 0.10183577E+04</rscale>
<asrwt>0</asrwt>
<pdfrwt beam="1">  1        2 0.32350179E+00 0.10183577E+04</pdfrwt>
<pdfrwt beam="2">  1       -2 0.12443591E+00 0.10183577E+04</pdfrwt>
<totfact> 0.28331040E+00</totfact>
</mgrwt>
</event>
<event>
 4    1  0.1033139E-008  0.8454203E+03  0.7818608E-02  0.9496504E-01
          2   -1    0    0  501    0  0.00000000000E+00  0.00000000000E+00  0.10935930629E+04  0.10935930629E+04  0.25500000000E-02 0. -1.
         -2   -1    0    0    0  501 -0.00000000000E+00 -0.00000000000E+00 -0.72901876507E+03  0.72901876508E+03  0.25500000000E-02 0.  1.
    8880022    1    1    2    0    0  0.28340762628E+03  0.78168023078E+03 -0.11089106250E+03  0.85266191810E+03  0.15294330000E+03 0.  0.
    8880022    1    1    2    0    0 -0.28340762628E+03 -0.78168023078E+03  0.47546536037E+03  0.96994990992E+03  0.15294330000E+03 0.  0.
<mgrwt>
<rscale>  0 0.84542032E+03</rscale>
<asrwt>0</asrwt>
<pdfrwt beam="1">  1        2 0.16824509E+00 0.84542032E+03</pdfrwt>
<pdfrwt beam="2">  1       -2 0.11215673E+00 0.84542032E+03</pdfrwt>
<totfact> 0.13883848E+01</totfact>
</mgrwt>
</event>
<event>
 4    1  0.1033139E-008  0.1672192E+03  0.7818608E-02  0.1180779E+00
          2   -1    0    0  501    0  0.00000000000E+00  0.00000000000E+00  0.23908881442E+04  0.23908881442E+04  0.25500000000E-02 0. -1.
         -2   -1    0    0    0  501 -0.00000000000E+00 -0.00000000000E+00 -0.55086869191E+02  0.55086869250E+02  0.25500000000E-02 0.  1.
    8880022    1    1    2    0    0 -0.22464037269E+02 -0.63764891986E+02  0.82474043262E+02  0.18645164319E+03  0.15294330000E+03 0.  1.
    8880022    1    1    2    0    0  0.22464037269E+02  0.63764891986E+02  0.22533272317E+04  0.22595233702E+04  0.15294330000E+03 0.  0.
<mgrwt>
<rscale>  0 0.16721916E+03</rscale>
<asrwt>0</asrwt>
<pdfrwt beam="1">  1        2 0.36782891E+00 0.16721916E+03</pdfrwt>
<pdfrwt beam="2">  1       -2 0.84749037E-02 0.16721916E+03</pdfrwt>
<totfact> 0.40913292E+02</totfact>
</mgrwt>
</event>
<event>
 4    1  0.1033139E-008  0.5902264E+03  0.7818608E-02  0.9925893E-01
          2   -1    0    0  501    0  0.00000000000E+00  0.00000000000E+00  0.15052053789E+04  0.15052053789E+04  0.25500000000E-02 0. -1.
         -2   -1    0    0    0  501 -0.00000000000E+00 -0.00000000000E+00 -0.73483472447E+03  0.73483472447E+03  0.25500000000E-02 0.  1.
    8880022    1    1    2    0    0  0.14594515999E+03 -0.55106765523E+03  0.13121956804E+04  0.14388275460E+04  0.15294330000E+03 0.  0.
    8880022    1    1    2    0    0 -0.14594515999E+03  0.55106765523E+03 -0.54182502597E+03  0.80121255741E+03  0.15294330000E+03 0.  0.
<mgrwt>
<rscale>  0 0.59022640E+03</rscale>
<asrwt>0</asrwt>
<pdfrwt beam="1">  1        2 0.23157006E+00 0.59022640E+03</pdfrwt>
<pdfrwt beam="2">  1       -2 0.11305150E+00 0.59022640E+03</pdfrwt>
<totfact> 0.81490589E+00</totfact>
</mgrwt>
</event>
<event>
 4    1  0.1033139E-008  0.6438035E+03  0.7818608E-02  0.9818476E-01
          2   -1    0    0  501    0  0.00000000000E+00  0.00000000000E+00  0.22971765323E+04  0.22971765323E+04  0.25500000000E-02 0. -1.
         -2   -1    0    0    0  501 -0.00000000000E+00 -0.00000000000E+00 -0.90120323348E+03  0.90120323349E+03  0.25500000000E-02 0.  1.
    8880022    1    1    2    0    0 -0.33814340517E+03  0.52607065772E+03 -0.73218295430E+03  0.97497427194E+03  0.15294330000E+03 0.  1.
    8880022    1    1    2    0    0  0.33814340517E+03 -0.52607065772E+03  0.21281562531E+04  0.22234054938E+04  0.15294330000E+03 0.  0.
<mgrwt>
<rscale>  0 0.64380350E+03</rscale>
<asrwt>0</asrwt>
<pdfrwt beam="1">  1        2 0.35341177E+00 0.64380350E+03</pdfrwt>
<pdfrwt beam="2">  1       -2 0.13864665E+00 0.64380350E+03</pdfrwt>
<totfact> 0.17922217E+00</totfact>
</mgrwt>
</event>
<event>
 4    1  0.1033139E-008  0.1833339E+03  0.7818608E-02  0.1164615E+00
          2   -1    0    0  501    0  0.00000000000E+00  0.00000000000E+00  0.32894078298E+04  0.32894078298E+04  0.25500000000E-02 0. -1.
         -2   -1    0    0    0  501 -0.00000000000E+00 -0.00000000000E+00 -0.17030019969E+03  0.17030019971E+03  0.25500000000E-02 0.  1.
    8880022    1    1    2    0    0  0.21976958798E+02  0.98674574819E+02  0.32367093441E+04  0.32418973903E+04  0.15294330000E+03 0.  0.
    8880022    1    1    2    0    0 -0.21976958798E+02 -0.98674574819E+02 -0.11760171391E+03  0.21781063923E+03  0.15294330000E+03 0.  1.
<mgrwt>
<rscale>  0 0.18333388E+03</rscale>
<asrwt>0</asrwt>
<pdfrwt beam="1">  1        2 0.50606277E+00 0.18333388E+03</pdfrwt>
<pdfrwt beam="2">  1       -2 0.26200029E-01 0.18333388E+03</pdfrwt>
<totfact> 0.19356750E+01</totfact>
</mgrwt>
</event>
<event>
 4    1  0.1033139E-008  0.1130833E+04  0.7818608E-02  0.9175650E-01
          2   -1    0    0  501    0  0.00000000000E+00  0.00000000000E+00  0.15367688961E+04  0.15367688961E+04  0.25500000000E-02 0. -1.
         -2   -1    0    0    0  501 -0.00000000000E+00 -0.00000000000E+00 -0.12218248046E+04  0.12218248046E+04  0.25500000000E-02 0.  1.
    8880022    1    1    2    0    0 -0.64895121094E+03 -0.91337543029E+03  0.93643768700E+03  0.14682300724E+04  0.15294330000E+03 0.  0.
    8880022    1    1    2    0    0  0.64895121094E+03  0.91337543029E+03 -0.62149359549E+03  0.12903636282E+04  0.15294330000E+03 0.  0.
<mgrwt>
<rscale>  0 0.11308333E+04</rscale>
<asrwt>0</asrwt>
<pdfrwt beam="1">  1        2 0.23642598E+00 0.11308333E+04</pdfrwt>
<pdfrwt beam="2">  1       -2 0.18797305E+00 0.11308333E+04</pdfrwt>
<totfact> 0.18923913E+00</totfact>
</mgrwt>
</event>
<event>
 4    1  0.1033139E-008  0.9488125E+03  0.7818608E-02  0.9366540E-01
         -2   -1    0    0    0  501 -0.00000000000E+00  0.00000000000E+00  0.14712708886E+04  0.14712708886E+04  0.25500000000E-02 0.  1.
          2   -1    0    0  501    0  0.00000000000E+00 -0.00000000000E+00 -0.79578576875E+03  0.79578576876E+03  0.25500000000E-02 0. -1.
    8880022    1    1    2    0    0 -0.45560208280E+03 -0.81809548094E+03  0.88265766169E+03  0.12958895302E+04  0.15294330000E+03 0.  0.
    8880022    1    1    2    0    0  0.45560208280E+03  0.81809548094E+03 -0.20717254182E+03  0.97116712716E+03  0.15294330000E+03 0.  0.
<mgrwt>
<rscale>  0 0.94881248E+03</rscale>
<asrwt>0</asrwt>
<pdfrwt beam="1">  1        2 0.12242858E+00 0.94881248E+03</pdfrwt>
<pdfrwt beam="2">  1       -2 0.22634937E+00 0.94881248E+03</pdfrwt>
<totfact> 0.31283690E+00</totfact>
</mgrwt>
</event>
<event>
 4    1  0.1033139E-008  0.1367762E+04  0.7818608E-02  0.8977490E-01
         -2   -1    0    0    0  501 -0.00000000000E+00  0.00000000000E+00  0.13239491213E+04  0.13239491213E+04  0.25500000000E-02 0.  1.
          2   -1    0    0  501    0  0.00000000000E+00 -0.00000000000E+00 -0.21787205122E+04  0.21787205122E+04  0.25500000000E-02 0. -1.
    8880022    1    1    2    0    0 -0.67048074500E+03 -0.11823020378E+04 -0.14656221185E+04  0.20047000736E+04  0.15294330000E+03 0.  0.
    8880022    1    1    2    0    0  0.67048074500E+03  0.11823020378E+04  0.61085072756E+03  0.14979695599E+04  0.15294330000E+03 0.  0.
<mgrwt>
<rscale>  0 0.13677625E+04</rscale>
<asrwt>0</asrwt>
<pdfrwt beam="1">  1        2 0.33518777E+00 0.13677625E+04</pdfrwt>
<pdfrwt beam="2">  1       -2 0.20368448E+00 0.13677625E+04</pdfrwt>
<totfact> 0.63625988E-01</totfact>
</mgrwt>
</event>
<event>
 4    1  0.1551107E-008  0.8794151E+03  0.7818608E-02  0.9451686E-01
         -2   -1    0    0    0  501 -0.00000000000E+00  0.00000000000E+00  0.19458196400E+04  0.19458196400E+04  0.25500000000E-02 0.  1.
          2   -1    0    0  501    0  0.00000000000E+00 -0.00000000000E+00 -0.18973935428E+04  0.18973935428E+04  0.25500000000E-02 0. -1.
    8880022    1    1    2    0    0  0.37621009153E+03  0.78002896846E+03  0.17327440569E+04  0.19431347983E+04  0.15294330000E+03 0.  0.
    8880022    1    1    2    0    0 -0.37621009153E+03 -0.78002896846E+03 -0.16843179597E+04  0.19000783845E+04  0.15294330000E+03 0.  0.
<mgrwt>
<rscale>  0 0.87941508E+03</rscale>
<asrwt>0</asrwt>
<pdfrwt beam="1">  1        2 0.29190670E+00 0.87941508E+03</pdfrwt>
<pdfrwt beam="2">  1       -2 0.29935687E+00 0.87941508E+03</pdfrwt>
<totfact> 0.25238521E-01</totfact>
</mgrwt>
</event>
<event>
 4    1  0.1033139E-008  0.5339900E+03  0.7818608E-02  0.1005269E+00
          2   -1    0    0  501    0  0.00000000000E+00  0.00000000000E+00  0.10287478566E+04  0.10287478566E+04  0.25500000000E-02 0. -1.
         -2   -1    0    0    0  501 -0.00000000000E+00 -0.00000000000E+00 -0.47314190930E+03  0.47314190930E+03  0.25500000000E-02 0.  1.
    8880022    1    1    2    0    0 -0.13581760113E+03 -0.49326184078E+03 -0.20547992811E+03  0.57216022076E+03  0.15294330000E+03 0.  0.
    8880022    1    1    2    0    0  0.13581760113E+03  0.49326184078E+03  0.76108587540E+03  0.92972954514E+03  0.15294330000E+03 0.  0.
<mgrwt>
<rscale>  0 0.53399000E+03</rscale>
<asrwt>0</asrwt>
<pdfrwt beam="1">  1        2 0.15826890E+00 0.53399000E+03</pdfrwt>
<pdfrwt beam="2">  1       -2 0.72791064E-01 0.53399000E+03</pdfrwt>
<totfact> 0.42838138E+01</totfact>
</mgrwt>
</event>
<event>
 4    1  0.1033139E-008  0.5241026E+03  0.7818608E-02  0.1007672E+00
         -2   -1    0    0    0  501 -0.00000000000E+00  0.00000000000E+00  0.36973301377E+03  0.36973301378E+03  0.25500000000E-02 0.  1.
          2   -1    0    0  501    0  0.00000000000E+00 -0.00000000000E+00 -0.92050655464E+03  0.92050655464E+03  0.25500000000E-02 0. -1.
    8880022    1    1    2    0    0 -0.34677821780E+03  0.36198999117E+03  0.79657214423E+01  0.52416313470E+03  0.15294330000E+03 0.  0.
    8880022    1    1    2    0    0  0.34677821780E+03 -0.36198999117E+03 -0.55873926231E+03  0.76607643372E+03  0.15294330000E+03 0.  0.
<mgrwt>
<rscale>  0 0.52410260E+03</rscale>
<asrwt>0</asrwt>
<pdfrwt beam="1">  1        2 0.14161639E+00 0.52410260E+03</pdfrwt>
<pdfrwt beam="2">  1       -2 0.56882002E-01 0.52410260E+03</pdfrwt>
<totfact> 0.85099803E+01</totfact>
</mgrwt>
</event>
<event>
 4    1  0.1033139E-008  0.1007144E+04  0.7818608E-02  0.9300744E-01
          2   -1    0    0  501    0  0.00000000000E+00  0.00000000000E+00  0.27079245170E+04  0.27079245170E+04  0.25500000000E-02 0. -1.
         -2   -1    0    0    0  501 -0.00000000000E+00 -0.00000000000E+00 -0.81019960283E+03  0.81019960284E+03  0.25500000000E-02 0.  1.
    8880022    1    1    2    0    0 -0.43989922692E+02 -0.99449088182E+03 -0.34098402938E+03  0.10633009868E+04  0.15294330000E+03 0.  0.
    8880022    1    1    2    0    0  0.43989922692E+02  0.99449088182E+03  0.22387089436E+04  0.24548231330E+04  0.15294330000E+03 0.  0.
<mgrwt>
<rscale>  0 0.10071439E+04</rscale>
<asrwt>0</asrwt>
<pdfrwt beam="1">  1        2 0.41660378E+00 0.10071439E+04</pdfrwt>
<pdfrwt beam="2">  1       -2 0.12464609E+00 0.10071439E+04</pdfrwt>
<totfact> 0.12810693E+00</totfact>
</mgrwt>
</event>
<event>
 4    1  0.1033139E-008  0.9927010E+03  0.7818608E-02  0.9316587E-01
          2   -1    0    0  501    0  0.00000000000E+00  0.00000000000E+00  0.18447462349E+04  0.18447462349E+04  0.25500000000E-02 0. -1.
         -2   -1    0    0    0  501 -0.00000000000E+00 -0.00000000000E+00 -0.93826432857E+03  0.93826432857E+03  0.25500000000E-02 0.  1.
    8880022    1    1    2    0    0 -0.93636308158E+03 -0.29204071343E+03 -0.45992539243E+03  0.10940688363E+04  0.15294330000E+03 0.  0.
    8880022    1    1    2    0    0  0.93636308158E+03  0.29204071343E+03  0.13664072988E+04  0.16889417273E+04  0.15294330000E+03 0.  0.
<mgrwt>
<rscale>  0 0.99270099E+03</rscale>
<asrwt>0</asrwt>
<pdfrwt beam="1">  1        2 0.28380711E+00 0.99270099E+03</pdfrwt>
<pdfrwt beam="2">  1       -2 0.14434836E+00 0.99270099E+03</pdfrwt>
<totfact> 0.26937240E+00</totfact>
</mgrwt>
</event>
<event>
 4    1  0.1033139E-008  0.9119041E+03  0.7818608E-02  0.9410822E-01
         -2   -1    0    0    0  501 -0.00000000000E+00  0.00000000000E+00  0.50191089526E+03  0.50191089527E+03  0.25500000000E-02 0.  1.
          2   -1    0    0  501    0  0.00000000000E+00 -0.00000000000E+00 -0.28793105219E+04  0.28793105219E+04  0.25500000000E-02 0. -1.
    8880022    1    1    2    0    0  0.73157108402E+03 -0.52247594980E+03 -0.22903014856E+04  0.24651673203E+04  0.15294330000E+03 0. -1.
    8880022    1    1    2    0    0 -0.73157108402E+03  0.52247594980E+03 -0.87098140970E+02  0.91605409680E+03  0.15294330000E+03 0.  0.
<mgrwt>
<rscale>  0 0.91190406E+03</rscale>
<asrwt>0</asrwt>
<pdfrwt beam="1">  1        2 0.44297084E+00 0.91190406E+03</pdfrwt>
<pdfrwt beam="2">  1       -2 0.77217063E-01 0.91190406E+03</pdfrwt>
<totfact> 0.31963316E+00</totfact>
</mgrwt>
</event>
<event>
 4    1  0.1033139E-008  0.6967535E+03  0.7818608E-02  0.9722800E-01
          2   -1    0    0  501    0  0.00000000000E+00  0.00000000000E+00  0.19391569794E+04  0.19391569794E+04  0.25500000000E-02 0. -1.
         -2   -1    0    0    0  501 -0.00000000000E+00 -0.00000000000E+00 -0.34929723666E+03  0.34929723667E+03  0.25500000000E-02 0.  1.
    8880022    1    1    2    0    0  0.42006809707E+03 -0.53443113763E+03  0.18592710567E+03  0.72113409896E+03  0.15294330000E+03 0.  0.
    8880022    1    1    2    0    0 -0.42006809707E+03  0.53443113763E+03  0.14039326371E+04  0.15673201171E+04  0.15294330000E+03 0.  0.
<mgrwt>
<rscale>  0 0.69675354E+03</rscale>
<asrwt>0</asrwt>
<pdfrwt beam="1">  1        2 0.29833185E+00 0.69675354E+03</pdfrwt>
<pdfrwt beam="2">  1       -2 0.53738036E-01 0.69675354E+03</pdfrwt>
<totfact> 0.24499216E+01</totfact>
</mgrwt>
</event>
<event>
 4    1  0.1033139E-008  0.8996935E+03  0.7818608E-02  0.9425965E-01
          2   -1    0    0  501    0  0.00000000000E+00  0.00000000000E+00  0.13831320574E+04  0.13831320574E+04  0.25500000000E-02 0. -1.
         -2   -1    0    0    0  501 -0.00000000000E+00 -0.00000000000E+00 -0.64946587880E+03  0.64946587880E+03  0.25500000000E-02 0.  1.
    8880022    1    1    2    0    0 -0.30877476376E+03  0.83109259053E+03  0.47210864582E+02  0.90093133341E+03  0.15294330000E+03 0.  0.
    8880022    1    1    2    0    0  0.30877476376E+03 -0.83109259053E+03  0.68645531406E+03  0.11316666028E+04  0.15294330000E+03 0.  0.
<mgrwt>
<rscale>  0 0.89969350E+03</rscale>
<asrwt>0</asrwt>
<pdfrwt beam="1">  1        2 0.21278954E+00 0.89969350E+03</pdfrwt>
<pdfrwt beam="2">  1       -2 0.99917829E-01 0.89969350E+03</pdfrwt>
<totfact> 0.12305214E+01</totfact>
</mgrwt>
</event>
<event>
 4    1  0.1033139E-008  0.1025333E+04  0.7818608E-02  0.9281188E-01
         -2   -1    0    0    0  501 -0.00000000000E+00  0.00000000000E+00  0.58454874624E+03  0.58454874624E+03  0.25500000000E-02 0.  1.
          2   -1    0    0  501    0  0.00000000000E+00 -0.00000000000E+00 -0.22048532485E+04  0.22048532485E+04  0.25500000000E-02 0. -1.
    8880022    1    1    2    0    0 -0.96756089782E+03 -0.30289025485E+03 -0.21140218338E+03  0.10468997725E+04  0.15294330000E+03 0.  0.
    8880022    1    1    2    0    0  0.96756089782E+03  0.30289025485E+03 -0.14089023189E+04  0.17425022223E+04  0.15294330000E+03 0.  0.
<mgrwt>
<rscale>  0 0.10253332E+04</rscale>
<asrwt>0</asrwt>
<pdfrwt beam="1">  1        2 0.33920819E+00 0.10253332E+04</pdfrwt>
<pdfrwt beam="2">  1       -2 0.89930578E-01 0.10253332E+04</pdfrwt>
<totfact> 0.54388077E+00</totfact>
</mgrwt>
</event>
<event>
 4    1  0.1033139E-008  0.5023756E+03  0.7818608E-02  0.1013161E+00
          2   -1    0    0  501    0  0.00000000000E+00  0.00000000000E+00  0.84245067514E+03  0.84245067515E+03  0.25500000000E-02 0. -1.
         -2   -1    0    0    0  501 -0.00000000000E+00 -0.00000000000E+00 -0.72727760417E+03  0.72727760418E+03  0.25500000000E-02 0.  1.
    8880022    1    1    2    0    0  0.87025456161E+02  0.47054873944E+03 -0.54429759578E+03  0.74070309302E+03  0.15294330000E+03 0.  0.
    8880022    1    1    2    0    0 -0.87025456161E+02 -0.47054873944E+03  0.65947066676E+03  0.82902518631E+03  0.15294330000E+03 0.  0.
<mgrwt>
<rscale>  0 0.50237556E+03</rscale>
<asrwt>0</asrwt>
<pdfrwt beam="1">  1        2 0.12960780E+00 0.50237556E+03</pdfrwt>
<pdfrwt beam="2">  1       -2 0.11188886E+00 0.50237556E+03</pdfrwt>
<totfact> 0.21173414E+01</totfact>
</mgrwt>
</event>
<event>
 4    1  0.1033139E-008  0.5960619E+03  0.7818608E-02  0.9913610E-01
         -2   -1    0    0    0  501 -0.00000000000E+00  0.00000000000E+00  0.15617095446E+04  0.15617095446E+04  0.25500000000E-02 0.  1.
          2   -1    0    0  501    0  0.00000000000E+00 -0.00000000000E+00 -0.13843394735E+04  0.13843394735E+04  0.25500000000E-02 0. -1.
    8880022    1    1    2    0    0  0.37237101669E+03  0.43958835329E+03 -0.12578731427E+04  0.13919535159E+04  0.15294330000E+03 0.  0.
    8880022    1    1    2    0    0 -0.37237101669E+03 -0.43958835329E+03  0.14352432137E+04  0.15540955022E+04  0.15294330000E+03 0.  0.
<mgrwt>
<rscale>  0 0.59606187E+03</rscale>
<asrwt>0</asrwt>
<pdfrwt beam="1">  1        2 0.21297530E+00 0.59606187E+03</pdfrwt>
<pdfrwt beam="2">  1       -2 0.24026301E+00 0.59606187E+03</pdfrwt>
<totfact> 0.11695096E+00</totfact>
</mgrwt>
</event>
<event>
 4    1  0.1033139E-008  0.6565927E+03  0.7818608E-02  0.9794486E-01
         -2   -1    0    0    0  501 -0.00000000000E+00  0.00000000000E+00  0.81613238236E+03  0.81613238236E+03  0.25500000000E-02 0.  1.
          2   -1    0    0  501    0  0.00000000000E+00 -0.00000000000E+00 -0.99941058415E+03  0.99941058415E+03  0.25500000000E-02 0. -1.
    8880022    1    1    2    0    0 -0.50601798011E+03 -0.38944596185E+03  0.53165571427E+03  0.84485016715E+03  0.15294330000E+03 0.  0.
    8880022    1    1    2    0    0  0.50601798011E+03  0.38944596185E+03 -0.71493391606E+03  0.97069279937E+03  0.15294330000E+03 0. -1.
<mgrwt>
<rscale>  0 0.65659272E+03</rscale>
<asrwt>0</asrwt>
<pdfrwt beam="1">  1        2 0.15375547E+00 0.65659272E+03</pdfrwt>
<pdfrwt beam="2">  1       -2 0.12555883E+00 0.65659272E+03</pdfrwt>
<totfact> 0.12298690E+01</totfact>
</mgrwt>
</event>
<event>
 4    1  0.1033139E-008  0.1126279E+04  0.7818608E-02  0.9179951E-01
         -2   -1    0    0    0  501 -0.00000000000E+00  0.00000000000E+00  0.19086143496E+04  0.19086143496E+04  0.25500000000E-02 0.  1.
          2   -1    0    0  501    0  0.00000000000E+00 -0.00000000000E+00 -0.13057476777E+04  0.13057476777E+04  0.25500000000E-02 0. -1.
    8880022    1    1    2    0    0 -0.11138428197E+04 -0.66827428995E+02  0.14276122836E+04  0.18184004557E+04  0.15294330000E+03 0.  0.
    8880022    1    1    2    0    0  0.11138428197E+04  0.66827428995E+02 -0.82474561175E+03  0.13959615716E+04  0.15294330000E+03 0.  0.
<mgrwt>
<rscale>  0 0.11262786E+04</rscale>
<asrwt>0</asrwt>
<pdfrwt beam="1">  1        2 0.20088426E+00 0.11262786E+04</pdfrwt>
<pdfrwt beam="2">  1       -2 0.29363298E+00 0.11262786E+04</pdfrwt>
<totfact> 0.56180280E-01</totfact>
</mgrwt>
</event>
<event>
 4    1  0.1033139E-008  0.2037461E+03  0.7818608E-02  0.1146616E+00
         -2   -1    0    0    0  501 -0.00000000000E+00  0.00000000000E+00  0.39299788163E+03  0.39299788164E+03  0.25500000000E-02 0.  1.
          2   -1    0    0  501    0  0.00000000000E+00 -0.00000000000E+00 -0.13927195949E+04  0.13927195949E+04  0.25500000000E-02 0. -1.
    8880022    1    1    2    0    0 -0.13455815726E+03  0.38628145970E+01  0.35847104580E+03  0.41232749449E+03  0.15294330000E+03 0.  1.
    8880022    1    1    2    0    0  0.13455815726E+03 -0.38628145970E+01 -0.13581927591E+04  0.13733899821E+04  0.15294330000E+03 0.  0.
<mgrwt>
<rscale>  0 0.20374610E+03</rscale>
<asrwt>0</asrwt>
<pdfrwt beam="1">  1        2 0.21426455E+00 0.20374610E+03</pdfrwt>
<pdfrwt beam="2">  1       -2 0.60461213E-01 0.20374610E+03</pdfrwt>
<totfact> 0.42216195E+01</totfact>
</mgrwt>
</event>
<event>
 4    1  0.1033139E-008  0.2932781E+03  0.7818608E-02  0.1088650E+00
          2   -1    0    0  501    0  0.00000000000E+00  0.00000000000E+00  0.10501507713E+04  0.10501507713E+04  0.25500000000E-02 0. -1.
         -2   -1    0    0    0  501 -0.00000000000E+00 -0.00000000000E+00 -0.26191542773E+03  0.26191542775E+03  0.25500000000E-02 0.  1.
    8880022    1    1    2    0    0  0.23567122929E+03 -0.84139524094E+02  0.93798714686E+03  0.98276748446E+03  0.15294330000E+03 0.  0.
    8880022    1    1    2    0    0 -0.23567122929E+03  0.84139524094E+02 -0.14975180329E+03  0.32929871459E+03  0.15294330000E+03 0.  0.
<mgrwt>
<rscale>  0 0.29327809E+03</rscale>
<asrwt>0</asrwt>
<pdfrwt beam="1">  1        2 0.16156166E+00 0.29327809E+03</pdfrwt>
<pdfrwt beam="2">  1       -2 0.40294681E-01 0.29327809E+03</pdfrwt>
<totfact> 0.14481812E+02</totfact>
</mgrwt>
</event>
<event>
 4    1  0.1033139E-008  0.9460864E+03  0.7818608E-02  0.9369737E-01
         -2   -1    0    0    0  501 -0.00000000000E+00  0.00000000000E+00  0.51421644596E+03  0.51421644596E+03  0.25500000000E-02 0.  1.
          2   -1    0    0  501    0  0.00000000000E+00 -0.00000000000E+00 -0.25477562009E+04  0.25477562009E+04  0.25500000000E-02 0. -1.
    8880022    1    1    2    0    0 -0.22033600061E+03  0.90727055476E+03 -0.18784641673E+04  0.21032610617E+04  0.15294330000E+03 0.  0.
    8880022    1    1    2    0    0  0.22033600061E+03 -0.90727055476E+03 -0.15507558765E+03  0.95871158520E+03  0.15294330000E+03 0.  1.
<mgrwt>
<rscale>  0 0.94608639E+03</rscale>
<asrwt>0</asrwt>
<pdfrwt beam="1">  1        2 0.39196248E+00 0.94608639E+03</pdfrwt>
<pdfrwt beam="2">  1       -2 0.79110224E-01 0.94608639E+03</pdfrwt>
<totfact> 0.47158528E+00</totfact>
</mgrwt>
</event>
<event>
 4    1  0.1033139E-008  0.1288884E+04  0.7818608E-02  0.9038427E-01
          2   -1    0    0  501    0  0.00000000000E+00  0.00000000000E+00  0.35015366694E+04  0.35015366694E+04  0.25500000000E-02 0. -1.
         -2   -1    0    0    0  501 -0.00000000000E+00 -0.00000000000E+00 -0.80354149677E+03  0.80354149678E+03  0.25500000000E-02 0.  1.
    8880022    1    1    2    0    0 -0.14643569713E+03  0.12713725285E+04  0.27265891221E+04  0.30158765581E+04  0.15294330000E+03 0.  0.
    8880022    1    1    2    0    0  0.14643569713E+03 -0.12713725285E+04 -0.28593949464E+02  0.12892016082E+04  0.15294330000E+03 0.  0.
<mgrwt>
<rscale>  0 0.12888845E+04</rscale>
<asrwt>0</asrwt>
<pdfrwt beam="1">  1        2 0.53869794E+00 0.12888845E+04</pdfrwt>
<pdfrwt beam="2">  1       -2 0.12362177E+00 0.12888845E+04</pdfrwt>
<totfact> 0.39353747E-01</totfact>
</mgrwt>
</event>
<event>
 4    1  0.1033139E-008  0.9586316E+03  0.7818608E-02  0.9355118E-01
          2   -1    0    0  501    0  0.00000000000E+00  0.00000000000E+00  0.73481551201E+03  0.73481551202E+03  0.25500000000E-02 0. -1.
         -2   -1    0    0    0  501 -0.00000000000E+00 -0.00000000000E+00 -0.21184340307E+04  0.21184340307E+04  0.25500000000E-02 0.  1.
    8880022    1    1    2    0    0  0.22658770752E+03 -0.91882582914E+03 -0.16049038467E+04  0.18694092392E+04  0.15294330000E+03 0.  0.
    8880022    1    1    2    0    0 -0.22658770752E+03  0.91882582914E+03  0.22128532796E+03  0.98384030355E+03  0.15294330000E+03 0.  0.
<mgrwt>
<rscale>  0 0.95863160E+03</rscale>
<asrwt>0</asrwt>
<pdfrwt beam="1">  1        2 0.11304854E+00 0.95863160E+03</pdfrwt>
<pdfrwt beam="2">  1       -2 0.32591293E+00 0.95863160E+03</pdfrwt>
<totfact> 0.86004398E-01</totfact>
</mgrwt>
</event>
<event>
 4    1  0.1033139E-008  0.3806733E+03  0.7818608E-02  0.1050685E+00
          2   -1    0    0  501    0  0.00000000000E+00  0.00000000000E+00  0.36263765510E+04  0.36263765510E+04  0.25500000000E-02 0. -1.
         -2   -1    0    0    0  501 -0.00000000000E+00 -0.00000000000E+00 -0.78786982312E+02  0.78786982353E+02  0.25500000000E-02 0.  1.
    8880022    1    1    2    0    0  0.23292323643E+03 -0.25935941592E+03  0.47328507576E+03  0.60738040522E+03  0.15294330000E+03 0.  0.
    8880022    1    1    2    0    0 -0.23292323643E+03  0.25935941592E+03  0.30743044929E+04  0.30977831281E+04  0.15294330000E+03 0.  0.
<mgrwt>
<rscale>  0 0.38067334E+03</rscale>
<asrwt>0</asrwt>
<pdfrwt beam="1">  1        2 0.55790411E+00 0.38067334E+03</pdfrwt>
<pdfrwt beam="2">  1       -2 0.12121074E-01 0.38067334E+03</pdfrwt>
<totfact> 0.38961448E+01</totfact>
</mgrwt>
</event>
<event>
 4    1  0.1033139E-008  0.1024699E+04  0.7818608E-02  0.9281862E-01
         -2   -1    0    0    0  501 -0.00000000000E+00  0.00000000000E+00  0.13253389492E+04  0.13253389492E+04  0.25500000000E-02 0.  1.
          2   -1    0    0  501    0  0.00000000000E+00 -0.00000000000E+00 -0.22451575536E+04  0.22451575536E+04  0.25500000000E-02 0. -1.
    8880022    1    1    2    0    0  0.29309755107E+03  0.96990249884E+03 -0.18960374416E+04  0.21552184726E+04  0.15294330000E+03 0.  0.
    8880022    1    1    2    0    0 -0.29309755107E+03 -0.96990249884E+03  0.97621883720E+03  0.14152780302E+04  0.15294330000E+03 0.  0.
<mgrwt>
<rscale>  0 0.10246993E+04</rscale>
<asrwt>0</asrwt>
<pdfrwt beam="1">  1        2 0.34540886E+00 0.10246993E+04</pdfrwt>
<pdfrwt beam="2">  1       -2 0.20389830E+00 0.10246993E+04</pdfrwt>
<totfact> 0.60977307E-01</totfact>
</mgrwt>
</event>
<event>
 4    1  0.1033139E-008  0.1789138E+04  0.7818608E-02  0.8712097E-01
         -2   -1    0    0    0  501 -0.00000000000E+00  0.00000000000E+00  0.32008630512E+04  0.32008630512E+04  0.25500000000E-02 0.  1.
          2   -1    0    0  501    0  0.00000000000E+00 -0.00000000000E+00 -0.13082609733E+04  0.13082609733E+04  0.25500000000E-02 0. -1.
    8880022    1    1    2    0    0 -0.17484291770E+04 -0.34730286104E+03  0.20406118968E+04  0.27138740632E+04  0.15294330000E+03 0.  0.
    8880022    1    1    2    0    0  0.17484291770E+04  0.34730286104E+03 -0.14800981897E+03  0.17952499613E+04  0.15294330000E+03 0.  0.
<mgrwt>
<rscale>  0 0.17891382E+04</rscale>
<asrwt>0</asrwt>
<pdfrwt beam="1">  1        2 0.20127092E+00 0.17891382E+04</pdfrwt>
<pdfrwt beam="2">  1       -2 0.49244047E+00 0.17891382E+04</pdfrwt>
<totfact> 0.27283554E-02</totfact>
</mgrwt>
</event>
<event>
 4    1  0.1033139E-008  0.6298142E+03  0.7818608E-02  0.9845411E-01
          2   -1    0    0  501    0  0.00000000000E+00  0.00000000000E+00  0.15791050931E+04  0.15791050931E+04  0.25500000000E-02 0. -1.
         -2   -1    0    0    0  501 -0.00000000000E+00 -0.00000000000E+00 -0.42728988702E+03  0.42728988702E+03  0.25500000000E-02 0.  1.
    8880022    1    1    2    0    0 -0.45525728142E+03  0.40744949005E+03  0.12199232965E+04  0.13729088759E+04  0.15294330000E+03 0.  0.
    8880022    1    1    2    0    0  0.45525728142E+03 -0.40744949005E+03 -0.68108090419E+02  0.63348610420E+03  0.15294330000E+03 0.  0.
<mgrwt>
<rscale>  0 0.62981420E+03</rscale>
<asrwt>0</asrwt>
<pdfrwt beam="1">  1        2 0.24293925E+00 0.62981420E+03</pdfrwt>
<pdfrwt beam="2">  1       -2 0.65736905E-01 0.62981420E+03</pdfrwt>
<totfact> 0.25422136E+01</totfact>
</mgrwt>
</event>
<event>
 4    1  0.1033139E-008  0.1228477E+04  0.7818608E-02  0.9088290E-01
          2   -1    0    0  501    0  0.00000000000E+00  0.00000000000E+00  0.21148624899E+04  0.21148624899E+04  0.25500000000E-02 0. -1.
         -2   -1    0    0    0  501 -0.00000000000E+00 -0.00000000000E+00 -0.10870954364E+04  0.10870954364E+04  0.25500000000E-02 0.  1.
    8880022    1    1    2    0    0 -0.75934407720E+03  0.95349897934E+03  0.14523036720E+04  0.19021938229E+04  0.15294330000E+03 0.  0.
    8880022    1    1    2    0    0  0.75934407720E+03 -0.95349897934E+03 -0.42453661842E+03  0.12997641034E+04  0.15294330000E+03 0.  0.
<mgrwt>
<rscale>  0 0.12284769E+04</rscale>
<asrwt>0</asrwt>
<pdfrwt beam="1">  1        2 0.32536346E+00 0.12284769E+04</pdfrwt>
<pdfrwt beam="2">  1       -2 0.16724545E+00 0.12284769E+04</pdfrwt>
<totfact> 0.12466538E+00</totfact>
</mgrwt>
</event>
<event>
 4    1  0.1033139E-008  0.1072092E+04  0.7818608E-02  0.9232828E-01
         -2   -1    0    0    0  501 -0.00000000000E+00  0.00000000000E+00  0.59357098768E+03  0.59357098768E+03  0.25500000000E-02 0.  1.
          2   -1    0    0  501    0  0.00000000000E+00 -0.00000000000E+00 -0.35694235956E+04  0.35694235956E+04  0.25500000000E-02 0. -1.
    8880022    1    1    2    0    0  0.74807003386E+03  0.75258210806E+03 -0.28958379786E+04  0.30879212840E+04  0.15294330000E+03 0.  0.
    8880022    1    1    2    0    0 -0.74807003386E+03 -0.75258210806E+03 -0.80014629340E+02  0.10750732993E+04  0.15294330000E+03 0.  0.
<mgrwt>
<rscale>  0 0.10720915E+04</rscale>
<asrwt>0</asrwt>
<pdfrwt beam="1">  1        2 0.54914208E+00 0.10720915E+04</pdfrwt>
<pdfrwt beam="2">  1       -2 0.91318615E-01 0.10720915E+04</pdfrwt>
<totfact> 0.75946586E-01</totfact>
</mgrwt>
</event>
<event>
 4    1  0.1033139E-008  0.1036456E+04  0.7818608E-02  0.9269440E-01
          2   -1    0    0  501    0  0.00000000000E+00  0.00000000000E+00  0.19642174261E+04  0.19642174261E+04  0.25500000000E-02 0. -1.
         -2   -1    0    0    0  501 -0.00000000000E+00 -0.00000000000E+00 -0.89899783334E+03  0.89899783334E+03  0.25500000000E-02 0.  1.
    8880022    1    1    2    0    0  0.86464365652E+03 -0.55067273244E+03  0.14285378563E+04  0.17649252593E+04  0.15294330000E+03 0.  0.
    8880022    1    1    2    0    0 -0.86464365652E+03  0.55067273244E+03 -0.36331826346E+03  0.10982900002E+04  0.15294330000E+03 0.  0.
<mgrwt>
<rscale>  0 0.10364559E+04</rscale>
<asrwt>0</asrwt>
<pdfrwt beam="1">  1        2 0.30218729E+00 0.10364559E+04</pdfrwt>
<pdfrwt beam="2">  1       -2 0.13830736E+00 0.10364559E+04</pdfrwt>
<totfact> 0.25743874E+00</totfact>
</mgrwt>
</event>
<event>
 4    1  0.1033139E-008  0.5694935E+03  0.7818608E-02  0.9970800E-01
         -2   -1    0    0    0  501 -0.00000000000E+00  0.00000000000E+00  0.14292741187E+04  0.14292741187E+04  0.25500000000E-02 0.  1.
          2   -1    0    0  501    0  0.00000000000E+00 -0.00000000000E+00 -0.14058861381E+04  0.14058861381E+04  0.25500000000E-02 0. -1.
    8880022    1    1    2    0    0  0.21176754105E+03  0.50604908982E+03 -0.12864541225E+04  0.14068713641E+04  0.15294330000E+03 0.  0.
    8880022    1    1    2    0    0 -0.21176754105E+03 -0.50604908982E+03  0.13098421032E+04  0.14282888927E+04  0.15294330000E+03 0.  0.
<mgrwt>
<rscale>  0 0.56949348E+03</rscale>
<asrwt>0</asrwt>
<pdfrwt beam="1">  1        2 0.21629018E+00 0.56949348E+03</pdfrwt>
<pdfrwt beam="2">  1       -2 0.21988833E+00 0.56949348E+03</pdfrwt>
<totfact> 0.15267766E+00</totfact>
</mgrwt>
</event>
<event>
 4    1  0.1033139E-008  0.9564692E+03  0.7818608E-02  0.9357621E-01
          2   -1    0    0  501    0  0.00000000000E+00  0.00000000000E+00  0.12206617696E+04  0.12206617696E+04  0.25500000000E-02 0. -1.
         -2   -1    0    0    0  501 -0.00000000000E+00 -0.00000000000E+00 -0.12280374446E+04  0.12280374446E+04  0.25500000000E-02 0.  1.
    8880022    1    1    2    0    0  0.68213075853E+03 -0.65279343629E+03 -0.76801130651E+03  0.12266518097E+04  0.15294330000E+03 0.  0.
    8880022    1    1    2    0    0 -0.68213075853E+03  0.65279343629E+03  0.76063563145E+03  0.12220474046E+04  0.15294330000E+03 0.  0.
<mgrwt>
<rscale>  0 0.95646918E+03</rscale>
<asrwt>0</asrwt>
<pdfrwt beam="1">  1        2 0.18779412E+00 0.95646918E+03</pdfrwt>
<pdfrwt beam="2">  1       -2 0.18892884E+00 0.95646918E+03</pdfrwt>
<totfact> 0.28925184E+00</totfact>
</mgrwt>
</event>
<event>
 4    1  0.1033139E-008  0.6950052E+03  0.7818608E-02  0.9725812E-01
         -2   -1    0    0    0  501 -0.00000000000E+00  0.00000000000E+00  0.26891020208E+03  0.26891020209E+03  0.25500000000E-02 0.  1.
          2   -1    0    0  501    0  0.00000000000E+00 -0.00000000000E+00 -0.24372382814E+04  0.24372382814E+04  0.25500000000E-02 0. -1.
    8880022    1    1    2    0    0  0.61786978356E+03 -0.27906539206E+03 -0.17780607404E+04  0.19090657956E+04  0.15294330000E+03 0.  0.
    8880022    1    1    2    0    0 -0.61786978356E+03  0.27906539206E+03 -0.39026733896E+03  0.79708268790E+03  0.15294330000E+03 0.  0.
<mgrwt>
<rscale>  0 0.69500519E+03</rscale>
<asrwt>0</asrwt>
<pdfrwt beam="1">  1        2 0.37495972E+00 0.69500519E+03</pdfrwt>
<pdfrwt beam="2">  1       -2 0.41370802E-01 0.69500519E+03</pdfrwt>
<totfact> 0.22050132E+01</totfact>
</mgrwt>
</event>
<event>
 4    1  0.1033139E-008  0.4098454E+03  0.7818608E-02  0.1040423E+00
         -2   -1    0    0    0  501 -0.00000000000E+00  0.00000000000E+00  0.36476799710E+03  0.36476799711E+03  0.25500000000E-02 0.  1.
          2   -1    0    0  501    0  0.00000000000E+00 -0.00000000000E+00 -0.13447938415E+04  0.13447938415E+04  0.25500000000E-02 0. -1.
    8880022    1    1    2    0    0 -0.28164307134E+03  0.25545792087E+03  0.20313656557E+03  0.45742506081E+03  0.15294330000E+03 0.  0.
    8880022    1    1    2    0    0  0.28164307134E+03 -0.25545792087E+03 -0.11831624100E+04  0.12521367778E+04  0.15294330000E+03 0.  0.
<mgrwt>
<rscale>  0 0.40984536E+03</rscale>
<asrwt>0</asrwt>
<pdfrwt beam="1">  1        2 0.20689136E+00 0.40984536E+03</pdfrwt>
<pdfrwt beam="2">  1       -2 0.56118154E-01 0.40984536E+03</pdfrwt>
<totfact> 0.49541008E+01</totfact>
</mgrwt>
</event>
<event>
 4    1  0.1033139E-008  0.8031415E+03  0.7818608E-02  0.9555481E-01
         -2   -1    0    0    0  501 -0.00000000000E+00  0.00000000000E+00  0.50010069620E+03  0.50010069621E+03  0.25500000000E-02 0.  1.
          2   -1    0    0  501    0  0.00000000000E+00 -0.00000000000E+00 -0.19334494324E+04  0.19334494324E+04  0.25500000000E-02 0. -1.
    8880022    1    1    2    0    0  0.38228373849E+03  0.68956785937E+03 -0.14630538863E+02  0.80327479424E+03  0.15294330000E+03 0.  0.
    8880022    1    1    2    0    0 -0.38228373849E+03 -0.68956785937E+03 -0.14187181974E+04  0.16302753344E+04  0.15294330000E+03 0.  0.
<mgrwt>
<rscale>  0 0.80314155E+03</rscale>
<asrwt>0</asrwt>
<pdfrwt beam="1">  1        2 0.29745376E+00 0.80314155E+03</pdfrwt>
<pdfrwt beam="2">  1       -2 0.76938569E-01 0.80314155E+03</pdfrwt>
<totfact> 0.11260401E+01</totfact>
</mgrwt>
</event>
<event>
 4    1  0.1033139E-008  0.5672443E+03  0.7818608E-02  0.9975795E-01
         -2   -1    0    0    0  501 -0.00000000000E+00  0.00000000000E+00  0.48323428287E+03  0.48323428288E+03  0.25500000000E-02 0.  1.
          2   -1    0    0  501    0  0.00000000000E+00 -0.00000000000E+00 -0.33537402484E+04  0.33537402484E+04  0.25500000000E-02 0. -1.
    8880022    1    1    2    0    0  0.35182006834E+03  0.41784819901E+03  0.28225675841E+03  0.63358899027E+03  0.15294330000E+03 0.  0.
    8880022    1    1    2    0    0 -0.35182006834E+03 -0.41784819901E+03 -0.31527627239E+04  0.32033855410E+04  0.15294330000E+03 0.  0.
<mgrwt>
<rscale>  0 0.56724433E+03</rscale>
<asrwt>0</asrwt>
<pdfrwt beam="1">  1        2 0.51596002E+00 0.56724433E+03</pdfrwt>
<pdfrwt beam="2">  1       -2 0.74343738E-01 0.56724433E+03</pdfrwt>
<totfact> 0.18919154E+00</totfact>
</mgrwt>
</event>
<event>
 4    1  0.1033139E-008  0.1320409E+04  0.7818608E-02  0.9013535E-01
          2   -1    0    0  501    0  0.00000000000E+00  0.00000000000E+00  0.27827304333E+04  0.27827304333E+04  0.25500000000E-02 0. -1.
         -2   -1    0    0    0  501 -0.00000000000E+00 -0.00000000000E+00 -0.85510727368E+03  0.85510727368E+03  0.25500000000E-02 0.  1.
    8880022    1    1    2    0    0  0.13112116340E+04  0.28496016009E+02  0.19042151034E+04  0.23172213500E+04  0.15294330000E+03 0.  0.
    8880022    1    1    2    0    0 -0.13112116340E+04 -0.28496016009E+02  0.23408056224E+02  0.13206163569E+04  0.15294330000E+03 0.  0.
<mgrwt>
<rscale>  0 0.13204089E+04</rscale>
<asrwt>0</asrwt>
<pdfrwt beam="1">  1        2 0.42811237E+00 0.13204089E+04</pdfrwt>
<pdfrwt beam="2">  1       -2 0.13155497E+00 0.13204089E+04</pdfrwt>
<totfact> 0.96656177E-01</totfact>
</mgrwt>
</event>
<event>
 4    1  0.1033139E-008  0.6281972E+03  0.7818608E-02  0.9848573E-01
          2   -1    0    0  501    0  0.00000000000E+00  0.00000000000E+00  0.20403563654E+03  0.20403563655E+03  0.25500000000E-02 0. -1.
         -2   -1    0    0    0  501 -0.00000000000E+00 -0.00000000000E+00 -0.22154495194E+04  0.22154495194E+04  0.25500000000E-02 0.  1.
    8880022    1    1    2    0    0 -0.46302469165E+03 -0.39604059996E+03 -0.57462373623E+03  0.85136602771E+03  0.15294330000E+03 0.  0.
    8880022    1    1    2    0    0  0.46302469165E+03  0.39604059996E+03 -0.14367901467E+04  0.15681191283E+04  0.15294330000E+03 0.  0.
<mgrwt>
<rscale>  0 0.62819716E+03</rscale>
<asrwt>0</asrwt>
<pdfrwt beam="1">  1        2 0.31390099E-01 0.62819716E+03</pdfrwt>
<pdfrwt beam="2">  1       -2 0.34083837E+00 0.62819716E+03</pdfrwt>
<totfact> 0.32103125E+00</totfact>
</mgrwt>
</event>
<event>
 4    1  0.1033139E-008  0.8722080E+03  0.7818608E-02  0.9461006E-01
         -2   -1    0    0    0  501 -0.00000000000E+00  0.00000000000E+00  0.83875578560E+03  0.83875578560E+03  0.25500000000E-02 0.  1.
          2   -1    0    0  501    0  0.00000000000E+00 -0.00000000000E+00 -0.15086904990E+04  0.15086904990E+04  0.25500000000E-02 0. -1.
    8880022    1    1    2    0    0  0.44079998886E+03 -0.73691959653E+03 -0.10761994228E+04  0.13852624201E+04  0.15294330000E+03 0.  0.
    8880022    1    1    2    0    0 -0.44079998886E+03  0.73691959653E+03  0.40626470942E+03  0.96218386447E+03  0.15294330000E+03 0.  0.
<mgrwt>
<rscale>  0 0.87220799E+03</rscale>
<asrwt>0</asrwt>
<pdfrwt beam="1">  1        2 0.23210623E+00 0.87220799E+03</pdfrwt>
<pdfrwt beam="2">  1       -2 0.12903935E+00 0.87220799E+03</pdfrwt>
<totfact> 0.56019727E+00</totfact>
</mgrwt>
</event>
<event>
 4    1  0.1033139E-008  0.7898565E+03  0.7818608E-02  0.9574817E-01
          2   -1    0    0  501    0  0.00000000000E+00  0.00000000000E+00  0.27187433994E+04  0.27187433994E+04  0.25500000000E-02 0. -1.
         -2   -1    0    0    0  501 -0.00000000000E+00 -0.00000000000E+00 -0.79186833092E+03  0.79186833093E+03  0.25500000000E-02 0.  1.
    8880022    1    1    2    0    0 -0.22611001088E+03 -0.74118550413E+03 -0.51583386477E+03  0.94337580932E+03  0.15294330000E+03 0.  0.
    8880022    1    1    2    0    0  0.22611001088E+03  0.74118550413E+03  0.24427089333E+04  0.25672359210E+04  0.15294330000E+03 0.  0.
<mgrwt>
<rscale>  0 0.78985653E+03</rscale>
<asrwt>0</asrwt>
<pdfrwt beam="1">  1        2 0.41826822E+00 0.78985653E+03</pdfrwt>
<pdfrwt beam="2">  1       -2 0.12182590E+00 0.78985653E+03</pdfrwt>
<totfact> 0.13890394E+00</totfact>
</mgrwt>
</event>
<event>
 4    1  0.1033139E-008  0.9570112E+03  0.7818608E-02  0.9356993E-01
          2   -1    0    0  501    0  0.00000000000E+00  0.00000000000E+00  0.11092498284E+04  0.11092498284E+04  0.25500000000E-02 0. -1.
         -2   -1    0    0    0  501 -0.00000000000E+00 -0.00000000000E+00 -0.16956134674E+04  0.16956134674E+04  0.25500000000E-02 0.  1.
    8880022    1    1    2    0    0 -0.57146366075E+03  0.75226857668E+03 -0.12977158967E+04  0.16124319919E+04  0.15294330000E+03 0.  0.
    8880022    1    1    2    0    0  0.57146366075E+03 -0.75226857668E+03  0.71135225764E+03  0.11924313039E+04  0.15294330000E+03 0.  0.
<mgrwt>
<rscale>  0 0.95701117E+03</rscale>
<asrwt>0</asrwt>
<pdfrwt beam="1">  1        2 0.17065382E+00 0.95701117E+03</pdfrwt>
<pdfrwt beam="2">  1       -2 0.26086361E+00 0.95701117E+03</pdfrwt>
<totfact> 0.11900596E+00</totfact>
</mgrwt>
</event>
<event>
 4    1  0.1033139E-008  0.4517967E+03  0.7818608E-02  0.1027188E+00
         -2   -1    0    0    0  501 -0.00000000000E+00  0.00000000000E+00  0.14725474240E+03  0.14725474242E+03  0.25500000000E-02 0.  1.
          2   -1    0    0  501    0  0.00000000000E+00 -0.00000000000E+00 -0.39391855099E+04  0.39391855099E+04  0.25500000000E-02 0. -1.
    8880022    1    1    2    0    0 -0.10914064066E+03  0.41087338666E+03 -0.25106890209E+03  0.51687122760E+03  0.15294330000E+03 0.  0.
    8880022    1    1    2    0    0  0.10914064066E+03 -0.41087338666E+03 -0.35408618654E+04  0.35695690247E+04  0.15294330000E+03 0.  0.
<mgrwt>
<rscale>  0 0.45179672E+03</rscale>
<asrwt>0</asrwt>
<pdfrwt beam="1">  1        2 0.60602846E+00 0.45179672E+03</pdfrwt>
<pdfrwt beam="2">  1       -2 0.22654579E-01 0.45179672E+03</pdfrwt>
<totfact> 0.78097012E+00</totfact>
</mgrwt>
</event>
<event>
 4    1  0.1033139E-008  0.1227018E+04  0.7818608E-02  0.9089531E-01
          2   -1    0    0  501    0  0.00000000000E+00  0.00000000000E+00  0.24178663944E+04  0.24178663944E+04  0.25500000000E-02 0. -1.
         -2   -1    0    0    0  501 -0.00000000000E+00 -0.00000000000E+00 -0.96663187151E+03  0.96663187152E+03  0.25500000000E-02 0.  1.
    8880022    1    1    2    0    0 -0.67450646210E+03 -0.10135195338E+04  0.17350527225E+04  0.21250836256E+04  0.15294330000E+03 0.  0.
    8880022    1    1    2    0    0  0.67450646210E+03  0.10135195338E+04 -0.28381819962E+03  0.12594146403E+04  0.15294330000E+03 0.  0.
<mgrwt>
<rscale>  0 0.12270177E+04</rscale>
<asrwt>0</asrwt>
<pdfrwt beam="1">  1        2 0.37197944E+00 0.12270177E+04</pdfrwt>
<pdfrwt beam="2">  1       -2 0.14871260E+00 0.12270177E+04</pdfrwt>
<totfact> 0.11588534E+00</totfact>
</mgrwt>
</event>
<event>
 4    1  0.1033139E-008  0.9168423E+03  0.7818608E-02  0.9404769E-01
         -2   -1    0    0    0  501 -0.00000000000E+00  0.00000000000E+00  0.15413723272E+04  0.15413723272E+04  0.25500000000E-02 0.  1.
          2   -1    0    0  501    0  0.00000000000E+00 -0.00000000000E+00 -0.85631522254E+03  0.85631522255E+03  0.25500000000E-02 0. -1.
    8880022    1    1    2    0    0  0.80695085613E+03 -0.40747821490E+03  0.10649589937E+04  0.14052535327E+04  0.15294330000E+03 0.  0.
    8880022    1    1    2    0    0 -0.80695085613E+03  0.40747821490E+03 -0.37990188908E+03  0.99243401704E+03  0.15294330000E+03 0.  0.
<mgrwt>
<rscale>  0 0.91684232E+03</rscale>
<asrwt>0</asrwt>
<pdfrwt beam="1">  1        2 0.13174080E+00 0.91684232E+03</pdfrwt>
<pdfrwt beam="2">  1       -2 0.23713420E+00 0.91684232E+03</pdfrwt>
<totfact> 0.24385740E+00</totfact>
</mgrwt>
</event>
<event>
 4    1  0.1033139E-008  0.1096658E+04  0.7818608E-02  0.9208456E-01
         -2   -1    0    0    0  501 -0.00000000000E+00  0.00000000000E+00  0.27790342872E+04  0.27790342872E+04  0.25500000000E-02 0.  1.
          2   -1    0    0  501    0  0.00000000000E+00 -0.00000000000E+00 -0.49053627627E+03  0.49053627627E+03  0.25500000000E-02 0. -1.
    8880022    1    1    2    0    0  0.18361780236E+03  0.10703039630E+04  0.17052919170E+04  0.20274807634E+04  0.15294330000E+03 0.  0.
    8880022    1    1    2    0    0 -0.18361780236E+03 -0.10703039630E+04  0.58320609394E+03  0.12420898001E+04  0.15294330000E+03 0.  0.
<mgrwt>
<rscale>  0 0.10966575E+04</rscale>
<asrwt>0</asrwt>
<pdfrwt beam="1">  1        2 0.75467121E-01 0.10966575E+04</pdfrwt>
<pdfrwt beam="2">  1       -2 0.42754373E+00 0.10966575E+04</pdfrwt>
<totfact> 0.31013768E-01</totfact>
</mgrwt>
</event>
<event>
 4    1  0.1033139E-008  0.8800834E+03  0.7818608E-02  0.9450826E-01
         -2   -1    0    0    0  501 -0.00000000000E+00  0.00000000000E+00  0.11006104109E+04  0.11006104109E+04  0.25500000000E-02 0.  1.
          2   -1    0    0  501    0  0.00000000000E+00 -0.00000000000E+00 -0.11322669798E+04  0.11322669798E+04  0.25500000000E-02 0. -1.
    8880022    1    1    2    0    0  0.85972846015E+03  0.10964533842E+03 -0.70265640430E+03  0.11261761856E+04  0.15294330000E+03 0.  0.
    8880022    1    1    2    0    0 -0.85972846015E+03 -0.10964533842E+03  0.67099983542E+03  0.11067012052E+04  0.15294330000E+03 0.  0.
<mgrwt>
<rscale>  0 0.88008339E+03</rscale>
<asrwt>0</asrwt>
<pdfrwt beam="1">  1        2 0.17419492E+00 0.88008339E+03</pdfrwt>
<pdfrwt beam="2">  1       -2 0.16932468E+00 0.88008339E+03</pdfrwt>
<totfact> 0.45064871E+00</totfact>
</mgrwt>
</event>
<event>
 4    1  0.1404285E-008  0.1720053E+04  0.7818608E-02  0.8750009E-01
         -2   -1    0    0    0  501 -0.00000000000E+00  0.00000000000E+00  0.17476867647E+04  0.17476867647E+04  0.25500000000E-02 0.  1.
          2   -1    0    0  501    0  0.00000000000E+00 -0.00000000000E+00 -0.28797928789E+04  0.28797928790E+04  0.25500000000E-02 0. -1.
    8880022    1    1    2    0    0  0.13516923817E+03 -0.17078991036E+04  0.91936171338E+03  0.19503352747E+04  0.15294330000E+03 0.  0.
    8880022    1    1    2    0    0 -0.13516923817E+03  0.17078991036E+04 -0.20514678277E+04  0.26771443689E+04  0.15294330000E+03 0.  0.
<mgrwt>
<rscale>  0 0.17200528E+04</rscale>
<asrwt>0</asrwt>
<pdfrwt beam="1">  1        2 0.44304506E+00 0.17200528E+04</pdfrwt>
<pdfrwt beam="2">  1       -2 0.26887489E+00 0.17200528E+04</pdfrwt>
<totfact> 0.93054896E-02</totfact>
</mgrwt>
</event>
<event>
 4    1  0.1033139E-008  0.1327940E+04  0.7818608E-02  0.9007697E-01
          2   -1    0    0  501    0  0.00000000000E+00  0.00000000000E+00  0.19692964731E+04  0.19692964731E+04  0.25500000000E-02 0. -1.
         -2   -1    0    0    0  501 -0.00000000000E+00 -0.00000000000E+00 -0.98025824174E+03  0.98025824174E+03  0.25500000000E-02 0.  1.
    8880022    1    1    2    0    0  0.12579663209E+04 -0.39692989844E+03  0.60756439403E+02  0.13293290062E+04  0.15294330000E+03 0.  0.
    8880022    1    1    2    0    0 -0.12579663209E+04  0.39692989844E+03  0.92828179196E+03  0.16202257087E+04  0.15294330000E+03 0.  0.
<mgrwt>
<rscale>  0 0.13279399E+04</rscale>
<asrwt>0</asrwt>
<pdfrwt beam="1">  1        2 0.30296869E+00 0.13279399E+04</pdfrwt>
<pdfrwt beam="2">  1       -2 0.15080896E+00 0.13279399E+04</pdfrwt>
<totfact> 0.19705135E+00</totfact>
</mgrwt>
</event>
<event>
 4    1  0.1033139E-008  0.7005529E+03  0.7818608E-02  0.9716287E-01
         -2   -1    0    0    0  501 -0.00000000000E+00  0.00000000000E+00  0.44596431334E+03  0.44596431335E+03  0.25500000000E-02 0.  1.
          2   -1    0    0  501    0  0.00000000000E+00 -0.00000000000E+00 -0.26120887463E+04  0.26120887463E+04  0.25500000000E-02 0. -1.
    8880022    1    1    2    0    0  0.84393407504E+02  0.67842496881E+03  0.80101659329E+02  0.70511744722E+03  0.15294330000E+03 0.  0.
    8880022    1    1    2    0    0 -0.84393407504E+02 -0.67842496881E+03 -0.22462260923E+04  0.23529356124E+04  0.15294330000E+03 0.  0.
<mgrwt>
<rscale>  0 0.70055288E+03</rscale>
<asrwt>0</asrwt>
<pdfrwt beam="1">  1        2 0.40185980E+00 0.70055288E+03</pdfrwt>
<pdfrwt beam="2">  1       -2 0.68609896E-01 0.70055288E+03</pdfrwt>
<totfact> 0.61785354E+00</totfact>
</mgrwt>
</event>
<event>
 4    1  0.1033139E-008  0.1136450E+04  0.7818608E-02  0.9170376E-01
         -2   -1    0    0    0  501 -0.00000000000E+00  0.00000000000E+00  0.14062998344E+04  0.14062998344E+04  0.25500000000E-02 0.  1.
          2   -1    0    0  501    0  0.00000000000E+00 -0.00000000000E+00 -0.18830358144E+04  0.18830358144E+04  0.25500000000E-02 0. -1.
    8880022    1    1    2    0    0  0.52148591178E+03  0.99808820646E+03  0.93879022427E+03  0.14740577880E+04  0.15294330000E+03 0.  0.
    8880022    1    1    2    0    0 -0.52148591178E+03 -0.99808820646E+03 -0.14155262043E+04  0.18152778608E+04  0.15294330000E+03 0.  0.
<mgrwt>
<rscale>  0 0.11364503E+04</rscale>
<asrwt>0</asrwt>
<pdfrwt beam="1">  1        2 0.28969782E+00 0.11364503E+04</pdfrwt>
<pdfrwt beam="2">  1       -2 0.21635382E+00 0.11364503E+04</pdfrwt>
<totfact> 0.79204579E-01</totfact>
</mgrwt>
</event>
<event>
 4    1  0.1033139E-008  0.1127536E+04  0.7818608E-02  0.9178761E-01
          2   -1    0    0  501    0  0.00000000000E+00  0.00000000000E+00  0.31031907723E+04  0.31031907723E+04  0.25500000000E-02 0. -1.
         -2   -1    0    0    0  501 -0.00000000000E+00 -0.00000000000E+00 -0.63247922823E+03  0.63247922823E+03  0.25500000000E-02 0.  1.
    8880022    1    1    2    0    0  0.10828581063E+04 -0.27452685060E+03  0.12678109770E+03  0.11346416923E+04  0.15294330000E+03 0.  0.
    8880022    1    1    2    0    0 -0.10828581063E+04  0.27452685060E+03  0.23439304464E+04  0.26010283083E+04  0.15294330000E+03 0.  0.
<mgrwt>
<rscale>  0 0.11275364E+04</rscale>
<asrwt>0</asrwt>
<pdfrwt beam="1">  1        2 0.47741396E+00 0.11275364E+04</pdfrwt>
<pdfrwt beam="2">  1       -2 0.97304497E-01 0.11275364E+04</pdfrwt>
<totfact> 0.13232783E+00</totfact>
</mgrwt>
</event>
<event>
 4    1  0.1033139E-008  0.1052182E+04  0.7818608E-02  0.9253094E-01
          2   -1    0    0  501    0  0.00000000000E+00  0.00000000000E+00  0.11773249825E+04  0.11773249825E+04  0.25500000000E-02 0. -1.
         -2   -1    0    0    0  501 -0.00000000000E+00 -0.00000000000E+00 -0.20290183775E+04  0.20290183775E+04  0.25500000000E-02 0.  1.
    8880022    1    1    2    0    0 -0.10396714946E+04  0.52708357685E+02  0.74847394218E+03  0.12912396690E+04  0.15294330000E+03 0.  0.
    8880022    1    1    2    0    0  0.10396714946E+04 -0.52708357685E+02 -0.16001673372E+04  0.19151036911E+04  0.15294330000E+03 0.  0.
<mgrwt>
<rscale>  0 0.10521818E+04</rscale>
<asrwt>0</asrwt>
<pdfrwt beam="1">  1        2 0.18112692E+00 0.10521818E+04</pdfrwt>
<pdfrwt beam="2">  1       -2 0.31215667E+00 0.10521818E+04</pdfrwt>
<totfact> 0.52195378E-01</totfact>
</mgrwt>
</event>
<event>
 4    1  0.1033139E-008  0.4866168E+03  0.7818608E-02  0.1017332E+00
          2   -1    0    0  501    0  0.00000000000E+00  0.00000000000E+00  0.23095725921E+04  0.23095725921E+04  0.25500000000E-02 0. -1.
         -2   -1    0    0    0  501 -0.00000000000E+00 -0.00000000000E+00 -0.84460433089E+03  0.84460433090E+03  0.25500000000E-02 0.  1.
    8880022    1    1    2    0    0 -0.19015980141E+03 -0.42100303409E+03  0.22107538451E+04  0.22636758870E+04  0.15294330000E+03 0.  0.
    8880022    1    1    2    0    0  0.19015980141E+03  0.42100303409E+03 -0.74578558394E+03  0.89050103594E+03  0.15294330000E+03 0.  0.
<mgrwt>
<rscale>  0 0.48661685E+03</rscale>
<asrwt>0</asrwt>
<pdfrwt beam="1">  1        2 0.35531886E+00 0.48661685E+03</pdfrwt>
<pdfrwt beam="2">  1       -2 0.12993913E+00 0.48661685E+03</pdfrwt>
<totfact> 0.21682068E+00</totfact>
</mgrwt>
</event>
<event>
 4    1  0.1033139E-008  0.8130891E+03  0.7818608E-02  0.9541262E-01
          2   -1    0    0  501    0  0.00000000000E+00  0.00000000000E+00  0.97666126172E+03  0.97666126173E+03  0.25500000000E-02 0. -1.
         -2   -1    0    0    0  501 -0.00000000000E+00 -0.00000000000E+00 -0.78086344059E+03  0.78086344060E+03  0.25500000000E-02 0.  1.
    8880022    1    1    2    0    0 -0.69682347773E+03 -0.39007598413E+03 -0.22272714808E+03  0.84304286250E+03  0.15294330000E+03 0.  0.
    8880022    1    1    2    0    0  0.69682347773E+03  0.39007598413E+03  0.41852496920E+03  0.91448183982E+03  0.15294330000E+03 0.  0.
<mgrwt>
<rscale>  0 0.81308910E+03</rscale>
<asrwt>0</asrwt>
<pdfrwt beam="1">  1        2 0.15025558E+00 0.81308910E+03</pdfrwt>
<pdfrwt beam="2">  1       -2 0.12013284E+00 0.81308910E+03</pdfrwt>
<totfact> 0.13946196E+01</totfact>
</mgrwt>
</event>
<event>
 4    1  0.1033139E-008  0.1034459E+04  0.7818608E-02  0.9271538E-01
         -2   -1    0    0    0  501 -0.00000000000E+00  0.00000000000E+00  0.20928626420E+04  0.20928626420E+04  0.25500000000E-02 0.  1.
          2   -1    0    0  501    0  0.00000000000E+00 -0.00000000000E+00 -0.95001709289E+03  0.95001709289E+03  0.25500000000E-02 0. -1.
    8880022    1    1    2    0    0  0.74017854365E+03 -0.70629291119E+03  0.16053154595E+04  0.19097495465E+04  0.15294330000E+03 0.  0.
    8880022    1    1    2    0    0 -0.74017854365E+03  0.70629291119E+03 -0.46246991036E+03  0.11331301884E+04  0.15294330000E+03 0.  0.
<mgrwt>
<rscale>  0 0.10344591E+04</rscale>
<asrwt>0</asrwt>
<pdfrwt beam="1">  1        2 0.14615648E+00 0.10344591E+04</pdfrwt>
<pdfrwt beam="2">  1       -2 0.32197886E+00 0.10344591E+04</pdfrwt>
<totfact> 0.63343811E-01</totfact>
</mgrwt>
</event>
<event>
 4    1  0.1033139E-008  0.1486938E+04  0.7818608E-02  0.8893186E-01
          2   -1    0    0  501    0  0.00000000000E+00  0.00000000000E+00  0.27062221177E+04  0.27062221177E+04  0.25500000000E-02 0. -1.
         -2   -1    0    0    0  501 -0.00000000000E+00 -0.00000000000E+00 -0.10190998056E+04  0.10190998056E+04  0.25500000000E-02 0.  1.
    8880022    1    1    2    0    0  0.97642468904E+03 -0.11109404792E+04  0.16730443008E+04  0.22383169586E+04  0.15294330000E+03 0.  0.
    8880022    1    1    2    0    0 -0.97642468904E+03  0.11109404792E+04  0.14078011306E+02  0.14870049647E+04  0.15294330000E+03 0.  0.
<mgrwt>
<rscale>  0 0.14869383E+04</rscale>
<asrwt>0</asrwt>
<pdfrwt beam="1">  1        2 0.41634186E+00 0.14869383E+04</pdfrwt>
<pdfrwt beam="2">  1       -2 0.15678459E+00 0.14869383E+04</pdfrwt>
<totfact> 0.66309725E-01</totfact>
</mgrwt>
</event>
<event>
 4    1  0.1033139E-008  0.6066405E+03  0.7818608E-02  0.9891724E-01
          2   -1    0    0  501    0  0.00000000000E+00  0.00000000000E+00  0.24230163309E+04  0.24230163309E+04  0.25500000000E-02 0. -1.
         -2   -1    0    0    0  501 -0.00000000000E+00 -0.00000000000E+00 -0.36789332137E+03  0.36789332138E+03  0.25500000000E-02 0.  1.
    8880022    1    1    2    0    0  0.34991284692E+03 -0.47136191773E+03  0.20968454025E+04  0.21828360802E+04  0.15294330000E+03 0.  0.
    8880022    1    1    2    0    0 -0.34991284692E+03  0.47136191773E+03 -0.41722393027E+02  0.60807357205E+03  0.15294330000E+03 0.  0.
<mgrwt>
<rscale>  0 0.60664051E+03</rscale>
<asrwt>0</asrwt>
<pdfrwt beam="1">  1        2 0.37277173E+00 0.60664051E+03</pdfrwt>
<pdfrwt beam="2">  1       -2 0.56598974E-01 0.60664051E+03</pdfrwt>
<totfact> 0.12119626E+01</totfact>
</mgrwt>
</event>
<event>
 4    1  0.1033139E-008  0.1533393E+04  0.7818608E-02  0.8862546E-01
         -2   -1    0    0    0  501 -0.00000000000E+00  0.00000000000E+00  0.25077241418E+04  0.25077241418E+04  0.25500000000E-02 0.  1.
          2   -1    0    0  501    0  0.00000000000E+00 -0.00000000000E+00 -0.10680437334E+04  0.10680437334E+04  0.25500000000E-02 0. -1.
    8880022    1    1    2    0    0  0.59113772769E+03 -0.14065763733E+04  0.13446142103E+04  0.20394312772E+04  0.15294330000E+03 0.  0.
    8880022    1    1    2    0    0 -0.59113772769E+03  0.14065763733E+04  0.95066198095E+02  0.15363365979E+04  0.15294330000E+03 0.  0.
<mgrwt>
<rscale>  0 0.15333925E+04</rscale>
<asrwt>0</asrwt>
<pdfrwt beam="1">  1        2 0.16431442E+00 0.15333925E+04</pdfrwt>
<pdfrwt beam="2">  1       -2 0.38580371E+00 0.15333925E+04</pdfrwt>
<totfact> 0.19792497E-01</totfact>
</mgrwt>
</event>
<event>
 4    1  0.1033139E-008  0.6118651E+03  0.7818608E-02  0.9881091E-01
          2   -1    0    0  501    0  0.00000000000E+00  0.00000000000E+00  0.24378317965E+04  0.24378317965E+04  0.25500000000E-02 0. -1.
         -2   -1    0    0    0  501 -0.00000000000E+00 -0.00000000000E+00 -0.30726481140E+03  0.30726481141E+03  0.25500000000E-02 0.  1.
    8880022    1    1    2    0    0 -0.35328716573E+03 -0.47557910393E+03  0.20360173395E+04  0.21259693237E+04  0.15294330000E+03 0.  0.
    8880022    1    1    2    0    0  0.35328716573E+03  0.47557910393E+03  0.94549645605E+02  0.61912728421E+03  0.15294330000E+03 0.  1.
<mgrwt>
<rscale>  0 0.61186515E+03</rscale>
<asrwt>0</asrwt>
<pdfrwt beam="1">  1        2 0.37505106E+00 0.61186515E+03</pdfrwt>
<pdfrwt beam="2">  1       -2 0.47271507E-01 0.61186515E+03</pdfrwt>
<totfact> 0.17162287E+01</totfact>
</mgrwt>
</event>
<event>
 4    1  0.1033139E-008  0.6371940E+03  0.7818608E-02  0.9831110E-01
         -2   -1    0    0    0  501 -0.00000000000E+00  0.00000000000E+00  0.16046432002E+03  0.16046432004E+03  0.25500000000E-02 0.  1.
          2   -1    0    0  501    0  0.00000000000E+00 -0.00000000000E+00 -0.38535471576E+04  0.38535471576E+04  0.25500000000E-02 0. -1.
    8880022    1    1    2    0    0 -0.58131731631E+03  0.21141113771E+03 -0.67043766238E+03  0.92493394550E+03  0.15294330000E+03 0.  0.
    8880022    1    1    2    0    0  0.58131731631E+03 -0.21141113771E+03 -0.30226451752E+04  0.30890775321E+04  0.15294330000E+03 0.  0.
<mgrwt>
<rscale>  0 0.63719396E+03</rscale>
<asrwt>0</asrwt>
<pdfrwt beam="1">  1        2 0.59285334E+00 0.63719396E+03</pdfrwt>
<pdfrwt beam="2">  1       -2 0.24686821E-01 0.63719396E+03</pdfrwt>
<totfact> 0.73655804E+00</totfact>
</mgrwt>
</event>
<event>
 4    1  0.1033139E-008  0.1149237E+04  0.7818608E-02  0.9158488E-01
          2   -1    0    0  501    0  0.00000000000E+00  0.00000000000E+00  0.16904262324E+04  0.16904262324E+04  0.25500000000E-02 0. -1.
         -2   -1    0    0    0  501 -0.00000000000E+00 -0.00000000000E+00 -0.12009619645E+04  0.12009619645E+04  0.25500000000E-02 0.  1.
    8880022    1    1    2    0    0 -0.30363316542E+03  0.10977982351E+04 -0.60985584584E+03  0.13010264678E+04  0.15294330000E+03 0.  0.
    8880022    1    1    2    0    0  0.30363316542E+03 -0.10977982351E+04  0.10993201136E+04  0.15903617291E+04  0.15294330000E+03 0.  0.
<mgrwt>
<rscale>  0 0.11492370E+04</rscale>
<asrwt>0</asrwt>
<pdfrwt beam="1">  1        2 0.26006557E+00 0.11492370E+04</pdfrwt>
<pdfrwt beam="2">  1       -2 0.18476338E+00 0.11492370E+04</pdfrwt>
<totfact> 0.16296079E+00</totfact>
</mgrwt>
</event>
<event>
 4    1  0.1033139E-008  0.8257551E+03  0.7818608E-02  0.9523468E-01
          2   -1    0    0  501    0  0.00000000000E+00  0.00000000000E+00  0.17889669042E+04  0.17889669042E+04  0.25500000000E-02 0. -1.
         -2   -1    0    0    0  501 -0.00000000000E+00 -0.00000000000E+00 -0.83090409912E+03  0.83090409912E+03  0.25500000000E-02 0.  1.
    8880022    1    1    2    0    0  0.79885713538E+03 -0.14250281565E+03  0.14427721478E+04  0.16623666559E+04  0.15294330000E+03 0.  0.
    8880022    1    1    2    0    0 -0.79885713538E+03  0.14250281565E+03 -0.48470934277E+03  0.95750434736E+03  0.15294330000E+03 0.  0.
<mgrwt>
<rscale>  0 0.82575507E+03</rscale>
<asrwt>0</asrwt>
<pdfrwt beam="1">  1        2 0.27522567E+00 0.82575507E+03</pdfrwt>
<pdfrwt beam="2">  1       -2 0.12783140E+00 0.82575507E+03</pdfrwt>
<totfact> 0.40433366E+00</totfact>
</mgrwt>
</event>
<event>
 4    1  0.1033139E-008  0.7538065E+03  0.7818608E-02  0.9629397E-01
          2   -1    0    0  501    0  0.00000000000E+00  0.00000000000E+00  0.17497561426E+04  0.17497561426E+04  0.25500000000E-02 0. -1.
         -2   -1    0    0    0  501 -0.00000000000E+00 -0.00000000000E+00 -0.12586101992E+04  0.12586101992E+04  0.25500000000E-02 0.  1.
    8880022    1    1    2    0    0 -0.73789152446E+03  0.18672338838E+02  0.15412514468E+04  0.17157156622E+04  0.15294330000E+03 0.  0.
    8880022    1    1    2    0    0  0.73789152446E+03 -0.18672338838E+02 -0.10501055034E+04  0.12926506796E+04  0.15294330000E+03 0.  0.
<mgrwt>
<rscale>  0 0.75380648E+03</rscale>
<asrwt>0</asrwt>
<pdfrwt beam="1">  1        2 0.26919325E+00 0.75380648E+03</pdfrwt>
<pdfrwt beam="2">  1       -2 0.19363234E+00 0.75380648E+03</pdfrwt>
<totfact> 0.13971045E+00</totfact>
</mgrwt>
</event>
<event>
 4    1  0.1033139E-008  0.3297393E+03  0.7818608E-02  0.1071252E+00
         -2   -1    0    0    0  501 -0.00000000000E+00  0.00000000000E+00  0.56948060300E+02  0.56948060357E+02  0.25500000000E-02 0.  1.
          2   -1    0    0  501    0  0.00000000000E+00 -0.00000000000E+00 -0.26780072578E+04  0.26780072578E+04  0.25500000000E-02 0. -1.
    8880022    1    1    2    0    0 -0.18640946889E+03  0.22491749851E+03 -0.20432010624E+04  0.20696373126E+04  0.15294330000E+03 0.  0.
    8880022    1    1    2    0    0  0.18640946889E+03 -0.22491749851E+03 -0.57785813510E+03  0.66531800557E+03  0.15294330000E+03 0.  0.
<mgrwt>
<rscale>  0 0.32973933E+03</rscale>
<asrwt>0</asrwt>
<pdfrwt beam="1">  1        2 0.41200102E+00 0.32973933E+03</pdfrwt>
<pdfrwt beam="2">  1       -2 0.87612421E-02 0.32973933E+03</pdfrwt>
<totfact> 0.25833301E+02</totfact>
</mgrwt>
</event>
<event>
 4    1  0.1033139E-008  0.3133009E+03  0.7818608E-02  0.1078774E+00
          2   -1    0    0  501    0  0.00000000000E+00  0.00000000000E+00  0.31449357717E+04  0.31449357717E+04  0.25500000000E-02 0. -1.
         -2   -1    0    0    0  501 -0.00000000000E+00 -0.00000000000E+00 -0.35709123035E+02  0.35709123126E+02  0.25500000000E-02 0.  1.
    8880022    1    1    2    0    0 -0.26842548071E+03 -0.52091701032E+02  0.99019868811E+03  0.10385811855E+04  0.15294330000E+03 0.  1.
    8880022    1    1    2    0    0  0.26842548071E+03  0.52091701032E+02  0.21190279606E+04  0.21420637093E+04  0.15294330000E+03 0.  1.
<mgrwt>
<rscale>  0 0.31330087E+03</rscale>
<asrwt>0</asrwt>
<pdfrwt beam="1">  1        2 0.48383640E+00 0.31330087E+03</pdfrwt>
<pdfrwt beam="2">  1       -2 0.54937098E-02 0.31330087E+03</pdfrwt>
<totfact> 0.28578026E+02</totfact>
</mgrwt>
</event>
<event>
 4    1  0.1033139E-008  0.7324443E+03  0.7818608E-02  0.9663302E-01
          2   -1    0    0  501    0  0.00000000000E+00  0.00000000000E+00  0.50702056465E+03  0.50702056465E+03  0.25500000000E-02 0. -1.
         -2   -1    0    0    0  501 -0.00000000000E+00 -0.00000000000E+00 -0.42828031493E+04  0.42828031493E+04  0.25500000000E-02 0.  1.
    8880022    1    1    2    0    0  0.57313312628E+03  0.42965267271E+03 -0.39660124019E+04  0.40330793477E+04  0.15294330000E+03 0.  0.
    8880022    1    1    2    0    0 -0.57313312628E+03 -0.42965267271E+03  0.19022981719E+03  0.75674436633E+03  0.15294330000E+03 0.  0.
<mgrwt>
<rscale>  0 0.73244430E+03</rscale>
<asrwt>0</asrwt>
<pdfrwt beam="1">  1        2 0.78003167E-01 0.73244430E+03</pdfrwt>
<pdfrwt beam="2">  1       -2 0.65889277E+00 0.73244430E+03</pdfrwt>
<totfact> 0.19768457E-02</totfact>
</mgrwt>
</event>
<event>
 4    1  0.1033139E-008  0.5766492E+03  0.7818608E-02  0.9955072E-01
          2   -1    0    0  501    0  0.00000000000E+00  0.00000000000E+00  0.23187776618E+04  0.23187776618E+04  0.25500000000E-02 0. -1.
         -2   -1    0    0    0  501 -0.00000000000E+00 -0.00000000000E+00 -0.86269961921E+03  0.86269961921E+03  0.25500000000E-02 0.  1.
    8880022    1    1    2    0    0 -0.55588438912E+03  0.11187817428E+02 -0.72448203872E+03  0.92595815174E+03  0.15294330000E+03 0.  0.
    8880022    1    1    2    0    0  0.55588438912E+03 -0.11187817428E+02  0.21805600813E+04  0.22555191293E+04  0.15294330000E+03 0. -1.
<mgrwt>
<rscale>  0 0.57664918E+03</rscale>
<asrwt>0</asrwt>
<pdfrwt beam="1">  1        2 0.35673502E+00 0.57664918E+03</pdfrwt>
<pdfrwt beam="2">  1       -2 0.13272302E+00 0.57664918E+03</pdfrwt>
<totfact> 0.19811376E+00</totfact>
</mgrwt>
</event>
<event>
 4    1  0.1033139E-008  0.1979834E+03  0.7818608E-02  0.1151452E+00
         -2   -1    0    0    0  501 -0.00000000000E+00  0.00000000000E+00  0.36261587721E+03  0.36261587722E+03  0.25500000000E-02 0.  1.
          2   -1    0    0  501    0  0.00000000000E+00 -0.00000000000E+00 -0.40369038632E+03  0.40369038632E+03  0.25500000000E-02 0. -1.
    8880022    1    1    2    0    0  0.11031294849E+03  0.60306057687E+02  0.30732851427E+03  0.36557931547E+03  0.15294330000E+03 0.  0.
    8880022    1    1    2    0    0 -0.11031294849E+03 -0.60306057687E+02 -0.34840302338E+03  0.40072694807E+03  0.15294330000E+03 0.  0.
<mgrwt>
<rscale>  0 0.19798338E+03</rscale>
<asrwt>0</asrwt>
<pdfrwt beam="1">  1        2 0.62106213E-01 0.19798338E+03</pdfrwt>
<pdfrwt beam="2">  1       -2 0.55787058E-01 0.19798338E+03</pdfrwt>
<totfact> 0.24615278E+02</totfact>
</mgrwt>
</event>
<event>
 4    1  0.1033139E-008  0.3859069E+03  0.7818608E-02  0.1048772E+00
          2   -1    0    0  501    0  0.00000000000E+00  0.00000000000E+00  0.96726139479E+03  0.96726139480E+03  0.25500000000E-02 0. -1.
         -2   -1    0    0    0  501 -0.00000000000E+00 -0.00000000000E+00 -0.18472326875E+03  0.18472326877E+03  0.25500000000E-02 0.  1.
    8880022    1    1    2    0    0 -0.24152409288E+03  0.25922685585E+03  0.62630756665E+03  0.73565295574E+03  0.15294330000E+03 0.  0.
    8880022    1    1    2    0    0  0.24152409288E+03 -0.25922685585E+03  0.15623055940E+03  0.41633170782E+03  0.15294330000E+03 0.  1.
<mgrwt>
<rscale>  0 0.38590686E+03</rscale>
<asrwt>0</asrwt>
<pdfrwt beam="1">  1        2 0.14880945E+00 0.38590686E+03</pdfrwt>
<pdfrwt beam="2">  1       -2 0.28418964E-01 0.38590686E+03</pdfrwt>
<totfact> 0.30938720E+02</totfact>
</mgrwt>
</event>
<event>
 4    1  0.1033139E-008  0.9495718E+03  0.7818608E-02  0.9365651E-01
          2   -1    0    0  501    0  0.00000000000E+00  0.00000000000E+00  0.18852912081E+04  0.18852912081E+04  0.25500000000E-02 0. -1.
         -2   -1    0    0    0  501 -0.00000000000E+00 -0.00000000000E+00 -0.13296562865E+04  0.13296562865E+04  0.25500000000E-02 0.  1.
    8880022    1    1    2    0    0 -0.93537010169E+03  0.58118194267E+02  0.15641000320E+04  0.18297801821E+04  0.15294330000E+03 0.  0.
    8880022    1    1    2    0    0  0.93537010169E+03 -0.58118194267E+02 -0.10084651104E+04  0.13851673125E+04  0.15294330000E+03 0.  0.
<mgrwt>
<rscale>  0 0.94957180E+03</rscale>
<asrwt>0</asrwt>
<pdfrwt beam="1">  1        2 0.29004480E+00 0.94957180E+03</pdfrwt>
<pdfrwt beam="2">  1       -2 0.20456251E+00 0.94957180E+03</pdfrwt>
<totfact> 0.96582890E-01</totfact>
</mgrwt>
</event>
<event>
 4    1  0.1033139E-008  0.7335687E+03  0.7818608E-02  0.9661487E-01
         -2   -1    0    0    0  501 -0.00000000000E+00  0.00000000000E+00  0.10838854705E+04  0.10838854705E+04  0.25500000000E-02 0.  1.
          2   -1    0    0  501    0  0.00000000000E+00 -0.00000000000E+00 -0.12570740810E+04  0.12570740810E+04  0.25500000000E-02 0. -1.
    8880022    1    1    2    0    0 -0.65360670003E+03 -0.29585418326E+03 -0.99705479708E+03  0.12378373631E+04  0.15294330000E+03 0.  0.
    8880022    1    1    2    0    0  0.65360670003E+03  0.29585418326E+03  0.82386618665E+03  0.11031221884E+04  0.15294330000E+03 0.  0.
<mgrwt>
<rscale>  0 0.73356872E+03</rscale>
<asrwt>0</asrwt>
<pdfrwt beam="1">  1        2 0.19339601E+00 0.73356872E+03</pdfrwt>
<pdfrwt beam="2">  1       -2 0.16675161E+00 0.73356872E+03</pdfrwt>
<totfact> 0.40424941E+00</totfact>
</mgrwt>
</event>
<event>
 4    1  0.1033139E-008  0.1069419E+04  0.7818608E-02  0.9235521E-01
          2   -1    0    0  501    0  0.00000000000E+00  0.00000000000E+00  0.23768584280E+04  0.23768584280E+04  0.25500000000E-02 0. -1.
         -2   -1    0    0    0  501 -0.00000000000E+00 -0.00000000000E+00 -0.78574403151E+03  0.78574403151E+03  0.25500000000E-02 0.  1.
    8880022    1    1    2    0    0 -0.45680035993E+03 -0.95477704921E+03  0.17800785941E+04  0.20766167766E+04  0.15294330000E+03 0.  0.
    8880022    1    1    2    0    0  0.45680035993E+03  0.95477704921E+03 -0.18896419763E+03  0.10859856829E+04  0.15294330000E+03 0.  0.
<mgrwt>
<rscale>  0 0.10694192E+04</rscale>
<asrwt>0</asrwt>
<pdfrwt beam="1">  1        2 0.36567053E+00 0.10694192E+04</pdfrwt>
<pdfrwt beam="2">  1       -2 0.12088370E+00 0.10694192E+04</pdfrwt>
<totfact> 0.21269031E+00</totfact>
</mgrwt>
</event>
<event>
 4    1  0.1033139E-008  0.8499775E+03  0.7818608E-02  0.9490367E-01
          2   -1    0    0  501    0  0.00000000000E+00  0.00000000000E+00  0.19034782398E+04  0.19034782398E+04  0.25500000000E-02 0. -1.
         -2   -1    0    0    0  501 -0.00000000000E+00 -0.00000000000E+00 -0.49957929879E+03  0.49957929880E+03  0.25500000000E-02 0.  1.
    8880022    1    1    2    0    0 -0.30988833722E+03 -0.77655610510E+03  0.11299900083E+03  0.85745588407E+03  0.15294330000E+03 0.  0.
    8880022    1    1    2    0    0  0.30988833722E+03  0.77655610510E+03  0.12908999402E+04  0.15456016545E+04  0.15294330000E+03 0.  0.
<mgrwt>
<rscale>  0 0.84997754E+03</rscale>
<asrwt>0</asrwt>
<pdfrwt beam="1">  1        2 0.29284281E+00 0.84997754E+03</pdfrwt>
<pdfrwt beam="2">  1       -2 0.76858352E-01 0.84997754E+03</pdfrwt>
<totfact> 0.11647896E+01</totfact>
</mgrwt>
</event>
<event>
 4    1  0.1033139E-008  0.2439472E+03  0.7818608E-02  0.1117191E+00
          2   -1    0    0  501    0  0.00000000000E+00  0.00000000000E+00  0.22421482220E+04  0.22421482220E+04  0.25500000000E-02 0. -1.
         -2   -1    0    0    0  501 -0.00000000000E+00 -0.00000000000E+00 -0.40834628369E+02  0.40834628448E+02  0.25500000000E-02 0.  1.
    8880022    1    1    2    0    0 -0.16696879334E+03 -0.90774505005E+02  0.42532032634E+03  0.49031379924E+03  0.15294330000E+03 0.  0.
    8880022    1    1    2    0    0  0.16696879334E+03  0.90774505005E+02  0.17759932673E+04  0.17926690513E+04  0.15294330000E+03 0. -1.
<mgrwt>
<rscale>  0 0.24394721E+03</rscale>
<asrwt>0</asrwt>
<pdfrwt beam="1">  1        2 0.34494582E+00 0.24394721E+03</pdfrwt>
<pdfrwt beam="2">  1       -2 0.62822516E-02 0.24394721E+03</pdfrwt>
<totfact> 0.76590378E+02</totfact>
</mgrwt>
</event>
<event>
 4    1  0.1033139E-008  0.7707629E+03  0.7818608E-02  0.9603328E-01
          2   -1    0    0  501    0  0.00000000000E+00  0.00000000000E+00  0.33223718432E+04  0.33223718432E+04  0.25500000000E-02 0. -1.
         -2   -1    0    0    0  501 -0.00000000000E+00 -0.00000000000E+00 -0.74229033661E+03  0.74229033662E+03  0.25500000000E-02 0.  1.
    8880022    1    1    2    0    0  0.30975803680E+03 -0.68900923920E+03 -0.48066620797E+03  0.90835864589E+03  0.15294330000E+03 0.  0.
    8880022    1    1    2    0    0 -0.30975803680E+03  0.68900923920E+03  0.30607477146E+04  0.31563035340E+04  0.15294330000E+03 0.  0.
<mgrwt>
<rscale>  0 0.77076289E+03</rscale>
<asrwt>0</asrwt>
<pdfrwt beam="1">  1        2 0.51113413E+00 0.77076289E+03</pdfrwt>
<pdfrwt beam="2">  1       -2 0.11419851E+00 0.77076289E+03</pdfrwt>
<totfact> 0.69447400E-01</totfact>
</mgrwt>
</event>
<event>
 4    1  0.1033139E-008  0.1040950E+04  0.7818608E-02  0.9264738E-01
         -2   -1    0    0    0  501 -0.00000000000E+00  0.00000000000E+00  0.96015519027E+03  0.96015519027E+03  0.25500000000E-02 0.  1.
          2   -1    0    0  501    0  0.00000000000E+00 -0.00000000000E+00 -0.11439542820E+04  0.11439542820E+04  0.25500000000E-02 0. -1.
    8880022    1    1    2    0    0 -0.10001965940E+04 -0.24452363444E+03 -0.21400904302E+03  0.10627212984E+04  0.15294330000E+03 0.  0.
    8880022    1    1    2    0    0  0.10001965940E+04  0.24452363444E+03  0.30209951276E+02  0.10413881739E+04  0.15294330000E+03 0.  0.
<mgrwt>
<rscale>  0 0.10409499E+04</rscale>
<asrwt>0</asrwt>
<pdfrwt beam="1">  1        2 0.17599297E+00 0.10409499E+04</pdfrwt>
<pdfrwt beam="2">  1       -2 0.14771618E+00 0.10409499E+04</pdfrwt>
<totfact> 0.63083550E+00</totfact>
</mgrwt>
</event>
<event>
 4    1  0.1033139E-008  0.4260581E+03  0.7818608E-02  0.1035112E+00
          2   -1    0    0  501    0  0.00000000000E+00  0.00000000000E+00  0.20247082044E+04  0.20247082044E+04  0.25500000000E-02 0. -1.
         -2   -1    0    0    0  501 -0.00000000000E+00 -0.00000000000E+00 -0.10781655619E+03  0.10781655622E+03  0.25500000000E-02 0.  1.
    8880022    1    1    2    0    0  0.34219122339E+03  0.20258093348E+03  0.52082691826E+03  0.67289389934E+03  0.15294330000E+03 0.  0.
    8880022    1    1    2    0    0 -0.34219122339E+03 -0.20258093348E+03  0.13960647299E+04  0.14596308612E+04  0.15294330000E+03 0.  0.
<mgrwt>
<rscale>  0 0.42605812E+03</rscale>
<asrwt>0</asrwt>
<pdfrwt beam="1">  1        2 0.31149354E+00 0.42605812E+03</pdfrwt>
<pdfrwt beam="2">  1       -2 0.16587164E-01 0.42605812E+03</pdfrwt>
<totfact> 0.20338877E+02</totfact>
</mgrwt>
</event>
<event>
 4    1  0.1033139E-008  0.3252165E+03  0.7818608E-02  0.1073273E+00
          2   -1    0    0  501    0  0.00000000000E+00  0.00000000000E+00  0.90422756141E+03  0.90422756141E+03  0.25500000000E-02 0. -1.
         -2   -1    0    0    0  501 -0.00000000000E+00 -0.00000000000E+00 -0.53719323054E+03  0.53719323055E+03  0.25500000000E-02 0.  1.
    8880022    1    1    2    0    0  0.24635707642E+03  0.14724912578E+03  0.82095309422E+03  0.88302307448E+03  0.15294330000E+03 0.  0.
    8880022    1    1    2    0    0 -0.24635707642E+03 -0.14724912578E+03 -0.45391876335E+03  0.55839771748E+03  0.15294330000E+03 0.  1.
<mgrwt>
<rscale>  0 0.32521649E+03</rscale>
<asrwt>0</asrwt>
<pdfrwt beam="1">  1        2 0.13911193E+00 0.32521649E+03</pdfrwt>
<pdfrwt beam="2">  1       -2 0.82645113E-01 0.32521649E+03</pdfrwt>
<totfact> 0.40128519E+01</totfact>
</mgrwt>
</event>
<event>
 4    1  0.1033139E-008  0.1129392E+04  0.7818608E-02  0.9177009E-01
         -2   -1    0    0    0  501 -0.00000000000E+00  0.00000000000E+00  0.45110622448E+03  0.45110622448E+03  0.25500000000E-02 0.  1.
          2   -1    0    0  501    0  0.00000000000E+00 -0.00000000000E+00 -0.45744120169E+04  0.45744120169E+04  0.25500000000E-02 0. -1.
    8880022    1    1    2    0    0  0.52928481196E+03  0.98589632418E+03 -0.36144419406E+04  0.37867817694E+04  0.15294330000E+03 0.  0.
    8880022    1    1    2    0    0 -0.52928481196E+03 -0.98589632418E+03 -0.50886385177E+03  0.12387364719E+04  0.15294330000E+03 0.  0.
<mgrwt>
<rscale>  0 0.11293917E+04</rscale>
<asrwt>0</asrwt>
<pdfrwt beam="1">  1        2 0.70375566E+00 0.11293917E+04</pdfrwt>
<pdfrwt beam="2">  1       -2 0.69400961E-01 0.11293917E+04</pdfrwt>
<totfact> 0.20660295E-01</totfact>
</mgrwt>
</event>
<event>
 4    1  0.1033139E-008  0.4469788E+03  0.7818608E-02  0.1028627E+00
         -2   -1    0    0    0  501 -0.00000000000E+00  0.00000000000E+00  0.67711855589E+03  0.67711855590E+03  0.25500000000E-02 0.  1.
          2   -1    0    0  501    0  0.00000000000E+00 -0.00000000000E+00 -0.55229286952E+03  0.55229286953E+03  0.25500000000E-02 0. -1.
    8880022    1    1    2    0    0  0.31808739060E+03  0.27426044123E+03 -0.35710117112E+03  0.57211124540E+03  0.15294330000E+03 0.  0.
    8880022    1    1    2    0    0 -0.31808739060E+03 -0.27426044123E+03  0.48192685749E+03  0.65730018003E+03  0.15294330000E+03 0.  0.
<mgrwt>
<rscale>  0 0.44697878E+03</rscale>
<asrwt>0</asrwt>
<pdfrwt beam="1">  1        2 0.84968134E-01 0.44697878E+03</pdfrwt>
<pdfrwt beam="2">  1       -2 0.10417209E+00 0.44697878E+03</pdfrwt>
<totfact> 0.42719662E+01</totfact>
</mgrwt>
</event>
<event>
 4    1  0.1033139E-008  0.3622135E+03  0.7818608E-02  0.1057711E+00
         -2   -1    0    0    0  501 -0.00000000000E+00  0.00000000000E+00  0.15066497615E+03  0.15066497617E+03  0.25500000000E-02 0.  1.
          2   -1    0    0  501    0  0.00000000000E+00 -0.00000000000E+00 -0.10361951918E+04  0.10361951918E+04  0.25500000000E-02 0. -1.
    8880022    1    1    2    0    0  0.24704022119E+03 -0.21628244400E+03 -0.67985555851E+03  0.77032603482E+03  0.15294330000E+03 0.  0.
    8880022    1    1    2    0    0 -0.24704022119E+03  0.21628244400E+03 -0.20567465711E+03  0.41653413312E+03  0.15294330000E+03 0.  0.
<mgrwt>
<rscale>  0 0.36221350E+03</rscale>
<asrwt>0</asrwt>
<pdfrwt beam="1">  1        2 0.15941464E+00 0.36221350E+03</pdfrwt>
<pdfrwt beam="2">  1       -2 0.23179228E-01 0.36221350E+03</pdfrwt>
<totfact> 0.40450083E+02</totfact>
</mgrwt>
</event>
<event>
 4    1  0.1033139E-008  0.8858930E+03  0.7818608E-02  0.9443390E-01
          2   -1    0    0  501    0  0.00000000000E+00  0.00000000000E+00  0.11880214627E+04  0.11880214627E+04  0.25500000000E-02 0. -1.
         -2   -1    0    0    0  501 -0.00000000000E+00 -0.00000000000E+00 -0.70597686737E+03  0.70597686737E+03  0.25500000000E-02 0.  1.
    8880022    1    1    2    0    0 -0.32912057171E+03  0.80814260044E+03  0.48111208011E+03  0.10081048061E+04  0.15294330000E+03 0.  0.
    8880022    1    1    2    0    0  0.32912057171E+03 -0.80814260044E+03  0.93251526935E+00  0.88589352406E+03  0.15294330000E+03 0.  0.
<mgrwt>
<rscale>  0 0.88589303E+03</rscale>
<asrwt>0</asrwt>
<pdfrwt beam="1">  1        2 0.18277253E+00 0.88589303E+03</pdfrwt>
<pdfrwt beam="2">  1       -2 0.10861183E+00 0.88589303E+03</pdfrwt>
<totfact> 0.13102494E+01</totfact>
</mgrwt>
</event>
<event>
 4    1  0.1033139E-008  0.1229216E+04  0.7818608E-02  0.9087661E-01
         -2   -1    0    0    0  501 -0.00000000000E+00  0.00000000000E+00  0.99328674482E+03  0.99328674482E+03  0.25500000000E-02 0.  1.
          2   -1    0    0  501    0  0.00000000000E+00 -0.00000000000E+00 -0.33153556982E+04  0.33153556982E+04  0.25500000000E-02 0. -1.
    8880022    1    1    2    0    0 -0.38441593465E+03  0.11574992262E+04 -0.27458452600E+04  0.30084278144E+04  0.15294330000E+03 0.  0.
    8880022    1    1    2    0    0  0.38441593465E+03 -0.11574992262E+04  0.42377630665E+03  0.13002146286E+04  0.15294330000E+03 0.  0.
<mgrwt>
<rscale>  0 0.12292159E+04</rscale>
<asrwt>0</asrwt>
<pdfrwt beam="1">  1        2 0.51005472E+00 0.12292159E+04</pdfrwt>
<pdfrwt beam="2">  1       -2 0.15281335E+00 0.12292159E+04</pdfrwt>
<totfact> 0.30589595E-01</totfact>
</mgrwt>
</event>
<event>
 4    1  0.1033139E-008  0.7260081E+03  0.7818608E-02  0.9673760E-01
         -2   -1    0    0    0  501 -0.00000000000E+00  0.00000000000E+00  0.36173299401E+03  0.36173299402E+03  0.25500000000E-02 0.  1.
          2   -1    0    0  501    0  0.00000000000E+00 -0.00000000000E+00 -0.47204858443E+04  0.47204858443E+04  0.25500000000E-02 0. -1.
    8880022    1    1    2    0    0  0.59395658007E+03  0.38847359780E+03 -0.66553973127E+02  0.72905228863E+03  0.15294330000E+03 0.  0.
    8880022    1    1    2    0    0 -0.59395658007E+03 -0.38847359780E+03 -0.42921988772E+04  0.43531665497E+04  0.15294330000E+03 0.  0.
<mgrwt>
<rscale>  0 0.72600813E+03</rscale>
<asrwt>0</asrwt>
<pdfrwt beam="1">  1        2 0.72622855E+00 0.72600813E+03</pdfrwt>
<pdfrwt beam="2">  1       -2 0.55651233E-01 0.72600813E+03</pdfrwt>
<totfact> 0.25829416E-01</totfact>
</mgrwt>
</event>
<event>
 4    1  0.1033139E-008  0.7831650E+03  0.7818608E-02  0.9584710E-01
         -2   -1    0    0    0  501 -0.00000000000E+00  0.00000000000E+00  0.57483215502E+03  0.57483215502E+03  0.25500000000E-02 0.  1.
          2   -1    0    0  501    0  0.00000000000E+00 -0.00000000000E+00 -0.10928015001E+04  0.10928015001E+04  0.25500000000E-02 0. -1.
    8880022    1    1    2    0    0  0.33736557232E+03  0.69002914821E+03 -0.38709984158E+03  0.87360957820E+03  0.15294330000E+03 0.  0.
    8880022    1    1    2    0    0 -0.33736557232E+03 -0.69002914821E+03 -0.13086950350E+03  0.79402407691E+03  0.15294330000E+03 0.  0.
<mgrwt>
<rscale>  0 0.78316499E+03</rscale>
<asrwt>0</asrwt>
<pdfrwt beam="1">  1        2 0.16812331E+00 0.78316499E+03</pdfrwt>
<pdfrwt beam="2">  1       -2 0.88435717E-01 0.78316499E+03</pdfrwt>
<totfact> 0.24560513E+01</totfact>
</mgrwt>
</event>
<event>
 4    1  0.1033139E-008  0.2203629E+04  0.7818608E-02  0.8516919E-01
          2   -1    0    0  501    0  0.00000000000E+00  0.00000000000E+00  0.33355051866E+04  0.33355051866E+04  0.25500000000E-02 0. -1.
         -2   -1    0    0    0  501 -0.00000000000E+00 -0.00000000000E+00 -0.17260234478E+04  0.17260234478E+04  0.25500000000E-02 0.  1.
    8880022    1    1    2    0    0  0.21940013740E+04  0.13765258361E+03  0.18060147714E+04  0.28491527285E+04  0.15294330000E+03 0.  0.
    8880022    1    1    2    0    0 -0.21940013740E+04 -0.13765258361E+03 -0.19653303261E+03  0.22123759059E+04  0.15294330000E+03 0.  0.
<mgrwt>
<rscale>  0 0.22036293E+04</rscale>
<asrwt>0</asrwt>
<pdfrwt beam="1">  1        2 0.51315464E+00 0.22036293E+04</pdfrwt>
<pdfrwt beam="2">  1       -2 0.26554207E+00 0.22036293E+04</pdfrwt>
<totfact> 0.47252549E-02</totfact>
</mgrwt>
</event>
<event>
 4    1  0.1033139E-008  0.5354395E+03  0.7818608E-02  0.1004921E+00
         -2   -1    0    0    0  501 -0.00000000000E+00  0.00000000000E+00  0.81179210969E+03  0.81179210970E+03  0.25500000000E-02 0.  1.
          2   -1    0    0  501    0  0.00000000000E+00 -0.00000000000E+00 -0.18705297211E+04  0.18705297211E+04  0.25500000000E-02 0. -1.
    8880022    1    1    2    0    0  0.18404066435E+03  0.47899152150E+03  0.67856673822E+03  0.86437741469E+03  0.15294330000E+03 0.  0.
    8880022    1    1    2    0    0 -0.18404066435E+03 -0.47899152150E+03 -0.17373043496E+04  0.18179444161E+04  0.15294330000E+03 0.  0.
<mgrwt>
<rscale>  0 0.53543954E+03</rscale>
<asrwt>0</asrwt>
<pdfrwt beam="1">  1        2 0.28777380E+00 0.53543954E+03</pdfrwt>
<pdfrwt beam="2">  1       -2 0.12489109E+00 0.53543954E+03</pdfrwt>
<totfact> 0.40855769E+00</totfact>
</mgrwt>
</event>
<event>
 4    1  0.1033139E-008  0.2565677E+03  0.7818608E-02  0.1109223E+00
          2   -1    0    0  501    0  0.00000000000E+00  0.00000000000E+00  0.15629308339E+04  0.15629308339E+04  0.25500000000E-02 0. -1.
         -2   -1    0    0    0  501 -0.00000000000E+00 -0.00000000000E+00 -0.16949878018E+04  0.16949878018E+04  0.25500000000E-02 0.  1.
    8880022    1    1    2    0    0 -0.17438123487E+03  0.10966550924E+03 -0.16746220107E+04  0.16941622917E+04  0.15294330000E+03 0.  0.
    8880022    1    1    2    0    0  0.17438123487E+03 -0.10966550924E+03  0.15425650428E+04  0.15637563439E+04  0.15294330000E+03 0.  0.
<mgrwt>
<rscale>  0 0.25656771E+03</rscale>
<asrwt>0</asrwt>
<pdfrwt beam="1">  1        2 0.24045090E+00 0.25656771E+03</pdfrwt>
<pdfrwt beam="2">  1       -2 0.26076735E+00 0.25656771E+03</pdfrwt>
<totfact> 0.80490684E-01</totfact>
</mgrwt>
</event>
<event>
 4    1  0.1033139E-008  0.6693091E+03  0.7818608E-02  0.9771207E-01
          2   -1    0    0  501    0  0.00000000000E+00  0.00000000000E+00  0.28083795372E+04  0.28083795372E+04  0.25500000000E-02 0. -1.
         -2   -1    0    0    0  501 -0.00000000000E+00 -0.00000000000E+00 -0.18674845527E+03  0.18674845529E+03  0.25500000000E-02 0.  1.
    8880022    1    1    2    0    0 -0.64859572006E+03 -0.62502363326E+02  0.73891597325E+03  0.99698115431E+03  0.15294330000E+03 0.  0.
    8880022    1    1    2    0    0  0.64859572006E+03  0.62502363326E+02  0.18827151087E+04  0.19981468382E+04  0.15294330000E+03 0.  0.
<mgrwt>
<rscale>  0 0.66930905E+03</rscale>
<asrwt>0</asrwt>
<pdfrwt beam="1">  1        2 0.43205838E+00 0.66930905E+03</pdfrwt>
<pdfrwt beam="2">  1       -2 0.28730532E-01 0.66930905E+03</pdfrwt>
<totfact> 0.27071220E+01</totfact>
</mgrwt>
</event>
<event>
 4    1  0.1138147E-008  0.9518381E+03  0.7818608E-02  0.9363005E-01
          2   -1    0    0  501    0  0.00000000000E+00  0.00000000000E+00  0.13009528898E+04  0.13009528898E+04  0.25500000000E-02 0. -1.
         -2   -1    0    0    0  501 -0.00000000000E+00 -0.00000000000E+00 -0.31991648456E+04  0.31991648456E+04  0.25500000000E-02 0.  1.
    8880022    1    1    2    0    0 -0.22180058443E+03  0.91291218512E+03  0.10410392952E+04  0.14105880420E+04  0.15294330000E+03 0.  0.
    8880022    1    1    2    0    0  0.22180058443E+03 -0.91291218512E+03 -0.29392512510E+04  0.30895296934E+04  0.15294330000E+03 0.  0.
<mgrwt>
<rscale>  0 0.95183812E+03</rscale>
<asrwt>0</asrwt>
<pdfrwt beam="1">  1        2 0.20014660E+00 0.95183812E+03</pdfrwt>
<pdfrwt beam="2">  1       -2 0.49217920E+00 0.95183812E+03</pdfrwt>
<totfact> 0.31140548E-02</totfact>
</mgrwt>
</event>
<event>
 4    1  0.1033139E-008  0.6460987E+03  0.7818608E-02  0.9814127E-01
          2   -1    0    0  501    0  0.00000000000E+00  0.00000000000E+00  0.12902775827E+04  0.12902775827E+04  0.25500000000E-02 0. -1.
         -2   -1    0    0    0  501 -0.00000000000E+00 -0.00000000000E+00 -0.51951180306E+03  0.51951180307E+03  0.25500000000E-02 0.  1.
    8880022    1    1    2    0    0 -0.25461750152E+03  0.57377856314E+03  0.94116959778E+03  0.11415970289E+04  0.15294330000E+03 0.  0.
    8880022    1    1    2    0    0  0.25461750152E+03 -0.57377856314E+03 -0.17040381810E+03  0.66819235691E+03  0.15294330000E+03 0.  0.
<mgrwt>
<rscale>  0 0.64609873E+03</rscale>
<asrwt>0</asrwt>
<pdfrwt beam="1">  1        2 0.19850424E+00 0.64609873E+03</pdfrwt>
<pdfrwt beam="2">  1       -2 0.79924893E-01 0.64609873E+03</pdfrwt>
<totfact> 0.23970340E+01</totfact>
</mgrwt>
</event>
<event>
 4    1  0.1033139E-008  0.4577881E+03  0.7818608E-02  0.1025425E+00
         -2   -1    0    0    0  501 -0.00000000000E+00  0.00000000000E+00  0.94497631322E+03  0.94497631322E+03  0.25500000000E-02 0.  1.
          2   -1    0    0  501    0  0.00000000000E+00 -0.00000000000E+00 -0.19196051797E+04  0.19196051797E+04  0.25500000000E-02 0. -1.
    8880022    1    1    2    0    0  0.39658031396E+03  0.17000695496E+03 -0.18343300979E+04  0.18905916723E+04  0.15294330000E+03 0.  0.
    8880022    1    1    2    0    0 -0.39658031396E+03 -0.17000695496E+03  0.85970123149E+03  0.97398982058E+03  0.15294330000E+03 0.  0.
<mgrwt>
<rscale>  0 0.45778812E+03</rscale>
<asrwt>0</asrwt>
<pdfrwt beam="1">  1        2 0.29532387E+00 0.45778812E+03</pdfrwt>
<pdfrwt beam="2">  1       -2 0.14538097E+00 0.45778812E+03</pdfrwt>
<totfact> 0.26686254E+00</totfact>
</mgrwt>
</event>
<event>
 4    1  0.1033139E-008  0.5252988E+03  0.7818608E-02  0.1007379E+00
          2   -1    0    0  501    0  0.00000000000E+00  0.00000000000E+00  0.19156718529E+04  0.19156718529E+04  0.25500000000E-02 0. -1.
         -2   -1    0    0    0  501 -0.00000000000E+00 -0.00000000000E+00 -0.16916503852E+04  0.16916503852E+04  0.25500000000E-02 0.  1.
    8880022    1    1    2    0    0 -0.50252147222E+03  0.44019370397E+01  0.18371734086E+04  0.19107969525E+04  0.15294330000E+03 0.  0.
    8880022    1    1    2    0    0  0.50252147222E+03 -0.44019370397E+01 -0.16131519410E+04  0.16965252857E+04  0.15294330000E+03 0.  0.
<mgrwt>
<rscale>  0 0.52529883E+03</rscale>
<asrwt>0</asrwt>
<pdfrwt beam="1">  1        2 0.29471875E+00 0.52529883E+03</pdfrwt>
<pdfrwt beam="2">  1       -2 0.26025391E+00 0.52529883E+03</pdfrwt>
<totfact> 0.46419628E-01</totfact>
</mgrwt>
</event>
<event>
 4    1  0.1033139E-008  0.1174741E+04  0.7818608E-02  0.9135258E-01
         -2   -1    0    0    0  501 -0.00000000000E+00  0.00000000000E+00  0.93516771975E+03  0.93516771975E+03  0.25500000000E-02 0.  1.
          2   -1    0    0  501    0  0.00000000000E+00 -0.00000000000E+00 -0.17756061825E+04  0.17756061825E+04  0.25500000000E-02 0. -1.
    8880022    1    1    2    0    0 -0.11387360880E+04 -0.24475408402E+03  0.13682686243E+03  0.11826824100E+04  0.15294330000E+03 0.  0.
    8880022    1    1    2    0    0  0.11387360880E+04  0.24475408402E+03 -0.97726532519E+03  0.15280914922E+04  0.15294330000E+03 0.  0.
<mgrwt>
<rscale>  0 0.11747409E+04</rscale>
<asrwt>0</asrwt>
<pdfrwt beam="1">  1        2 0.27317018E+00 0.11747409E+04</pdfrwt>
<pdfrwt beam="2">  1       -2 0.14387196E+00 0.11747409E+04</pdfrwt>
<totfact> 0.29043092E+00</totfact>
</mgrwt>
</event>
<event>
 4    1  0.1033139E-008  0.4019994E+03  0.7818608E-02  0.1043090E+00
          2   -1    0    0  501    0  0.00000000000E+00  0.00000000000E+00  0.15245760048E+04  0.15245760048E+04  0.25500000000E-02 0. -1.
         -2   -1    0    0    0  501 -0.00000000000E+00 -0.00000000000E+00 -0.29605906747E+03  0.29605906748E+03  0.25500000000E-02 0.  1.
    8880022    1    1    2    0    0  0.34469742212E+03  0.13926805713E+03 -0.11511363006E+03  0.41815631694E+03  0.15294330000E+03 0.  0.
    8880022    1    1    2    0    0 -0.34469742212E+03 -0.13926805713E+03  0.13436305674E+04  0.14024787554E+04  0.15294330000E+03 0.  0.
<mgrwt>
<rscale>  0 0.40199945E+03</rscale>
<asrwt>0</asrwt>
<pdfrwt beam="1">  1        2 0.23455016E+00 0.40199945E+03</pdfrwt>
<pdfrwt beam="2">  1       -2 0.45547548E-01 0.40199945E+03</pdfrwt>
<totfact> 0.60238538E+01</totfact>
</mgrwt>
</event>
<event>
 4    1  0.1033139E-008  0.1271620E+04  0.7818608E-02  0.9052378E-01
          2   -1    0    0  501    0  0.00000000000E+00  0.00000000000E+00  0.12301406378E+04  0.12301406378E+04  0.25500000000E-02 0. -1.
         -2   -1    0    0    0  501 -0.00000000000E+00 -0.00000000000E+00 -0.15277376105E+04  0.15277376105E+04  0.25500000000E-02 0.  1.
    8880022    1    1    2    0    0 -0.11771736150E+04  0.45594856650E+03  0.36637531742E+03  0.13233477780E+04  0.15294330000E+03 0.  0.
    8880022    1    1    2    0    0  0.11771736150E+04 -0.45594856650E+03 -0.66397229010E+03  0.14345304703E+04  0.15294330000E+03 0.  0.
<mgrwt>
<rscale>  0 0.12716204E+04</rscale>
<asrwt>0</asrwt>
<pdfrwt beam="1">  1        2 0.18925241E+00 0.12716204E+04</pdfrwt>
<pdfrwt beam="2">  1       -2 0.23503656E+00 0.12716204E+04</pdfrwt>
<totfact> 0.13937044E+00</totfact>
</mgrwt>
</event>
<event>
 4    1  0.1033139E-008  0.4037991E+03  0.7818608E-02  0.1042472E+00
          2   -1    0    0  501    0  0.00000000000E+00  0.00000000000E+00  0.13208127201E+04  0.13208127201E+04  0.25500000000E-02 0. -1.
         -2   -1    0    0    0  501 -0.00000000000E+00 -0.00000000000E+00 -0.32441536418E+03  0.32441536419E+03  0.25500000000E-02 0.  1.
    8880022    1    1    2    0    0  0.19177259036E+03  0.32075749470E+03 -0.14925170751E+03  0.43049950294E+03  0.15294330000E+03 0.  0.
    8880022    1    1    2    0    0 -0.19177259036E+03 -0.32075749470E+03  0.11456490634E+04  0.12147285813E+04  0.15294330000E+03 0.  0.
<mgrwt>
<rscale>  0 0.40379915E+03</rscale>
<asrwt>0</asrwt>
<pdfrwt beam="1">  1        2 0.20320196E+00 0.40379915E+03</pdfrwt>
<pdfrwt beam="2">  1       -2 0.49910056E-01 0.40379915E+03</pdfrwt>
<totfact> 0.64972337E+01</totfact>
</mgrwt>
</event>
<event>
 4    1  0.1033139E-008  0.1910703E+04  0.7818608E-02  0.8649547E-01
         -2   -1    0    0    0  501 -0.00000000000E+00  0.00000000000E+00  0.13736568307E+04  0.13736568307E+04  0.25500000000E-02 0.  1.
          2   -1    0    0  501    0  0.00000000000E+00 -0.00000000000E+00 -0.32295560092E+04  0.32295560092E+04  0.25500000000E-02 0. -1.
    8880022    1    1    2    0    0  0.16010088652E+04  0.10315838785E+04 -0.18964456499E+04  0.26920795755E+04  0.15294330000E+03 0.  0.
    8880022    1    1    2    0    0 -0.16010088652E+04 -0.10315838785E+04  0.40546471359E+02  0.19111332644E+04  0.15294330000E+03 0.  0.
<mgrwt>
<rscale>  0 0.19107031E+04</rscale>
<asrwt>0</asrwt>
<pdfrwt beam="1">  1        2 0.49685477E+00 0.19107031E+04</pdfrwt>
<pdfrwt beam="2">  1       -2 0.21133182E+00 0.19107031E+04</pdfrwt>
<totfact> 0.12533063E-01</totfact>
</mgrwt>
</event>
<event>
 4    1  0.1033139E-008  0.2131937E+04  0.7818608E-02  0.8547304E-01
          2   -1    0    0  501    0  0.00000000000E+00  0.00000000000E+00  0.24906296846E+04  0.24906296846E+04  0.25500000000E-02 0. -1.
         -2   -1    0    0    0  501 -0.00000000000E+00 -0.00000000000E+00 -0.27442130332E+04  0.27442130332E+04  0.25500000000E-02 0.  1.
    8880022    1    1    2    0    0 -0.20554593459E+04  0.54483809116E+03 -0.16417341239E+04  0.26908073611E+04  0.15294330000E+03 0.  0.
    8880022    1    1    2    0    0  0.20554593459E+04 -0.54483809116E+03  0.13881507753E+04  0.25440353567E+04  0.15294330000E+03 0.  0.
<mgrwt>
<rscale>  0 0.21319365E+04</rscale>
<asrwt>0</asrwt>
<pdfrwt beam="1">  1        2 0.38317380E+00 0.21319365E+04</pdfrwt>
<pdfrwt beam="2">  1       -2 0.42218662E+00 0.21319365E+04</pdfrwt>
<totfact> 0.16226669E-02</totfact>
</mgrwt>
</event>
<event>
 4    1  0.1033139E-008  0.8470356E+03  0.7818608E-02  0.9494324E-01
         -2   -1    0    0    0  501 -0.00000000000E+00  0.00000000000E+00  0.79665786047E+03  0.79665786048E+03  0.25500000000E-02 0.  1.
          2   -1    0    0  501    0  0.00000000000E+00 -0.00000000000E+00 -0.32767271905E+04  0.32767271905E+04  0.25500000000E-02 0. -1.
    8880022    1    1    2    0    0 -0.76828228232E+03 -0.32221116446E+03 -0.29743986687E+04  0.30926552982E+04  0.15294330000E+03 0.  0.
    8880022    1    1    2    0    0  0.76828228232E+03  0.32221116446E+03  0.49432933873E+03  0.98072975277E+03  0.15294330000E+03 0.  1.
<mgrwt>
<rscale>  0 0.84703563E+03</rscale>
<asrwt>0</asrwt>
<pdfrwt beam="1">  1        2 0.50411187E+00 0.84703563E+03</pdfrwt>
<pdfrwt beam="2">  1       -2 0.12256275E+00 0.84703563E+03</pdfrwt>
<totfact> 0.61405965E-01</totfact>
</mgrwt>
</event>
<event>
 4    1  0.1033139E-008  0.1454381E+04  0.7818608E-02  0.8915369E-01
          2   -1    0    0  501    0  0.00000000000E+00  0.00000000000E+00  0.12205742432E+04  0.12205742432E+04  0.25500000000E-02 0. -1.
         -2   -1    0    0    0  501 -0.00000000000E+00 -0.00000000000E+00 -0.33934642836E+04  0.33934642836E+04  0.25500000000E-02 0.  1.
    8880022    1    1    2    0    0  0.12841045795E+04  0.66551384212E+03  0.52734710326E+03  0.15470358320E+04  0.15294330000E+03 0.  0.
    8880022    1    1    2    0    0 -0.12841045795E+04 -0.66551384212E+03 -0.27002371436E+04  0.30670026948E+04  0.15294330000E+03 0.  0.
<mgrwt>
<rscale>  0 0.14543813E+04</rscale>
<asrwt>0</asrwt>
<pdfrwt beam="1">  1        2 0.18778065E+00 0.14543813E+04</pdfrwt>
<pdfrwt beam="2">  1       -2 0.52207142E+00 0.14543813E+04</pdfrwt>
<totfact> 0.20961608E-02</totfact>
</mgrwt>
</event>
<event>
 4    1  0.1033139E-008  0.6653325E+03  0.7818608E-02  0.9778427E-01
         -2   -1    0    0    0  501 -0.00000000000E+00  0.00000000000E+00  0.15885458737E+04  0.15885458737E+04  0.25500000000E-02 0.  1.
          2   -1    0    0  501    0  0.00000000000E+00 -0.00000000000E+00 -0.22229284898E+04  0.22229284898E+04  0.25500000000E-02 0. -1.
    8880022    1    1    2    0    0 -0.29866657478E+03 -0.57452065026E+03 -0.20994804366E+04  0.22023817691E+04  0.15294330000E+03 0.  0.
    8880022    1    1    2    0    0  0.29866657478E+03  0.57452065026E+03  0.14650978205E+04  0.16090925943E+04  0.15294330000E+03 0.  0.
<mgrwt>
<rscale>  0 0.66533251E+03</rscale>
<asrwt>0</asrwt>
<pdfrwt beam="1">  1        2 0.34198900E+00 0.66533251E+03</pdfrwt>
<pdfrwt beam="2">  1       -2 0.24439167E+00 0.66533251E+03</pdfrwt>
<totfact> 0.37735419E-01</totfact>
</mgrwt>
</event>
<event>
 4    1  0.1033139E-008  0.1406125E+04  0.7818608E-02  0.8949397E-01
          2   -1    0    0  501    0  0.00000000000E+00  0.00000000000E+00  0.26327051930E+04  0.26327051930E+04  0.25500000000E-02 0. -1.
         -2   -1    0    0    0  501 -0.00000000000E+00 -0.00000000000E+00 -0.87896155350E+03  0.87896155350E+03  0.25500000000E-02 0.  1.
    8880022    1    1    2    0    0  0.11670295641E+04 -0.76930932659E+03  0.20695317718E+03  0.14212727093E+04  0.15294330000E+03 0.  0.
    8880022    1    1    2    0    0 -0.11670295641E+04  0.76930932659E+03  0.15467904623E+04  0.20903940372E+04  0.15294330000E+03 0.  0.
<mgrwt>
<rscale>  0 0.14061246E+04</rscale>
<asrwt>0</asrwt>
<pdfrwt beam="1">  1        2 0.40503156E+00 0.14061246E+04</pdfrwt>
<pdfrwt beam="2">  1       -2 0.13522486E+00 0.14061246E+04</pdfrwt>
<totfact> 0.10945659E+00</totfact>
</mgrwt>
</event>
<event>
 4    1  0.1033139E-008  0.5304420E+03  0.7818608E-02  0.1006125E+00
         -2   -1    0    0    0  501 -0.00000000000E+00  0.00000000000E+00  0.15668590845E+04  0.15668590845E+04  0.25500000000E-02 0.  1.
          2   -1    0    0  501    0  0.00000000000E+00 -0.00000000000E+00 -0.81079189240E+03  0.81079189241E+03  0.25500000000E-02 0. -1.
    8880022    1    1    2    0    0 -0.13967080576E+03  0.48833300068E+03  0.14269785994E+04  0.15223786092E+04  0.15294330000E+03 0.  1.
    8880022    1    1    2    0    0  0.13967080576E+03 -0.48833300068E+03 -0.67091140730E+03  0.85527236772E+03  0.15294330000E+03 0.  0.
<mgrwt>
<rscale>  0 0.53044199E+03</rscale>
<asrwt>0</asrwt>
<pdfrwt beam="1">  1        2 0.12473721E+00 0.53044199E+03</pdfrwt>
<pdfrwt beam="2">  1       -2 0.24105524E+00 0.53044199E+03</pdfrwt>
<totfact> 0.26471347E+00</totfact>
</mgrwt>
</event>
<event>
 4    1  0.1033139E-008  0.4730432E+03  0.7818608E-02  0.1021065E+00
          2   -1    0    0  501    0  0.00000000000E+00  0.00000000000E+00  0.11819320253E+04  0.11819320253E+04  0.25500000000E-02 0. -1.
         -2   -1    0    0    0  501 -0.00000000000E+00 -0.00000000000E+00 -0.54228530095E+03  0.54228530096E+03  0.25500000000E-02 0.  1.
    8880022    1    1    2    0    0  0.92533465048E+02  0.43796776783E+03 -0.37569839722E+03  0.60408538014E+03  0.15294330000E+03 0.  0.
    8880022    1    1    2    0    0 -0.92533465048E+02 -0.43796776783E+03  0.10153451216E+04  0.11201319461E+04  0.15294330000E+03 0.  0.
<mgrwt>
<rscale>  0 0.47304319E+03</rscale>
<asrwt>0</asrwt>
<pdfrwt beam="1">  1        2 0.18183569E+00 0.47304319E+03</pdfrwt>
<pdfrwt beam="2">  1       -2 0.83428509E-01 0.47304319E+03</pdfrwt>
<totfact> 0.25809404E+01</totfact>
</mgrwt>
</event>
<event>
 4    1  0.1033139E-008  0.7335305E+03  0.7818608E-02  0.9661549E-01
          2   -1    0    0  501    0  0.00000000000E+00  0.00000000000E+00  0.20773859555E+04  0.20773859555E+04  0.25500000000E-02 0. -1.
         -2   -1    0    0    0  501 -0.00000000000E+00 -0.00000000000E+00 -0.66392982325E+03  0.66392982325E+03  0.25500000000E-02 0.  1.
    8880022    1    1    2    0    0  0.20807964882E+03 -0.68656988715E+03  0.17771417627E+04  0.19225763569E+04  0.15294330000E+03 0.  0.
    8880022    1    1    2    0    0 -0.20807964882E+03  0.68656988715E+03 -0.36368563043E+03  0.81873942191E+03  0.15294330000E+03 0.  0.
<mgrwt>
<rscale>  0 0.73353051E+03</rscale>
<asrwt>0</asrwt>
<pdfrwt beam="1">  1        2 0.31959783E+00 0.73353051E+03</pdfrwt>
<pdfrwt beam="2">  1       -2 0.10214305E+00 0.73353051E+03</pdfrwt>
<totfact> 0.49450417E+00</totfact>
</mgrwt>
</event>
<event>
 4    1  0.1033139E-008  0.1036770E+04  0.7818608E-02  0.9269111E-01
         -2   -1    0    0    0  501 -0.00000000000E+00  0.00000000000E+00  0.49683133124E+03  0.49683133124E+03  0.25500000000E-02 0.  1.
          2   -1    0    0  501    0  0.00000000000E+00 -0.00000000000E+00 -0.27164323197E+04  0.27164323197E+04  0.25500000000E-02 0. -1.
    8880022    1    1    2    0    0  0.70781207691E+03 -0.74195813713E+03 -0.18346625629E+04  0.21073391246E+04  0.15294330000E+03 0.  0.
    8880022    1    1    2    0    0 -0.70781207691E+03  0.74195813713E+03 -0.38493842561E+03  0.11059245264E+04  0.15294330000E+03 0.  0.
<mgrwt>
<rscale>  0 0.10367697E+04</rscale>
<asrwt>0</asrwt>
<pdfrwt beam="1">  1        2 0.41791266E+00 0.10367697E+04</pdfrwt>
<pdfrwt beam="2">  1       -2 0.76435591E-01 0.10367697E+04</pdfrwt>
<totfact> 0.40135124E+00</totfact>
</mgrwt>
</event>
<event>
 4    1  0.1033139E-008  0.3065158E+03  0.7818608E-02  0.1082028E+00
         -2   -1    0    0    0  501 -0.00000000000E+00  0.00000000000E+00  0.97518827650E+02  0.97518827683E+02  0.25500000000E-02 0.  1.
          2   -1    0    0  501    0  0.00000000000E+00 -0.00000000000E+00 -0.16435922996E+04  0.16435922996E+04  0.25500000000E-02 0. -1.
    8880022    1    1    2    0    0  0.10144115066E+03 -0.24549940771E+03 -0.21301119313E+03  0.37326356325E+03  0.15294330000E+03 0.  0.
    8880022    1    1    2    0    0 -0.10144115066E+03  0.24549940771E+03 -0.13330622789E+04  0.13678475641E+04  0.15294330000E+03 0.  0.
<mgrwt>
<rscale>  0 0.30651577E+03</rscale>
<asrwt>0</asrwt>
<pdfrwt beam="1">  1        2 0.25286033E+00 0.30651577E+03</pdfrwt>
<pdfrwt beam="2">  1       -2 0.15002898E-01 0.30651577E+03</pdfrwt>
<totfact> 0.39117545E+02</totfact>
</mgrwt>
</event>
<event>
 4    1  0.1033139E-008  0.1875163E+03  0.7818608E-02  0.1160721E+00
          2   -1    0    0  501    0  0.00000000000E+00  0.00000000000E+00  0.11878648805E+04  0.11878648805E+04  0.25500000000E-02 0. -1.
         -2   -1    0    0    0  501 -0.00000000000E+00 -0.00000000000E+00 -0.80361174267E+02  0.80361174308E+02  0.25500000000E-02 0.  1.
    8880022    1    1    2    0    0 -0.10643036915E+03 -0.21054309650E+02  0.10577207690E+04  0.10742139385E+04  0.15294330000E+03 0.  0.
    8880022    1    1    2    0    0  0.10643036915E+03  0.21054309650E+02  0.49782937246E+02  0.19401211635E+03  0.15294330000E+03 0.  1.
<mgrwt>
<rscale>  0 0.18751629E+03</rscale>
<asrwt>0</asrwt>
<pdfrwt beam="1">  1        2 0.18274843E+00 0.18751629E+03</pdfrwt>
<pdfrwt beam="2">  1       -2 0.12363258E-01 0.18751629E+03</pdfrwt>
<totfact> 0.96291940E+02</totfact>
</mgrwt>
</event>
<event>
 4    1  0.1033139E-008  0.3617639E+03  0.7818608E-02  0.1057888E+00
         -2   -1    0    0    0  501 -0.00000000000E+00  0.00000000000E+00  0.10213789467E+04  0.10213789467E+04  0.25500000000E-02 0.  1.
          2   -1    0    0  501    0  0.00000000000E+00 -0.00000000000E+00 -0.24994886503E+03  0.24994886505E+03  0.25500000000E-02 0. -1.
    8880022    1    1    2    0    0 -0.70586426616E+02 -0.32015470229E+03  0.82947951386E+03  0.90493612700E+03  0.15294330000E+03 0.  0.
    8880022    1    1    2    0    0  0.70586426616E+02  0.32015470229E+03 -0.58049432237E+02  0.36639168471E+03  0.15294330000E+03 0. -1.
<mgrwt>
<rscale>  0 0.36176391E+03</rscale>
<asrwt>0</asrwt>
<pdfrwt beam="1">  1        2 0.38453672E-01 0.36176391E+03</pdfrwt>
<pdfrwt beam="2">  1       -2 0.15713522E+00 0.36176391E+03</pdfrwt>
<totfact> 0.37294023E+01</totfact>
</mgrwt>
</event>
<event>
 4    1  0.1033139E-008  0.6596009E+03  0.7818608E-02  0.9788929E-01
          2   -1    0    0  501    0  0.00000000000E+00  0.00000000000E+00  0.88398969231E+03  0.88398969231E+03  0.25500000000E-02 0. -1.
         -2   -1    0    0    0  501 -0.00000000000E+00 -0.00000000000E+00 -0.77709672554E+03  0.77709672554E+03  0.25500000000E-02 0.  1.
    8880022    1    1    2    0    0  0.53384142846E+03 -0.35594244692E+03  0.55635751567E+03  0.86290615627E+03  0.15294330000E+03 0.  0.
    8880022    1    1    2    0    0 -0.53384142846E+03  0.35594244692E+03 -0.44946454890E+03  0.79818026159E+03  0.15294330000E+03 0.  0.
<mgrwt>
<rscale>  0 0.65960090E+03</rscale>
<asrwt>0</asrwt>
<pdfrwt beam="1">  1        2 0.13599841E+00 0.65960090E+03</pdfrwt>
<pdfrwt beam="2">  1       -2 0.11955334E+00 0.65960090E+03</pdfrwt>
<totfact> 0.16530702E+01</totfact>
</mgrwt>
</event>
<event>
 4    1  0.1033139E-008  0.4931670E+03  0.7818608E-02  0.1015578E+00
         -2   -1    0    0    0  501 -0.00000000000E+00  0.00000000000E+00  0.16339459636E+03  0.16339459638E+03  0.25500000000E-02 0.  1.
          2   -1    0    0  501    0  0.00000000000E+00 -0.00000000000E+00 -0.27008245085E+04  0.27008245085E+04  0.25500000000E-02 0. -1.
    8880022    1    1    2    0    0 -0.41352810206E+03  0.22094469453E+03 -0.30923352506E+03  0.58209885352E+03  0.15294330000E+03 0.  0.
    8880022    1    1    2    0    0  0.41352810206E+03 -0.22094469453E+03 -0.22281963871E+04  0.22821202514E+04  0.15294330000E+03 0.  0.
<mgrwt>
<rscale>  0 0.49316701E+03</rscale>
<asrwt>0</asrwt>
<pdfrwt beam="1">  1        2 0.41551143E+00 0.49316701E+03</pdfrwt>
<pdfrwt beam="2">  1       -2 0.25137632E-01 0.49316701E+03</pdfrwt>
<totfact> 0.41250036E+01</totfact>
</mgrwt>
</event>
<event>
 4    1  0.1033139E-008  0.6053439E+03  0.7818608E-02  0.9894381E-01
         -2   -1    0    0    0  501 -0.00000000000E+00  0.00000000000E+00  0.55080400840E+03  0.55080400841E+03  0.25500000000E-02 0.  1.
          2   -1    0    0  501    0  0.00000000000E+00 -0.00000000000E+00 -0.13540051302E+04  0.13540051302E+04  0.25500000000E-02 0. -1.
    8880022    1    1    2    0    0  0.52296052834E+03  0.26374579979E+03  0.27765460552E+03  0.66598295330E+03  0.15294330000E+03 0.  0.
    8880022    1    1    2    0    0 -0.52296052834E+03 -0.26374579979E+03 -0.10808557273E+04  0.12388261853E+04  0.15294330000E+03 0. -1.
<mgrwt>
<rscale>  0 0.60534388E+03</rscale>
<asrwt>0</asrwt>
<pdfrwt beam="1">  1        2 0.20830848E+00 0.60534388E+03</pdfrwt>
<pdfrwt beam="2">  1       -2 0.84739078E-01 0.60534388E+03</pdfrwt>
<totfact> 0.19429472E+01</totfact>
</mgrwt>
</event>
<event>
 4    1  0.1033139E-008  0.7671185E+03  0.7818608E-02  0.9608870E-01
          2   -1    0    0  501    0  0.00000000000E+00  0.00000000000E+00  0.26204340446E+04  0.26204340446E+04  0.25500000000E-02 0. -1.
         -2   -1    0    0    0  501 -0.00000000000E+00 -0.00000000000E+00 -0.29224965477E+03  0.29224965478E+03  0.25500000000E-02 0.  1.
    8880022    1    1    2    0    0  0.74992627273E+03  0.51863031449E+02  0.46325775967E+03  0.89614652456E+03  0.15294330000E+03 0. -1.
    8880022    1    1    2    0    0 -0.74992627273E+03 -0.51863031449E+02  0.18649266301E+04  0.20165371748E+04  0.15294330000E+03 0.  0.
<mgrwt>
<rscale>  0 0.76711853E+03</rscale>
<asrwt>0</asrwt>
<pdfrwt beam="1">  1        2 0.40314369E+00 0.76711853E+03</pdfrwt>
<pdfrwt beam="2">  1       -2 0.44961486E-01 0.76711853E+03</pdfrwt>
<totfact> 0.14547201E+01</totfact>
</mgrwt>
</event>
<event>
 4    1  0.1033139E-008  0.6608156E+03  0.7818608E-02  0.9786693E-01
         -2   -1    0    0    0  501 -0.00000000000E+00  0.00000000000E+00  0.38028148359E+03  0.38028148360E+03  0.25500000000E-02 0.  1.
          2   -1    0    0  501    0  0.00000000000E+00 -0.00000000000E+00 -0.30771450227E+04  0.30771450227E+04  0.25500000000E-02 0. -1.
    8880022    1    1    2    0    0 -0.59855968277E+03 -0.23454618659E+03 -0.27170982677E+04  0.27963011742E+04  0.15294330000E+03 0.  0.
    8880022    1    1    2    0    0  0.59855968277E+03  0.23454618659E+03  0.20234728592E+02  0.66112533209E+03  0.15294330000E+03 0.  0.
<mgrwt>
<rscale>  0 0.66081560E+03</rscale>
<asrwt>0</asrwt>
<pdfrwt beam="1">  1        2 0.47340691E+00 0.66081560E+03</pdfrwt>
<pdfrwt beam="2">  1       -2 0.58504846E-01 0.66081560E+03</pdfrwt>
<totfact> 0.46308679E+00</totfact>
</mgrwt>
</event>
<event>
 4    1  0.1033139E-008  0.1398706E+04  0.7818608E-02  0.8954755E-01
         -2   -1    0    0    0  501 -0.00000000000E+00  0.00000000000E+00  0.13501332650E+04  0.13501332650E+04  0.25500000000E-02 0.  1.
          2   -1    0    0  501    0  0.00000000000E+00 -0.00000000000E+00 -0.19324228124E+04  0.19324228124E+04  0.25500000000E-02 0. -1.
    8880022    1    1    2    0    0 -0.13201710039E+04  0.43604637129E+03 -0.11120301467E+04  0.17868941260E+04  0.15294330000E+03 0.  0.
    8880022    1    1    2    0    0  0.13201710039E+04 -0.43604637129E+03  0.52974059931E+03  0.14956619514E+04  0.15294330000E+03 0.  0.
<mgrwt>
<rscale>  0 0.13987064E+04</rscale>
<asrwt>0</asrwt>
<pdfrwt beam="1">  1        2 0.29729582E+00 0.13987064E+04</pdfrwt>
<pdfrwt beam="2">  1       -2 0.20771281E+00 0.13987064E+04</pdfrwt>
<totfact> 0.81901006E-01</totfact>
</mgrwt>
</event>
<event>
 4    1  0.1033139E-008  0.4345723E+03  0.7818608E-02  0.1032425E+00
         -2   -1    0    0    0  501 -0.00000000000E+00  0.00000000000E+00  0.23268290684E+04  0.23268290684E+04  0.25500000000E-02 0.  1.
          2   -1    0    0  501    0  0.00000000000E+00 -0.00000000000E+00 -0.29742556635E+03  0.29742556636E+03  0.25500000000E-02 0. -1.
    8880022    1    1    2    0    0 -0.15296607855E+03  0.37691216894E+03 -0.10416207552E+03  0.44688118698E+03  0.15294330000E+03 0.  0.
    8880022    1    1    2    0    0  0.15296607855E+03 -0.37691216894E+03  0.21335655776E+04  0.21773734478E+04  0.15294330000E+03 0.  0.
<mgrwt>
<rscale>  0 0.43457227E+03</rscale>
<asrwt>0</asrwt>
<pdfrwt beam="1">  1        2 0.45757778E-01 0.43457227E+03</pdfrwt>
<pdfrwt beam="2">  1       -2 0.35797372E+00 0.43457227E+03</pdfrwt>
<totfact> 0.17300214E+00</totfact>
</mgrwt>
</event>
<event>
 4    1  0.1033139E-008  0.1052187E+04  0.7818608E-02  0.9253089E-01
         -2   -1    0    0    0  501 -0.00000000000E+00  0.00000000000E+00  0.58978433464E+03  0.58978433465E+03  0.25500000000E-02 0.  1.
          2   -1    0    0  501    0  0.00000000000E+00 -0.00000000000E+00 -0.21486142370E+04  0.21486142370E+04  0.25500000000E-02 0. -1.
    8880022    1    1    2    0    0 -0.38569583379E+03 -0.96692546426E+03 -0.29271053244E+03  0.10921434148E+04  0.15294330000E+03 0.  0.
    8880022    1    1    2    0    0  0.38569583379E+03  0.96692546426E+03 -0.12661193699E+04  0.16462551569E+04  0.15294330000E+03 0.  0.
<mgrwt>
<rscale>  0 0.10521871E+04</rscale>
<asrwt>0</asrwt>
<pdfrwt beam="1">  1        2 0.33055603E+00 0.10521871E+04</pdfrwt>
<pdfrwt beam="2">  1       -2 0.90736053E-01 0.10521871E+04</pdfrwt>
<totfact> 0.57068008E+00</totfact>
</mgrwt>
</event>
<event>
 4    1  0.1033139E-008  0.1157998E+04  0.7818608E-02  0.9150437E-01
         -2   -1    0    0    0  501 -0.00000000000E+00  0.00000000000E+00  0.83122814486E+03  0.83122814486E+03  0.25500000000E-02 0.  1.
          2   -1    0    0  501    0  0.00000000000E+00 -0.00000000000E+00 -0.21325129478E+04  0.21325129478E+04  0.25500000000E-02 0. -1.
    8880022    1    1    2    0    0  0.11392478406E+04  0.14028958752E+03 -0.13818965250E+04  0.18029410610E+04  0.15294330000E+03 0.  0.
    8880022    1    1    2    0    0 -0.11392478406E+04 -0.14028958752E+03  0.80611722117E+02  0.11608000316E+04  0.15294330000E+03 0.  0.
<mgrwt>
<rscale>  0 0.11579976E+04</rscale>
<asrwt>0</asrwt>
<pdfrwt beam="1">  1        2 0.32807891E+00 0.11579976E+04</pdfrwt>
<pdfrwt beam="2">  1       -2 0.12788125E+00 0.11579976E+04</pdfrwt>
<totfact> 0.25025067E+00</totfact>
</mgrwt>
</event>
<event>
 4    1  0.1033139E-008  0.5392306E+03  0.7818608E-02  0.1004018E+00
         -2   -1    0    0    0  501 -0.00000000000E+00  0.00000000000E+00  0.45680297386E+03  0.45680297386E+03  0.25500000000E-02 0.  1.
          2   -1    0    0  501    0  0.00000000000E+00 -0.00000000000E+00 -0.12983289440E+04  0.12983289440E+04  0.25500000000E-02 0. -1.
    8880022    1    1    2    0    0  0.38965411298E+03 -0.33992295345E+03 -0.10473045112E+04  0.11779712790E+04  0.15294330000E+03 0. -1.
    8880022    1    1    2    0    0 -0.38965411298E+03  0.33992295345E+03  0.20577854104E+03  0.57716063883E+03  0.15294330000E+03 0.  0.
<mgrwt>
<rscale>  0 0.53923056E+03</rscale>
<asrwt>0</asrwt>
<pdfrwt beam="1">  1        2 0.19974291E+00 0.53923056E+03</pdfrwt>
<pdfrwt beam="2">  1       -2 0.70277381E-01 0.53923056E+03</pdfrwt>
<totfact> 0.31983123E+01</totfact>
</mgrwt>
</event>
<event>
 4    1  0.1033139E-008  0.8877737E+03  0.7818608E-02  0.9440995E-01
         -2   -1    0    0    0  501 -0.00000000000E+00  0.00000000000E+00  0.36611455879E+03  0.36611455880E+03  0.25500000000E-02 0.  1.
          2   -1    0    0  501    0  0.00000000000E+00 -0.00000000000E+00 -0.44614533415E+04  0.44614533415E+04  0.25500000000E-02 0. -1.
    8880022    1    1    2    0    0  0.66706795698E+03 -0.56548288821E+03 -0.31128015362E+03  0.94076433986E+03  0.15294330000E+03 0.  0.
    8880022    1    1    2    0    0 -0.66706795698E+03  0.56548288821E+03 -0.37840586291E+04  0.38868035605E+04  0.15294330000E+03 0.  0.
<mgrwt>
<rscale>  0 0.88777374E+03</rscale>
<asrwt>0</asrwt>
<pdfrwt beam="1">  1        2 0.68637740E+00 0.88777374E+03</pdfrwt>
<pdfrwt beam="2">  1       -2 0.56325320E-01 0.88777374E+03</pdfrwt>
<totfact> 0.43693263E-01</totfact>
</mgrwt>
</event>
<event>
 4    1  0.1033139E-008  0.4971865E+03  0.7818608E-02  0.1014516E+00
         -2   -1    0    0    0  501 -0.00000000000E+00  0.00000000000E+00  0.51657861373E+03  0.51657861374E+03  0.25500000000E-02 0.  1.
          2   -1    0    0  501    0  0.00000000000E+00 -0.00000000000E+00 -0.52861058582E+03  0.52861058583E+03  0.25500000000E-02 0. -1.
    8880022    1    1    2    0    0 -0.24297758155E+03 -0.40591214541E+03  0.15485018520E+03  0.52074274628E+03  0.15294330000E+03 0.  0.
    8880022    1    1    2    0    0  0.24297758155E+03  0.40591214541E+03 -0.16688215729E+03  0.52444645329E+03  0.15294330000E+03 0.  0.
<mgrwt>
<rscale>  0 0.49718651E+03</rscale>
<asrwt>0</asrwt>
<pdfrwt beam="1">  1        2 0.81324706E-01 0.49718651E+03</pdfrwt>
<pdfrwt beam="2">  1       -2 0.79473632E-01 0.49718651E+03</pdfrwt>
<totfact> 0.83333841E+01</totfact>
</mgrwt>
</event>
<event>
 4    1  0.1033139E-008  0.1326228E+04  0.7818608E-02  0.9009021E-01
          2   -1    0    0  501    0  0.00000000000E+00  0.00000000000E+00  0.15609033220E+04  0.15609033220E+04  0.25500000000E-02 0. -1.
         -2   -1    0    0    0  501 -0.00000000000E+00 -0.00000000000E+00 -0.13071432736E+04  0.13071432736E+04  0.25500000000E-02 0.  1.
    8880022    1    1    2    0    0 -0.78046539019E+03  0.10613023798E+04 -0.40572142301E+03  0.13868995972E+04  0.15294330000E+03 0.  0.
    8880022    1    1    2    0    0  0.78046539019E+03 -0.10613023798E+04  0.65948147140E+03  0.14811469984E+04  0.15294330000E+03 0.  0.
<mgrwt>
<rscale>  0 0.13262280E+04</rscale>
<asrwt>0</asrwt>
<pdfrwt beam="1">  1        2 0.24013897E+00 0.13262280E+04</pdfrwt>
<pdfrwt beam="2">  1       -2 0.20109897E+00 0.13262280E+04</pdfrwt>
<totfact> 0.14686543E+00</totfact>
</mgrwt>
</event>
<event>
 4    1  0.1033139E-008  0.5941666E+03  0.7818608E-02  0.9917583E-01
         -2   -1    0    0    0  501 -0.00000000000E+00  0.00000000000E+00  0.15124126157E+04  0.15124126157E+04  0.25500000000E-02 0.  1.
          2   -1    0    0  501    0  0.00000000000E+00 -0.00000000000E+00 -0.21269174601E+04  0.21269174601E+04  0.25500000000E-02 0. -1.
    8880022    1    1    2    0    0  0.11284148645E+03  0.56294676171E+03 -0.20241642750E+04  0.21095674729E+04  0.15294330000E+03 0.  0.
    8880022    1    1    2    0    0 -0.11284148645E+03 -0.56294676171E+03  0.14096594306E+04  0.15297626028E+04  0.15294330000E+03 0.  0.
<mgrwt>
<rscale>  0 0.59416657E+03</rscale>
<asrwt>0</asrwt>
<pdfrwt beam="1">  1        2 0.32721807E+00 0.59416657E+03</pdfrwt>
<pdfrwt beam="2">  1       -2 0.23267886E+00 0.59416657E+03</pdfrwt>
<totfact> 0.51201304E-01</totfact>
</mgrwt>
</event>
<event>
 4    1  0.1033139E-008  0.6750278E+03  0.7818608E-02  0.9760917E-01
          2   -1    0    0  501    0  0.00000000000E+00  0.00000000000E+00  0.69205359219E+03  0.69205359219E+03  0.25500000000E-02 0. -1.
         -2   -1    0    0    0  501 -0.00000000000E+00 -0.00000000000E+00 -0.69295121880E+03  0.69295121880E+03  0.25500000000E-02 0.  1.
    8880022    1    1    2    0    0  0.14332282276E+03  0.64166152301E+03 -0.15503469745E+03  0.69260259317E+03  0.15294330000E+03 0.  0.
    8880022    1    1    2    0    0 -0.14332282276E+03 -0.64166152301E+03  0.15413707084E+03  0.69240221783E+03  0.15294330000E+03 0.  0.
<mgrwt>
<rscale>  0 0.67502785E+03</rscale>
<asrwt>0</asrwt>
<pdfrwt beam="1">  1        2 0.10646978E+00 0.67502785E+03</pdfrwt>
<pdfrwt beam="2">  1       -2 0.10660788E+00 0.67502785E+03</pdfrwt>
<totfact> 0.30054901E+01</totfact>
</mgrwt>
</event>
<event>
 4    1  0.1033139E-008  0.6955589E+03  0.7818608E-02  0.9724857E-01
          2   -1    0    0  501    0  0.00000000000E+00  0.00000000000E+00  0.20954975220E+04  0.20954975220E+04  0.25500000000E-02 0. -1.
         -2   -1    0    0    0  501 -0.00000000000E+00 -0.00000000000E+00 -0.28619817488E+03  0.28619817489E+03  0.25500000000E-02 0.  1.
    8880022    1    1    2    0    0  0.13004501565E+03  0.66595707524E+03  0.14282121783E+04  0.15885818240E+04  0.15294330000E+03 0.  0.
    8880022    1    1    2    0    0 -0.13004501565E+03 -0.66595707524E+03  0.38108716878E+03  0.79311387290E+03  0.15294330000E+03 0.  0.
<mgrwt>
<rscale>  0 0.69555890E+03</rscale>
<asrwt>0</asrwt>
<pdfrwt beam="1">  1        2 0.32238422E+00 0.69555890E+03</pdfrwt>
<pdfrwt beam="2">  1       -2 0.44030490E-01 0.69555890E+03</pdfrwt>
<totfact> 0.30132869E+01</totfact>
</mgrwt>
</event>
<event>
 4    1  0.1033139E-008  0.9567004E+03  0.7818608E-02  0.9357353E-01
         -2   -1    0    0    0  501 -0.00000000000E+00  0.00000000000E+00  0.37709480116E+03  0.37709480117E+03  0.25500000000E-02 0.  1.
          2   -1    0    0  501    0  0.00000000000E+00 -0.00000000000E+00 -0.28701448113E+04  0.28701448113E+04  0.25500000000E-02 0. -1.
    8880022    1    1    2    0    0 -0.25132056821E+03  0.91034170919E+03 -0.18843751756E+04  0.21133256992E+04  0.15294330000E+03 0.  0.
    8880022    1    1    2    0    0  0.25132056821E+03 -0.91034170919E+03 -0.60867483456E+03  0.11339139133E+04  0.15294330000E+03 0.  0.
<mgrwt>
<rscale>  0 0.95670043E+03</rscale>
<asrwt>0</asrwt>
<pdfrwt beam="1">  1        2 0.44156073E+00 0.95670043E+03</pdfrwt>
<pdfrwt beam="2">  1       -2 0.58014587E-01 0.95670043E+03</pdfrwt>
<totfact> 0.59785147E+00</totfact>
</mgrwt>
</event>
<event>
 4    1  0.1033139E-008  0.6009397E+03  0.7818608E-02  0.9903458E-01
         -2   -1    0    0    0  501 -0.00000000000E+00  0.00000000000E+00  0.96614072586E+03  0.96614072587E+03  0.25500000000E-02 0.  1.
          2   -1    0    0  501    0  0.00000000000E+00 -0.00000000000E+00 -0.11195026433E+04  0.11195026433E+04  0.25500000000E-02 0. -1.
    8880022    1    1    2    0    0  0.57581987749E+03 -0.78538667863E+02  0.77442733551E+03  0.98023783066E+03  0.15294330000E+03 0.  0.
    8880022    1    1    2    0    0 -0.57581987749E+03  0.78538667863E+02 -0.92778925295E+03  0.11054055385E+04  0.15294330000E+03 0.  0.
<mgrwt>
<rscale>  0 0.60093969E+03</rscale>
<asrwt>0</asrwt>
<pdfrwt beam="1">  1        2 0.17223118E+00 0.60093969E+03</pdfrwt>
<pdfrwt beam="2">  1       -2 0.14863703E+00 0.60093969E+03</pdfrwt>
<totfact> 0.67836438E+00</totfact>
</mgrwt>
</event>
<event>
 4    1  0.1033139E-008  0.1216499E+04  0.7818608E-02  0.9098536E-01
         -2   -1    0    0    0  501 -0.00000000000E+00  0.00000000000E+00  0.16355608886E+04  0.16355608886E+04  0.25500000000E-02 0.  1.
          2   -1    0    0  501    0  0.00000000000E+00 -0.00000000000E+00 -0.11683321729E+04  0.11683321729E+04  0.25500000000E-02 0. -1.
    8880022    1    1    2    0    0 -0.26241229147E+03 -0.11779722614E+04  0.89943543085E+03  0.15128960991E+04  0.15294330000E+03 0.  0.
    8880022    1    1    2    0    0  0.26241229147E+03  0.11779722614E+04 -0.43220671516E+03  0.12909969625E+04  0.15294330000E+03 0.  0.
<mgrwt>
<rscale>  0 0.12164993E+04</rscale>
<asrwt>0</asrwt>
<pdfrwt beam="1">  1        2 0.17974341E+00 0.12164993E+04</pdfrwt>
<pdfrwt beam="2">  1       -2 0.25162475E+00 0.12164993E+04</pdfrwt>
<totfact> 0.12069920E+00</totfact>
</mgrwt>
</event>
<event>
 4    1  0.1033139E-008  0.5506247E+03  0.7818608E-02  0.1001349E+00
         -2   -1    0    0    0  501 -0.00000000000E+00  0.00000000000E+00  0.31289128119E+03  0.31289128120E+03  0.25500000000E-02 0.  1.
          2   -1    0    0  501    0  0.00000000000E+00 -0.00000000000E+00 -0.12304238086E+04  0.12304238086E+04  0.25500000000E-02 0. -1.
    8880022    1    1    2    0    0 -0.14701707485E+03  0.50811602776E+03 -0.81446362606E+03  0.98312693441E+03  0.15294330000E+03 0.  0.
    8880022    1    1    2    0    0  0.14701707485E+03 -0.50811602776E+03 -0.10306890130E+03  0.56018815535E+03  0.15294330000E+03 0.  0.
<mgrwt>
<rscale>  0 0.55062471E+03</rscale>
<asrwt>0</asrwt>
<pdfrwt beam="1">  1        2 0.18929597E+00 0.55062471E+03</pdfrwt>
<pdfrwt beam="2">  1       -2 0.48137121E-01 0.55062471E+03</pdfrwt>
<totfact> 0.77050412E+01</totfact>
</mgrwt>
</event>
<event>
 4    1  0.1033139E-008  0.1271522E+04  0.7818608E-02  0.9052459E-01
         -2   -1    0    0    0  501 -0.00000000000E+00  0.00000000000E+00  0.20191237509E+04  0.20191237509E+04  0.25500000000E-02 0.  1.
          2   -1    0    0  501    0  0.00000000000E+00 -0.00000000000E+00 -0.99058953105E+03  0.99058953105E+03  0.25500000000E-02 0. -1.
    8880022    1    1    2    0    0  0.11206846151E+04  0.58089750907E+03  0.11730882326E+04  0.17300010338E+04  0.15294330000E+03 0.  0.
    8880022    1    1    2    0    0 -0.11206846151E+04 -0.58089750907E+03 -0.14455401272E+03  0.12797122482E+04  0.15294330000E+03 0.  0.
<mgrwt>
<rscale>  0 0.12715218E+04</rscale>
<asrwt>0</asrwt>
<pdfrwt beam="1">  1        2 0.15239839E+00 0.12715218E+04</pdfrwt>
<pdfrwt beam="2">  1       -2 0.31063442E+00 0.12715218E+04</pdfrwt>
<totfact> 0.67834721E-01</totfact>
</mgrwt>
</event>
<event>
 4    1  0.1033139E-008  0.4160488E+03  0.7818608E-02  0.1038360E+00
         -2   -1    0    0    0  501 -0.00000000000E+00  0.00000000000E+00  0.44668423117E+03  0.44668423118E+03  0.25500000000E-02 0.  1.
          2   -1    0    0  501    0  0.00000000000E+00 -0.00000000000E+00 -0.21952708013E+04  0.21952708013E+04  0.25500000000E-02 0. -1.
    8880022    1    1    2    0    0 -0.37852280401E+03  0.80158618439E+02 -0.20730231618E+04  0.21143608017E+04  0.15294330000E+03 0. -1.
    8880022    1    1    2    0    0  0.37852280401E+03 -0.80158618439E+02  0.32443659172E+03  0.52759423076E+03  0.15294330000E+03 0.  0.
<mgrwt>
<rscale>  0 0.41604876E+03</rscale>
<asrwt>0</asrwt>
<pdfrwt beam="1">  1        2 0.33773396E+00 0.41604876E+03</pdfrwt>
<pdfrwt beam="2">  1       -2 0.68720652E-01 0.41604876E+03</pdfrwt>
<totfact> 0.11220563E+01</totfact>
</mgrwt>
</event>
<event>
 4    1  0.1033139E-008  0.2067632E+04  0.7818608E-02  0.8575637E-01
         -2   -1    0    0    0  501 -0.00000000000E+00  0.00000000000E+00  0.30144872198E+04  0.30144872198E+04  0.25500000000E-02 0.  1.
          2   -1    0    0  501    0  0.00000000000E+00 -0.00000000000E+00 -0.18097720961E+04  0.18097720961E+04  0.25500000000E-02 0. -1.
    8880022    1    1    2    0    0  0.17088054892E+04 -0.11539902563E+04 -0.51966797731E+03  0.21319371874E+04  0.15294330000E+03 0.  0.
    8880022    1    1    2    0    0 -0.17088054892E+04  0.11539902563E+04  0.17243831010E+04  0.26923221285E+04  0.15294330000E+03 0.  0.
<mgrwt>
<rscale>  0 0.20676318E+04</rscale>
<asrwt>0</asrwt>
<pdfrwt beam="1">  1        2 0.27842648E+00 0.20676318E+04</pdfrwt>
<pdfrwt beam="2">  1       -2 0.46376726E+00 0.20676318E+04</pdfrwt>
<totfact> 0.21068753E-02</totfact>
</mgrwt>
</event>
<event>
 4    1  0.1033139E-008  0.1256837E+04  0.7818608E-02  0.9064512E-01
         -2   -1    0    0    0  501 -0.00000000000E+00  0.00000000000E+00  0.95134432639E+03  0.95134432639E+03  0.25500000000E-02 0.  1.
          2   -1    0    0  501    0  0.00000000000E+00 -0.00000000000E+00 -0.22060868829E+04  0.22060868829E+04  0.25500000000E-02 0. -1.
    8880022    1    1    2    0    0 -0.13825314652E+03 -0.12398120436E+04  0.15777920840E+03  0.12667019253E+04  0.15294330000E+03 0.  0.
    8880022    1    1    2    0    0  0.13825314652E+03  0.12398120436E+04 -0.14125217649E+04  0.18907292840E+04  0.15294330000E+03 0.  0.
<mgrwt>
<rscale>  0 0.12568371E+04</rscale>
<asrwt>0</asrwt>
<pdfrwt beam="1">  1        2 0.33939798E+00 0.12568371E+04</pdfrwt>
<pdfrwt beam="2">  1       -2 0.14636067E+00 0.12568371E+04</pdfrwt>
<totfact> 0.15867037E+00</totfact>
</mgrwt>
</event>
<event>
 4    1  0.1033139E-008  0.1622288E+04  0.7818608E-02  0.8806972E-01
         -2   -1    0    0    0  501 -0.00000000000E+00  0.00000000000E+00  0.13931007810E+04  0.13931007810E+04  0.25500000000E-02 0.  1.
          2   -1    0    0  501    0  0.00000000000E+00 -0.00000000000E+00 -0.29168471273E+04  0.29168471273E+04  0.25500000000E-02 0. -1.
    8880022    1    1    2    0    0  0.24418338056E+02 -0.16148774849E+04  0.51724763931E+03  0.17027513970E+04  0.15294330000E+03 0.  0.
    8880022    1    1    2    0    0 -0.24418338056E+02  0.16148774849E+04 -0.20409939856E+04  0.26071965114E+04  0.15294330000E+03 0.  0.
<mgrwt>
<rscale>  0 0.16222876E+04</rscale>
<asrwt>0</asrwt>
<pdfrwt beam="1">  1        2 0.44874571E+00 0.16222876E+04</pdfrwt>
<pdfrwt beam="2">  1       -2 0.21432320E+00 0.16222876E+04</pdfrwt>
<totfact> 0.19541037E-01</totfact>
</mgrwt>
</event>
<event>
 4    1  0.1033139E-008  0.9026169E+03  0.7818608E-02  0.9422316E-01
          2   -1    0    0  501    0  0.00000000000E+00  0.00000000000E+00  0.28039337460E+04  0.28039337460E+04  0.25500000000E-02 0. -1.
         -2   -1    0    0    0  501 -0.00000000000E+00 -0.00000000000E+00 -0.77318118832E+03  0.77318118832E+03  0.25500000000E-02 0.  1.
    8880022    1    1    2    0    0 -0.57387825798E+03  0.67969794136E+03 -0.39769625522E+03  0.98634654706E+03  0.15294330000E+03 0.  0.
    8880022    1    1    2    0    0  0.57387825798E+03 -0.67969794136E+03  0.24284488129E+04  0.25907683872E+04  0.15294330000E+03 0.  0.
<mgrwt>
<rscale>  0 0.90261686E+03</rscale>
<asrwt>0</asrwt>
<pdfrwt beam="1">  1        2 0.43137442E+00 0.90261686E+03</pdfrwt>
<pdfrwt beam="2">  1       -2 0.11895095E+00 0.90261686E+03</pdfrwt>
<totfact> 0.12856437E+00</totfact>
</mgrwt>
</event>
<event>
 4    1  0.1033139E-008  0.8012210E+03  0.7818608E-02  0.9558251E-01
          2   -1    0    0  501    0  0.00000000000E+00  0.00000000000E+00  0.21551607488E+04  0.21551607488E+04  0.25500000000E-02 0. -1.
         -2   -1    0    0    0  501 -0.00000000000E+00 -0.00000000000E+00 -0.65523321725E+03  0.65523321726E+03  0.25500000000E-02 0.  1.
    8880022    1    1    2    0    0 -0.76262791095E+03  0.19225549451E+03 -0.28779140485E+03  0.85133956296E+03  0.15294330000E+03 0.  0.
    8880022    1    1    2    0    0  0.76262791095E+03 -0.19225549451E+03  0.17877189364E+04  0.19590544031E+04  0.15294330000E+03 0. -1.
<mgrwt>
<rscale>  0 0.80122104E+03</rscale>
<asrwt>0</asrwt>
<pdfrwt beam="1">  1        2 0.33156319E+00 0.80122104E+03</pdfrwt>
<pdfrwt beam="2">  1       -2 0.10080511E+00 0.80122104E+03</pdfrwt>
<totfact> 0.45738620E+00</totfact>
</mgrwt>
</event>
<event>
 4    1  0.1033139E-008  0.4498861E+03  0.7818608E-02  0.1027756E+00
         -2   -1    0    0    0  501 -0.00000000000E+00  0.00000000000E+00  0.93092954327E+03  0.93092954327E+03  0.25500000000E-02 0.  1.
          2   -1    0    0  501    0  0.00000000000E+00 -0.00000000000E+00 -0.11182435836E+04  0.11182435836E+04  0.25500000000E-02 0. -1.
    8880022    1    1    2    0    0  0.20693228560E+03 -0.36903231142E+03  0.82594872724E+03  0.94052579483E+03  0.15294330000E+03 0.  0.
    8880022    1    1    2    0    0 -0.20693228560E+03  0.36903231142E+03 -0.10132627675E+04  0.11086473320E+04  0.15294330000E+03 0.  0.
<mgrwt>
<rscale>  0 0.44988606E+03</rscale>
<asrwt>0</asrwt>
<pdfrwt beam="1">  1        2 0.17203747E+00 0.44988606E+03</pdfrwt>
<pdfrwt beam="2">  1       -2 0.14321993E+00 0.44988606E+03</pdfrwt>
<totfact> 0.77054419E+00</totfact>
</mgrwt>
</event>
<event>
 4    1  0.1033139E-008  0.4149967E+03  0.7818608E-02  0.1038707E+00
          2   -1    0    0  501    0  0.00000000000E+00  0.00000000000E+00  0.11324924232E+04  0.11324924232E+04  0.25500000000E-02 0. -1.
         -2   -1    0    0    0  501 -0.00000000000E+00 -0.00000000000E+00 -0.87256881549E+03  0.87256881550E+03  0.25500000000E-02 0.  1.
    8880022    1    1    2    0    0 -0.36366573594E+03  0.12875495331E+03  0.10409512314E+04  0.11206255952E+04  0.15294330000E+03 0.  0.
    8880022    1    1    2    0    0  0.36366573594E+03 -0.12875495331E+03 -0.78102762368E+03  0.88443564349E+03  0.15294330000E+03 0.  0.
<mgrwt>
<rscale>  0 0.41499670E+03</rscale>
<asrwt>0</asrwt>
<pdfrwt beam="1">  1        2 0.17422960E+00 0.41499670E+03</pdfrwt>
<pdfrwt beam="2">  1       -2 0.13424136E+00 0.41499670E+03</pdfrwt>
<totfact> 0.89872789E+00</totfact>
</mgrwt>
</event>
<event>
 4    1  0.1033139E-008  0.7935679E+03  0.7818608E-02  0.9569374E-01
          2   -1    0    0  501    0  0.00000000000E+00  0.00000000000E+00  0.44272077297E+04  0.44272077297E+04  0.25500000000E-02 0. -1.
         -2   -1    0    0    0  501 -0.00000000000E+00 -0.00000000000E+00 -0.82374433167E+03  0.82374433168E+03  0.25500000000E-02 0.  1.
    8880022    1    1    2    0    0  0.32290144583E+03 -0.70858522071E+03  0.41897872343E+04  0.42642780257E+04  0.15294330000E+03 0.  0.
    8880022    1    1    2    0    0 -0.32290144583E+03  0.70858522071E+03 -0.58632383626E+03  0.98667403569E+03  0.15294330000E+03 0.  0.
<mgrwt>
<rscale>  0 0.79356790E+03</rscale>
<asrwt>0</asrwt>
<pdfrwt beam="1">  1        2 0.68110888E+00 0.79356790E+03</pdfrwt>
<pdfrwt beam="2">  1       -2 0.12672990E+00 0.79356790E+03</pdfrwt>
<totfact> 0.75457102E-02</totfact>
</mgrwt>
</event>
<event>
 4    1  0.1033139E-008  0.5323746E+03  0.7818608E-02  0.1005658E+00
          2   -1    0    0  501    0  0.00000000000E+00  0.00000000000E+00  0.12123001045E+04  0.12123001045E+04  0.25500000000E-02 0. -1.
         -2   -1    0    0    0  501 -0.00000000000E+00 -0.00000000000E+00 -0.10148458599E+04  0.10148458599E+04  0.25500000000E-02 0.  1.
    8880022    1    1    2    0    0 -0.18499303862E+03 -0.47519329353E+03 -0.87819489300E+03  0.10269610575E+04  0.15294330000E+03 0.  0.
    8880022    1    1    2    0    0  0.18499303862E+03  0.47519329353E+03  0.10756491376E+04  0.12001849069E+04  0.15294330000E+03 0.  0.
<mgrwt>
<rscale>  0 0.53237463E+03</rscale>
<asrwt>0</asrwt>
<pdfrwt beam="1">  1        2 0.18650771E+00 0.53237463E+03</pdfrwt>
<pdfrwt beam="2">  1       -2 0.15613013E+00 0.53237463E+03</pdfrwt>
<totfact> 0.53151957E+00</totfact>
</mgrwt>
</event>
<event>
 4    1  0.1033139E-008  0.1134941E+04  0.7818608E-02  0.9171789E-01
          2   -1    0    0  501    0  0.00000000000E+00  0.00000000000E+00  0.57010315771E+03  0.57010315771E+03  0.25500000000E-02 0. -1.
         -2   -1    0    0    0  501 -0.00000000000E+00 -0.00000000000E+00 -0.30590130386E+04  0.30590130386E+04  0.25500000000E-02 0.  1.
    8880022    1    1    2    0    0  0.45892061386E+03  0.10266896860E+04 -0.31672847158E+03  0.11783074382E+04  0.15294330000E+03 0.  0.
    8880022    1    1    2    0    0 -0.45892061386E+03 -0.10266896860E+04 -0.21721814094E+04  0.24508087582E+04  0.15294330000E+03 0.  0.
<mgrwt>
<rscale>  0 0.11349412E+04</rscale>
<asrwt>0</asrwt>
<pdfrwt beam="1">  1        2 0.87708180E-01 0.11349412E+04</pdfrwt>
<pdfrwt beam="2">  1       -2 0.47061738E+00 0.11349412E+04</pdfrwt>
<totfact> 0.13374465E-01</totfact>
</mgrwt>
</event>
<event>
 4    1  0.1033139E-008  0.1139797E+04  0.7818608E-02  0.9167248E-01
          2   -1    0    0  501    0  0.00000000000E+00  0.00000000000E+00  0.35506293272E+04  0.35506293272E+04  0.25500000000E-02 0. -1.
         -2   -1    0    0    0  501 -0.00000000000E+00 -0.00000000000E+00 -0.62202348956E+03  0.62202348956E+03  0.25500000000E-02 0.  1.
    8880022    1    1    2    0    0  0.78457201584E+03 -0.81252281604E+03  0.12551306357E+03  0.11466872969E+04  0.15294330000E+03 0.  0.
    8880022    1    1    2    0    0 -0.78457201584E+03  0.81252281604E+03  0.28030927740E+04  0.30259655199E+04  0.15294330000E+03 0.  0.
<mgrwt>
<rscale>  0 0.11397975E+04</rscale>
<asrwt>0</asrwt>
<pdfrwt beam="1">  1        2 0.54625067E+00 0.11397975E+04</pdfrwt>
<pdfrwt beam="2">  1       -2 0.95695921E-01 0.11397975E+04</pdfrwt>
<totfact> 0.69398860E-01</totfact>
</mgrwt>
</event>
<event>
 4    1  0.1033139E-008  0.5782893E+03  0.7818608E-02  0.9951501E-01
          2   -1    0    0  501    0  0.00000000000E+00  0.00000000000E+00  0.14168799491E+04  0.14168799491E+04  0.25500000000E-02 0. -1.
         -2   -1    0    0    0  501 -0.00000000000E+00 -0.00000000000E+00 -0.74219012107E+03  0.74219012108E+03  0.25500000000E-02 0.  1.
    8880022    1    1    2    0    0  0.27462310185E+03 -0.48539574963E+03  0.12288532996E+04  0.13581233254E+04  0.15294330000E+03 0.  0.
    8880022    1    1    2    0    0 -0.27462310185E+03  0.48539574963E+03 -0.55416347158E+03  0.80094674485E+03  0.15294330000E+03 0.  0.
<mgrwt>
<rscale>  0 0.57828932E+03</rscale>
<asrwt>0</asrwt>
<pdfrwt beam="1">  1        2 0.21798153E+00 0.57828932E+03</pdfrwt>
<pdfrwt beam="2">  1       -2 0.11418310E+00 0.57828932E+03</pdfrwt>
<totfact> 0.89244477E+00</totfact>
</mgrwt>
</event>
<event>
 4    1  0.1033139E-008  0.1574523E+04  0.7818608E-02  0.8836354E-01
         -2   -1    0    0    0  501 -0.00000000000E+00  0.00000000000E+00  0.22906860767E+04  0.22906860767E+04  0.25500000000E-02 0.  1.
          2   -1    0    0  501    0  0.00000000000E+00 -0.00000000000E+00 -0.16562153962E+04  0.16562153962E+04  0.25500000000E-02 0. -1.
    8880022    1    1    2    0    0  0.97971082086E+03  0.12230684743E+04  0.14789684584E+04  0.21602011803E+04  0.15294330000E+03 0.  0.
    8880022    1    1    2    0    0 -0.97971082086E+03 -0.12230684743E+04 -0.84449777800E+03  0.17867002926E+04  0.15294330000E+03 0.  0.
<mgrwt>
<rscale>  0 0.15745226E+04</rscale>
<asrwt>0</asrwt>
<pdfrwt beam="1">  1        2 0.25480237E+00 0.15745226E+04</pdfrwt>
<pdfrwt beam="2">  1       -2 0.35241324E+00 0.15745226E+04</pdfrwt>
<totfact> 0.14534615E-01</totfact>
</mgrwt>
</event>
<event>
 4    1  0.1033139E-008  0.5589521E+03  0.7818608E-02  0.9994428E-01
         -2   -1    0    0    0  501 -0.00000000000E+00  0.00000000000E+00  0.38462741481E+03  0.38462741482E+03  0.25500000000E-02 0.  1.
          2   -1    0    0  501    0  0.00000000000E+00 -0.00000000000E+00 -0.20496234121E+04  0.20496234121E+04  0.25500000000E-02 0. -1.
    8880022    1    1    2    0    0 -0.13289484273E+03  0.52093644534E+03 -0.17781739880E+04  0.18639555263E+04  0.15294330000E+03 0.  0.
    8880022    1    1    2    0    0  0.13289484273E+03 -0.52093644534E+03  0.11317799074E+03  0.57029530062E+03  0.15294330000E+03 0.  0.
<mgrwt>
<rscale>  0 0.55895212E+03</rscale>
<asrwt>0</asrwt>
<pdfrwt beam="1">  1        2 0.31532667E+00 0.55895212E+03</pdfrwt>
<pdfrwt beam="2">  1       -2 0.59173450E-01 0.55895212E+03</pdfrwt>
<totfact> 0.17871333E+01</totfact>
</mgrwt>
</event>
<event>
 4    1  0.1033139E-008  0.6381904E+03  0.7818608E-02  0.9829195E-01
         -2   -1    0    0    0  501 -0.00000000000E+00  0.00000000000E+00  0.60100456697E+03  0.60100456697E+03  0.25500000000E-02 0.  1.
          2   -1    0    0  501    0  0.00000000000E+00 -0.00000000000E+00 -0.36450209815E+04  0.36450209815E+04  0.25500000000E-02 0. -1.
    8880022    1    1    2    0    0  0.61774383615E+03 -0.47831432408E+02 -0.34375275467E+04  0.34962669493E+04  0.15294330000E+03 0.  0.
    8880022    1    1    2    0    0 -0.61774383615E+03  0.47831432408E+02  0.39351113214E+03  0.74975859926E+03  0.15294330000E+03 0.  0.
<mgrwt>
<rscale>  0 0.63819037E+03</rscale>
<asrwt>0</asrwt>
<pdfrwt beam="1">  1        2 0.56077244E+00 0.63819037E+03</pdfrwt>
<pdfrwt beam="2">  1       -2 0.92462243E-01 0.63819037E+03</pdfrwt>
<totfact> 0.71801277E-01</totfact>
</mgrwt>
</event>
<event>
 4    1  0.1033139E-008  0.1116213E+04  0.7818608E-02  0.9189533E-01
          2   -1    0    0  501    0  0.00000000000E+00  0.00000000000E+00  0.27072407656E+04  0.27072407656E+04  0.25500000000E-02 0. -1.
         -2   -1    0    0    0  501 -0.00000000000E+00 -0.00000000000E+00 -0.56849866814E+03  0.56849866815E+03  0.25500000000E-02 0.  1.
    8880022    1    1    2    0    0  0.63065556141E+03 -0.90819176083E+03  0.35457342107E+03  0.11711757663E+04  0.15294330000E+03 0.  0.
    8880022    1    1    2    0    0 -0.63065556141E+03  0.90819176083E+03  0.17841686763E+04  0.21045636674E+04  0.15294330000E+03 0.  0.
<mgrwt>
<rscale>  0 0.11162125E+04</rscale>
<asrwt>0</asrwt>
<pdfrwt beam="1">  1        2 0.41649858E+00 0.11162125E+04</pdfrwt>
<pdfrwt beam="2">  1       -2 0.87461334E-01 0.11162125E+04</pdfrwt>
<totfact> 0.29620188E+00</totfact>
</mgrwt>
</event>
<event>
 4    1  0.1033139E-008  0.7331009E+03  0.7818608E-02  0.9662242E-01
          2   -1    0    0  501    0  0.00000000000E+00  0.00000000000E+00  0.22055126894E+04  0.22055126894E+04  0.25500000000E-02 0. -1.
         -2   -1    0    0    0  501 -0.00000000000E+00 -0.00000000000E+00 -0.97796661673E+03  0.97796661673E+03  0.25500000000E-02 0.  1.
    8880022    1    1    2    0    0 -0.25672470839E+03 -0.66943085866E+03 -0.76547747096E+03  0.10599021945E+04  0.15294330000E+03 0.  0.
    8880022    1    1    2    0    0  0.25672470839E+03  0.66943085866E+03  0.19930235437E+04  0.21235771116E+04  0.15294330000E+03 0.  0.
<mgrwt>
<rscale>  0 0.73310088E+03</rscale>
<asrwt>0</asrwt>
<pdfrwt beam="1">  1        2 0.33930964E+00 0.73310088E+03</pdfrwt>
<pdfrwt beam="2">  1       -2 0.15045640E+00 0.73310088E+03</pdfrwt>
<totfact> 0.15955018E+00</totfact>
</mgrwt>
</event>
<event>
 4    1  0.1033139E-008  0.5810181E+03  0.7818608E-02  0.9945589E-01
         -2   -1    0    0    0  501 -0.00000000000E+00  0.00000000000E+00  0.49849210020E+03  0.49849210021E+03  0.25500000000E-02 0.  1.
          2   -1    0    0  501    0  0.00000000000E+00 -0.00000000000E+00 -0.13289987143E+04  0.13289987143E+04  0.25500000000E-02 0. -1.
    8880022    1    1    2    0    0  0.29649656282E+03 -0.47568909969E+03  0.22465475510E+03  0.62293799317E+03  0.15294330000E+03 0.  0.
    8880022    1    1    2    0    0 -0.29649656282E+03  0.47568909969E+03 -0.10551613692E+04  0.12045528213E+04  0.15294330000E+03 0. -1.
<mgrwt>
<rscale>  0 0.58101806E+03</rscale>
<asrwt>0</asrwt>
<pdfrwt beam="1">  1        2 0.20446134E+00 0.58101806E+03</pdfrwt>
<pdfrwt beam="2">  1       -2 0.76691093E-01 0.58101806E+03</pdfrwt>
<totfact> 0.25203406E+01</totfact>
</mgrwt>
</event>
<event>
 4    1  0.1033139E-008  0.7436833E+03  0.7818608E-02  0.9645313E-01
         -2   -1    0    0    0  501 -0.00000000000E+00  0.00000000000E+00  0.67768284074E+03  0.67768284075E+03  0.25500000000E-02 0.  1.
          2   -1    0    0  501    0  0.00000000000E+00 -0.00000000000E+00 -0.30733383683E+04  0.30733383683E+04  0.25500000000E-02 0. -1.
    8880022    1    1    2    0    0  0.30620469150E+03 -0.66023619630E+03 -0.28051462322E+04  0.29020527536E+04  0.15294330000E+03 0.  0.
    8880022    1    1    2    0    0 -0.30620469150E+03  0.66023619630E+03  0.40949070466E+03  0.84896845537E+03  0.15294330000E+03 0.  0.
<mgrwt>
<rscale>  0 0.74368327E+03</rscale>
<asrwt>0</asrwt>
<pdfrwt beam="1">  1        2 0.47282128E+00 0.74368327E+03</pdfrwt>
<pdfrwt beam="2">  1       -2 0.10425890E+00 0.74368327E+03</pdfrwt>
<totfact> 0.12546389E+00</totfact>
</mgrwt>
</event>
<event>
 4    1  0.1033139E-008  0.1390835E+04  0.7818608E-02  0.8960479E-01
          2   -1    0    0  501    0  0.00000000000E+00  0.00000000000E+00  0.24855742316E+04  0.24855742316E+04  0.25500000000E-02 0. -1.
         -2   -1    0    0    0  501 -0.00000000000E+00 -0.00000000000E+00 -0.11717087964E+04  0.11717087964E+04  0.25500000000E-02 0.  1.
    8880022    1    1    2    0    0 -0.57788306902E+03 -0.12558195309E+04  0.17165835870E+04  0.22093171796E+04  0.15294330000E+03 0.  0.
    8880022    1    1    2    0    0  0.57788306902E+03  0.12558195309E+04 -0.40271815182E+03  0.14479658485E+04  0.15294330000E+03 0.  0.
<mgrwt>
<rscale>  0 0.13908354E+04</rscale>
<asrwt>0</asrwt>
<pdfrwt beam="1">  1        2 0.38239603E+00 0.13908354E+04</pdfrwt>
<pdfrwt beam="2">  1       -2 0.18026289E+00 0.13908354E+04</pdfrwt>
<totfact> 0.61059306E-01</totfact>
</mgrwt>
</event>
<event>
 4    1  0.1033139E-008  0.7137156E+03  0.7818608E-02  0.9694060E-01
          2   -1    0    0  501    0  0.00000000000E+00  0.00000000000E+00  0.10138061914E+04  0.10138061914E+04  0.25500000000E-02 0. -1.
         -2   -1    0    0    0  501 -0.00000000000E+00 -0.00000000000E+00 -0.87523109186E+03  0.87523109186E+03  0.25500000000E-02 0.  1.
    8880022    1    1    2    0    0  0.60935052631E+03 -0.33865940936E+03  0.68570423300E+03  0.98973744379E+03  0.15294330000E+03 0.  0.
    8880022    1    1    2    0    0 -0.60935052631E+03  0.33865940936E+03 -0.54712913350E+03  0.89929983943E+03  0.15294330000E+03 0.  0.
<mgrwt>
<rscale>  0 0.71371557E+03</rscale>
<asrwt>0</asrwt>
<pdfrwt beam="1">  1        2 0.15597018E+00 0.71371557E+03</pdfrwt>
<pdfrwt beam="2">  1       -2 0.13465094E+00 0.71371557E+03</pdfrwt>
<totfact> 0.10019184E+01</totfact>
</mgrwt>
</event>
<event>
 4    1  0.1033139E-008  0.1707909E+03  0.7818608E-02  0.1177026E+00
          2   -1    0    0  501    0  0.00000000000E+00  0.00000000000E+00  0.77524604125E+03  0.77524604126E+03  0.25500000000E-02 0. -1.
         -2   -1    0    0    0  501 -0.00000000000E+00 -0.00000000000E+00 -0.17733985789E+03  0.17733985791E+03  0.25500000000E-02 0.  1.
    8880022    1    1    2    0    0 -0.72246910756E+02  0.23627933887E+02 -0.12380354572E+03  0.21094280344E+03  0.15294330000E+03 0.  0.
    8880022    1    1    2    0    0  0.72246910756E+02 -0.23627933887E+02  0.72170972908E+03  0.74164309573E+03  0.15294330000E+03 0. -1.
<mgrwt>
<rscale>  0 0.17079095E+03</rscale>
<asrwt>0</asrwt>
<pdfrwt beam="1">  1        2 0.11926862E+00 0.17079095E+03</pdfrwt>
<pdfrwt beam="2">  1       -2 0.27283055E-01 0.17079095E+03</pdfrwt>
<totfact> 0.45519788E+02</totfact>
</mgrwt>
</event>
<event>
 4    1  0.1033139E-008  0.5269254E+03  0.7818608E-02  0.1006980E+00
          2   -1    0    0  501    0  0.00000000000E+00  0.00000000000E+00  0.81226317289E+03  0.81226317289E+03  0.25500000000E-02 0. -1.
         -2   -1    0    0    0  501 -0.00000000000E+00 -0.00000000000E+00 -0.22451669108E+04  0.22451669108E+04  0.25500000000E-02 0.  1.
    8880022    1    1    2    0    0 -0.37115693253E+03 -0.34132285939E+03 -0.21239921437E+04  0.21883768054E+04  0.15294330000E+03 0.  1.
    8880022    1    1    2    0    0  0.37115693253E+03  0.34132285939E+03  0.69108840578E+03  0.86905327830E+03  0.15294330000E+03 0.  0.
<mgrwt>
<rscale>  0 0.52692544E+03</rscale>
<asrwt>0</asrwt>
<pdfrwt beam="1">  1        2 0.12496357E+00 0.52692544E+03</pdfrwt>
<pdfrwt beam="2">  1       -2 0.34541029E+00 0.52692544E+03</pdfrwt>
<totfact> 0.62530141E-01</totfact>
</mgrwt>
</event>
<event>
 4    1  0.1033139E-008  0.1139094E+04  0.7818608E-02  0.9167904E-01
          2   -1    0    0  501    0  0.00000000000E+00  0.00000000000E+00  0.23732089597E+04  0.23732089597E+04  0.25500000000E-02 0. -1.
         -2   -1    0    0    0  501 -0.00000000000E+00 -0.00000000000E+00 -0.12744301024E+04  0.12744301024E+04  0.25500000000E-02 0.  1.
    8880022    1    1    2    0    0  0.11204022286E+04 -0.13727096202E+03  0.19275381854E+04  0.22389594860E+04  0.15294330000E+03 0.  0.
    8880022    1    1    2    0    0 -0.11204022286E+04  0.13727096202E+03 -0.82875932812E+03  0.14086795760E+04  0.15294330000E+03 0.  1.
<mgrwt>
<rscale>  0 0.11390944E+04</rscale>
<asrwt>0</asrwt>
<pdfrwt beam="1">  1        2 0.36510907E+00 0.11390944E+04</pdfrwt>
<pdfrwt beam="2">  1       -2 0.19606617E+00 0.11390944E+04</pdfrwt>
<totfact> 0.57151779E-01</totfact>
</mgrwt>
</event>
<event>
 4    1  0.1033139E-008  0.3835761E+03  0.7818608E-02  0.1049620E+00
          2   -1    0    0  501    0  0.00000000000E+00  0.00000000000E+00  0.47461072334E+03  0.47461072335E+03  0.25500000000E-02 0. -1.
         -2   -1    0    0    0  501 -0.00000000000E+00 -0.00000000000E+00 -0.53582670893E+03  0.53582670893E+03  0.25500000000E-02 0.  1.
    8880022    1    1    2    0    0 -0.34947280673E+03  0.40096604350E+02 -0.35859168645E+03  0.52508916474E+03  0.15294330000E+03 0.  0.
    8880022    1    1    2    0    0  0.34947280673E+03 -0.40096604350E+02  0.29737570087E+03  0.48534826754E+03  0.15294330000E+03 0.  0.
<mgrwt>
<rscale>  0 0.38357611E+03</rscale>
<asrwt>0</asrwt>
<pdfrwt beam="1">  1        2 0.73017034E-01 0.38357611E+03</pdfrwt>
<pdfrwt beam="2">  1       -2 0.82434879E-01 0.38357611E+03</pdfrwt>
<totfact> 0.87779562E+01</totfact>
</mgrwt>
</event>
<event>
 4    1  0.1033139E-008  0.1005893E+04  0.7818608E-02  0.9302106E-01
          2   -1    0    0  501    0  0.00000000000E+00  0.00000000000E+00  0.82708756180E+03  0.82708756181E+03  0.25500000000E-02 0. -1.
         -2   -1    0    0    0  501 -0.00000000000E+00 -0.00000000000E+00 -0.18210431846E+04  0.18210431846E+04  0.25500000000E-02 0.  1.
    8880022    1    1    2    0    0 -0.39178395252E+03 -0.91374692267E+03  0.26157792370E+03  0.10393472795E+04  0.15294330000E+03 0.  0.
    8880022    1    1    2    0    0  0.39178395252E+03  0.91374692267E+03 -0.12555335465E+04  0.16087834670E+04  0.15294330000E+03 0.  0.
<mgrwt>
<rscale>  0 0.10058925E+04</rscale>
<asrwt>0</asrwt>
<pdfrwt beam="1">  1        2 0.12724424E+00 0.10058925E+04</pdfrwt>
<pdfrwt beam="2">  1       -2 0.28016049E+00 0.10058925E+04</pdfrwt>
<totfact> 0.13850324E+00</totfact>
</mgrwt>
</event>
<event>
 4    1  0.1033139E-008  0.8305531E+03  0.7818608E-02  0.9516816E-01
          2   -1    0    0  501    0  0.00000000000E+00  0.00000000000E+00  0.23588413422E+04  0.23588413422E+04  0.25500000000E-02 0. -1.
         -2   -1    0    0    0  501 -0.00000000000E+00 -0.00000000000E+00 -0.72250335482E+03  0.72250335483E+03  0.25500000000E-02 0.  1.
    8880022    1    1    2    0    0  0.40923146272E+03 -0.70636846565E+03  0.20068267014E+04  0.21719051226E+04  0.15294330000E+03 0.  0.
    8880022    1    1    2    0    0 -0.40923146272E+03  0.70636846565E+03 -0.37048871397E+03  0.90943957443E+03  0.15294330000E+03 0.  0.
<mgrwt>
<rscale>  0 0.83055310E+03</rscale>
<asrwt>0</asrwt>
<pdfrwt beam="1">  1        2 0.36289867E+00 0.83055310E+03</pdfrwt>
<pdfrwt beam="2">  1       -2 0.11115436E+00 0.83055310E+03</pdfrwt>
<totfact> 0.27730413E+00</totfact>
</mgrwt>
</event>
<event>
 4    1  0.1033139E-008  0.8818747E+03  0.7818608E-02  0.9448527E-01
          2   -1    0    0  501    0  0.00000000000E+00  0.00000000000E+00  0.26541694243E+04  0.26541694243E+04  0.25500000000E-02 0. -1.
         -2   -1    0    0    0  501 -0.00000000000E+00 -0.00000000000E+00 -0.39163902046E+03  0.39163902047E+03  0.25500000000E-02 0.  1.
    8880022    1    1    2    0    0  0.24922509965E+03  0.83198451360E+03  0.18955020064E+04  0.20906053885E+04  0.15294330000E+03 0.  0.
    8880022    1    1    2    0    0 -0.24922509965E+03 -0.83198451360E+03  0.36702839744E+03  0.95520305627E+03  0.15294330000E+03 0.  0.
<mgrwt>
<rscale>  0 0.88187473E+03</rscale>
<asrwt>0</asrwt>
<pdfrwt beam="1">  1        2 0.40833376E+00 0.88187473E+03</pdfrwt>
<pdfrwt beam="2">  1       -2 0.60252157E-01 0.88187473E+03</pdfrwt>
<totfact> 0.74868435E+00</totfact>
</mgrwt>
</event>
<event>
 4    1  0.1033139E-008  0.1132802E+04  0.7818608E-02  0.9173798E-01
         -2   -1    0    0    0  501 -0.00000000000E+00  0.00000000000E+00  0.66415594940E+03  0.66415594941E+03  0.25500000000E-02 0.  1.
          2   -1    0    0  501    0  0.00000000000E+00 -0.00000000000E+00 -0.20694595289E+04  0.20694595289E+04  0.25500000000E-02 0. -1.
    8880022    1    1    2    0    0  0.34212069966E+02 -0.11219083074E+04 -0.35056506238E+03  0.11858061527E+04  0.15294330000E+03 0.  0.
    8880022    1    1    2    0    0 -0.34212069966E+02  0.11219083074E+04 -0.10547385172E+04  0.15478093256E+04  0.15294330000E+03 0.  0.
<mgrwt>
<rscale>  0 0.11328020E+04</rscale>
<asrwt>0</asrwt>
<pdfrwt beam="1">  1        2 0.31837839E+00 0.11328020E+04</pdfrwt>
<pdfrwt beam="2">  1       -2 0.10217784E+00 0.11328020E+04</pdfrwt>
<totfact> 0.47283877E+00</totfact>
</mgrwt>
</event>
<event>
 4    1  0.1033139E-008  0.3468147E+03  0.7818608E-02  0.1063930E+00
         -2   -1    0    0    0  501 -0.00000000000E+00  0.00000000000E+00  0.31502755974E+03  0.31502755975E+03  0.25500000000E-02 0.  1.
          2   -1    0    0  501    0  0.00000000000E+00 -0.00000000000E+00 -0.15598797710E+04  0.15598797710E+04  0.25500000000E-02 0. -1.
    8880022    1    1    2    0    0  0.30303708818E+02  0.30979103215E+03 -0.14371114130E+04  0.14783672293E+04  0.15294330000E+03 0.  0.
    8880022    1    1    2    0    0 -0.30303708818E+02 -0.30979103215E+03  0.19225920173E+03  0.39654010142E+03  0.15294330000E+03 0.  0.
<mgrwt>
<rscale>  0 0.34681472E+03</rscale>
<asrwt>0</asrwt>
<pdfrwt beam="1">  1        2 0.23998150E+00 0.34681472E+03</pdfrwt>
<pdfrwt beam="2">  1       -2 0.48465779E-01 0.34681472E+03</pdfrwt>
<totfact> 0.51552551E+01</totfact>
</mgrwt>
</event>
<event>
 4    1  0.1033139E-008  0.1534793E+03  0.7818608E-02  0.1196262E+00
          2   -1    0    0  501    0  0.00000000000E+00  0.00000000000E+00  0.16100637739E+04  0.16100637739E+04  0.25500000000E-02 0. -1.
         -2   -1    0    0    0  501 -0.00000000000E+00 -0.00000000000E+00 -0.16758971331E+03  0.16758971333E+03  0.25500000000E-02 0.  1.
    8880022    1    1    2    0    0  0.76816722566E+01 -0.10257997592E+02 -0.12790705279E+03  0.19979014433E+03  0.15294330000E+03 0.  0.
    8880022    1    1    2    0    0 -0.76816722566E+01  0.10257997592E+02  0.15703811134E+04  0.15778633429E+04  0.15294330000E+03 0. -1.
<mgrwt>
<rscale>  0 0.15347927E+03</rscale>
<asrwt>0</asrwt>
<pdfrwt beam="1">  1        2 0.24770212E+00 0.15347927E+03</pdfrwt>
<pdfrwt beam="2">  1       -2 0.25783033E-01 0.15347927E+03</pdfrwt>
<totfact> 0.16760545E+02</totfact>
</mgrwt>
</event>
<event>
 4    1  0.1033139E-008  0.4167977E+03  0.7818608E-02  0.1038114E+00
          2   -1    0    0  501    0  0.00000000000E+00  0.00000000000E+00  0.10929850492E+04  0.10929850492E+04  0.25500000000E-02 0. -1.
         -2   -1    0    0    0  501 -0.00000000000E+00 -0.00000000000E+00 -0.85794558352E+03  0.85794558352E+03  0.25500000000E-02 0.  1.
    8880022    1    1    2    0    0 -0.34142867993E+03  0.18372562360E+03  0.99800465996E+03  0.10815422334E+04  0.15294330000E+03 0.  0.
    8880022    1    1    2    0    0  0.34142867993E+03 -0.18372562360E+03 -0.76296519428E+03  0.86938839936E+03  0.15294330000E+03 0.  0.
<mgrwt>
<rscale>  0 0.41679767E+03</rscale>
<asrwt>0</asrwt>
<pdfrwt beam="1">  1        2 0.16815155E+00 0.41679767E+03</pdfrwt>
<pdfrwt beam="2">  1       -2 0.13199163E+00 0.41679767E+03</pdfrwt>
<totfact> 0.98966158E+00</totfact>
</mgrwt>
</event>
<event>
 4    1  0.1033139E-008  0.4996768E+03  0.7818608E-02  0.1013863E+00
          2   -1    0    0  501    0  0.00000000000E+00  0.00000000000E+00  0.81807588777E+03  0.81807588778E+03  0.25500000000E-02 0. -1.
         -2   -1    0    0    0  501 -0.00000000000E+00 -0.00000000000E+00 -0.66849498937E+03  0.66849498938E+03  0.25500000000E-02 0.  1.
    8880022    1    1    2    0    0  0.31076037335E+03 -0.36015718139E+03 -0.47315355580E+03  0.68815052520E+03  0.15294330000E+03 0.  0.
    8880022    1    1    2    0    0 -0.31076037335E+03  0.36015718139E+03  0.62273445420E+03  0.79842035195E+03  0.15294330000E+03 0.  0.
<mgrwt>
<rscale>  0 0.49967675E+03</rscale>
<asrwt>0</asrwt>
<pdfrwt beam="1">  1        2 0.12585783E+00 0.49967675E+03</pdfrwt>
<pdfrwt beam="2">  1       -2 0.10284538E+00 0.49967675E+03</pdfrwt>
<totfact> 0.26948538E+01</totfact>
</mgrwt>
</event>
<event>
 4    1  0.1033139E-008  0.8332973E+03  0.7818608E-02  0.9513033E-01
         -2   -1    0    0    0  501 -0.00000000000E+00  0.00000000000E+00  0.16563057446E+04  0.16563057446E+04  0.25500000000E-02 0.  1.
          2   -1    0    0  501    0  0.00000000000E+00 -0.00000000000E+00 -0.14293177034E+04  0.14293177034E+04  0.25500000000E-02 0. -1.
    8880022    1    1    2    0    0  0.42329251538E+03 -0.70129603260E+03 -0.11834661008E+04  0.14474033106E+04  0.15294330000E+03 0.  0.
    8880022    1    1    2    0    0 -0.42329251538E+03  0.70129603260E+03  0.14104541420E+04  0.16382201374E+04  0.15294330000E+03 0.  0.
<mgrwt>
<rscale>  0 0.83329727E+03</rscale>
<asrwt>0</asrwt>
<pdfrwt beam="1">  1        2 0.21989503E+00 0.83329727E+03</pdfrwt>
<pdfrwt beam="2">  1       -2 0.25481627E+00 0.83329727E+03</pdfrwt>
<totfact> 0.85728984E-01</totfact>
</mgrwt>
</event>
<event>
 4    1  0.1033139E-008  0.9345743E+03  0.7818608E-02  0.9383365E-01
          2   -1    0    0  501    0  0.00000000000E+00  0.00000000000E+00  0.15288036050E+04  0.15288036050E+04  0.25500000000E-02 0. -1.
         -2   -1    0    0    0  501 -0.00000000000E+00 -0.00000000000E+00 -0.88296573570E+03  0.88296573571E+03  0.25500000000E-02 0.  1.
    8880022    1    1    2    0    0  0.88478100553E+03  0.25922968006E+03  0.10393387987E+04  0.13977318220E+04  0.15294330000E+03 0.  0.
    8880022    1    1    2    0    0 -0.88478100553E+03 -0.25922968006E+03 -0.39350092944E+03  0.10140375187E+04  0.15294330000E+03 0.  0.
<mgrwt>
<rscale>  0 0.93457429E+03</rscale>
<asrwt>0</asrwt>
<pdfrwt beam="1">  1        2 0.23520055E+00 0.93457429E+03</pdfrwt>
<pdfrwt beam="2">  1       -2 0.13584088E+00 0.93457429E+03</pdfrwt>
<totfact> 0.47525173E+00</totfact>
</mgrwt>
</event>
<event>
 4    1  0.1033139E-008  0.1126539E+04  0.7818608E-02  0.9179704E-01
         -2   -1    0    0    0  501 -0.00000000000E+00  0.00000000000E+00  0.18841731965E+04  0.18841731965E+04  0.25500000000E-02 0.  1.
          2   -1    0    0  501    0  0.00000000000E+00 -0.00000000000E+00 -0.12224062224E+04  0.12224062224E+04  0.25500000000E-02 0. -1.
    8880022    1    1    2    0    0 -0.66866325432E+03 -0.89363769740E+03  0.13716966903E+04  0.17750048859E+04  0.15294330000E+03 0.  0.
    8880022    1    1    2    0    0  0.66866325432E+03  0.89363769740E+03 -0.70992971617E+03  0.13315745330E+04  0.15294330000E+03 0.  0.
<mgrwt>
<rscale>  0 0.11265392E+04</rscale>
<asrwt>0</asrwt>
<pdfrwt beam="1">  1        2 0.18806250E+00 0.11265392E+04</pdfrwt>
<pdfrwt beam="2">  1       -2 0.28987280E+00 0.11265392E+04</pdfrwt>
<totfact> 0.66300496E-01</totfact>
</mgrwt>
</event>
<event>
 4    1  0.1033139E-008  0.1952737E+03  0.7818608E-02  0.1153789E+00
         -2   -1    0    0    0  501 -0.00000000000E+00  0.00000000000E+00  0.12441231534E+04  0.12441231534E+04  0.25500000000E-02 0.  1.
          2   -1    0    0  501    0  0.00000000000E+00 -0.00000000000E+00 -0.17707020087E+04  0.17707020087E+04  0.25500000000E-02 0. -1.
    8880022    1    1    2    0    0  0.35033112169E+02 -0.11624473353E+03  0.12310201047E+04  0.12464117732E+04  0.15294330000E+03 0.  0.
    8880022    1    1    2    0    0 -0.35033112169E+02  0.11624473353E+03 -0.17575989600E+04  0.17684133890E+04  0.15294330000E+03 0.  0.
<mgrwt>
<rscale>  0 0.19527368E+03</rscale>
<asrwt>0</asrwt>
<pdfrwt beam="1">  1        2 0.27241569E+00 0.19527368E+03</pdfrwt>
<pdfrwt beam="2">  1       -2 0.19140356E+00 0.19527368E+03</pdfrwt>
<totfact> 0.17200067E+00</totfact>
</mgrwt>
</event>
<event>
 4    1  0.1033139E-008  0.2862536E+03  0.7818608E-02  0.1092322E+00
         -2   -1    0    0    0  501 -0.00000000000E+00  0.00000000000E+00  0.39718793884E+03  0.39718793885E+03  0.25500000000E-02 0.  1.
          2   -1    0    0  501    0  0.00000000000E+00 -0.00000000000E+00 -0.10282385803E+04  0.10282385803E+04  0.25500000000E-02 0. -1.
    8880022    1    1    2    0    0  0.17273965063E+03  0.16944173458E+03  0.32169076385E+03  0.43061129674E+03  0.15294330000E+03 0.  0.
    8880022    1    1    2    0    0 -0.17273965063E+03 -0.16944173458E+03 -0.95274140532E+03  0.99481522241E+03  0.15294330000E+03 0.  0.
<mgrwt>
<rscale>  0 0.28625363E+03</rscale>
<asrwt>0</asrwt>
<pdfrwt beam="1">  1        2 0.15819055E+00 0.28625363E+03</pdfrwt>
<pdfrwt beam="2">  1       -2 0.61105837E-01 0.28625363E+03</pdfrwt>
<totfact> 0.64929283E+01</totfact>
</mgrwt>
</event>
<event>
 4    1  0.1033139E-008  0.1857465E+04  0.7818608E-02  0.8676323E-01
         -2   -1    0    0    0  501 -0.00000000000E+00  0.00000000000E+00  0.18794450093E+04  0.18794450093E+04  0.25500000000E-02 0.  1.
          2   -1    0    0  501    0  0.00000000000E+00 -0.00000000000E+00 -0.20464161849E+04  0.20464161849E+04  0.25500000000E-02 0. -1.
    8880022    1    1    2    0    0 -0.14945257112E+04 -0.10923266709E+04 -0.71330135898E+03  0.19897173516E+04  0.15294330000E+03 0.  0.
    8880022    1    1    2    0    0  0.14945257112E+04  0.10923266709E+04  0.54633018332E+03  0.19361438427E+04  0.15294330000E+03 0.  0.
<mgrwt>
<rscale>  0 0.18574650E+04</rscale>
<asrwt>0</asrwt>
<pdfrwt beam="1">  1        2 0.31483326E+00 0.18574650E+04</pdfrwt>
<pdfrwt beam="2">  1       -2 0.28914539E+00 0.18574650E+04</pdfrwt>
<totfact> 0.21044010E-01</totfact>
</mgrwt>
</event>
<event>
 4    1  0.1033139E-008  0.7402884E+03  0.7818608E-02  0.9650711E-01
          2   -1    0    0  501    0  0.00000000000E+00  0.00000000000E+00  0.17341205588E+04  0.17341205588E+04  0.25500000000E-02 0. -1.
         -2   -1    0    0    0  501 -0.00000000000E+00 -0.00000000000E+00 -0.69889264276E+03  0.69889264277E+03  0.25500000000E-02 0.  1.
    8880022    1    1    2    0    0 -0.22206344855E+03  0.68943680178E+03  0.14180089751E+04  0.15996175747E+04  0.15294330000E+03 0.  0.
    8880022    1    1    2    0    0  0.22206344855E+03 -0.68943680178E+03 -0.38278105900E+03  0.83339562692E+03  0.15294330000E+03 0.  0.
<mgrwt>
<rscale>  0 0.74028841E+03</rscale>
<asrwt>0</asrwt>
<pdfrwt beam="1">  1        2 0.26678777E+00 0.74028841E+03</pdfrwt>
<pdfrwt beam="2">  1       -2 0.10752195E+00 0.74028841E+03</pdfrwt>
<totfact> 0.67208203E+00</totfact>
</mgrwt>
</event>
<event>
 4    1  0.1033139E-008  0.8719644E+03  0.7818608E-02  0.9461322E-01
          2   -1    0    0  501    0  0.00000000000E+00  0.00000000000E+00  0.33541944326E+04  0.33541944326E+04  0.25500000000E-02 0. -1.
         -2   -1    0    0    0  501 -0.00000000000E+00 -0.00000000000E+00 -0.52110585023E+03  0.52110585024E+03  0.25500000000E-02 0.  1.
    8880022    1    1    2    0    0 -0.61711507769E+03 -0.59674050905E+03 -0.39926814118E+02  0.87287803144E+03  0.15294330000E+03 0.  0.
    8880022    1    1    2    0    0  0.61711507769E+03  0.59674050905E+03  0.28730153965E+04  0.30024222514E+04  0.15294330000E+03 0. -1.
<mgrwt>
<rscale>  0 0.87196440E+03</rscale>
<asrwt>0</asrwt>
<pdfrwt beam="1">  1        2 0.51602991E+00 0.87196440E+03</pdfrwt>
<pdfrwt beam="2">  1       -2 0.80170131E-01 0.87196440E+03</pdfrwt>
<totfact> 0.14859072E+00</totfact>
</mgrwt>
</event>
<event>
 4    1  0.1033139E-008  0.8943552E+03  0.7818608E-02  0.9432665E-01
          2   -1    0    0  501    0  0.00000000000E+00  0.00000000000E+00  0.14968412630E+04  0.14968412630E+04  0.25500000000E-02 0. -1.
         -2   -1    0    0    0  501 -0.00000000000E+00 -0.00000000000E+00 -0.75180860552E+03  0.75180860553E+03  0.25500000000E-02 0.  1.
    8880022    1    1    2    0    0  0.12212725073E+03  0.87267661510E+03  0.97716592798E+03  0.13246601239E+04  0.15294330000E+03 0.  0.
    8880022    1    1    2    0    0 -0.12212725073E+03 -0.87267661510E+03 -0.23213327053E+03  0.92398974465E+03  0.15294330000E+03 0.  0.
<mgrwt>
<rscale>  0 0.89435518E+03</rscale>
<asrwt>0</asrwt>
<pdfrwt beam="1">  1        2 0.23028327E+00 0.89435518E+03</pdfrwt>
<pdfrwt beam="2">  1       -2 0.11566286E+00 0.89435518E+03</pdfrwt>
<totfact> 0.74553910E+00</totfact>
</mgrwt>
</event>
<event>
 4    1  0.1033139E-008  0.9434900E+03  0.7818608E-02  0.9372792E-01
         -2   -1    0    0    0  501 -0.00000000000E+00  0.00000000000E+00  0.11662335628E+04  0.11662335628E+04  0.25500000000E-02 0.  1.
          2   -1    0    0  501    0  0.00000000000E+00 -0.00000000000E+00 -0.17554182310E+04  0.17554182310E+04  0.25500000000E-02 0. -1.
    8880022    1    1    2    0    0 -0.79745671214E+03  0.48046286464E+03 -0.13928196633E+04  0.16822960618E+04  0.15294330000E+03 0.  0.
    8880022    1    1    2    0    0  0.79745671214E+03 -0.48046286464E+03  0.80363499512E+03  0.12393557320E+04  0.15294330000E+03 0.  0.
<mgrwt>
<rscale>  0 0.94349002E+03</rscale>
<asrwt>0</asrwt>
<pdfrwt beam="1">  1        2 0.27006434E+00 0.94349002E+03</pdfrwt>
<pdfrwt beam="2">  1       -2 0.17942055E+00 0.94349002E+03</pdfrwt>
<totfact> 0.16765620E+00</totfact>
</mgrwt>
</event>
<event>
 4    1  0.1033139E-008  0.3761453E+03  0.7818608E-02  0.1052368E+00
          2   -1    0    0  501    0  0.00000000000E+00  0.00000000000E+00  0.12214844425E+04  0.12214844425E+04  0.25500000000E-02 0. -1.
         -2   -1    0    0    0  501 -0.00000000000E+00 -0.00000000000E+00 -0.41601006949E+03  0.41601006950E+03  0.25500000000E-02 0.  1.
    8880022    1    1    2    0    0 -0.10041828569E+02  0.34350084272E+03 -0.29274883029E+03  0.47664158224E+03  0.15294330000E+03 0.  0.
    8880022    1    1    2    0    0  0.10041828569E+02 -0.34350084272E+03  0.10982232033E+04  0.11608529298E+04  0.15294330000E+03 0.  0.
<mgrwt>
<rscale>  0 0.37614534E+03</rscale>
<asrwt>0</asrwt>
<pdfrwt beam="1">  1        2 0.18792068E+00 0.37614534E+03</pdfrwt>
<pdfrwt beam="2">  1       -2 0.64001549E-01 0.37614534E+03</pdfrwt>
<totfact> 0.44480760E+01</totfact>
</mgrwt>
</event>
<event>
 4    1  0.1033139E-008  0.1382650E+04  0.7818608E-02  0.8966474E-01
         -2   -1    0    0    0  501 -0.00000000000E+00  0.00000000000E+00  0.34512962978E+04  0.34512962978E+04  0.25500000000E-02 0.  1.
          2   -1    0    0  501    0  0.00000000000E+00 -0.00000000000E+00 -0.81148380942E+03  0.81148380943E+03  0.25500000000E-02 0. -1.
    8880022    1    1    2    0    0  0.13734088770E+04  0.45574933456E+02  0.25207061529E+04  0.28750095966E+04  0.15294330000E+03 0.  0.
    8880022    1    1    2    0    0 -0.13734088770E+04 -0.45574933456E+02  0.11910633549E+03  0.13877705107E+04  0.15294330000E+03 0.  0.
<mgrwt>
<rscale>  0 0.13826499E+04</rscale>
<asrwt>0</asrwt>
<pdfrwt beam="1">  1        2 0.12484366E+00 0.13826499E+04</pdfrwt>
<pdfrwt beam="2">  1       -2 0.53096866E+00 0.13826499E+04</pdfrwt>
<totfact> 0.34676843E-02</totfact>
</mgrwt>
</event>
<event>
 4    1  0.1033139E-008  0.1807555E+03  0.7818608E-02  0.1167074E+00
         -2   -1    0    0    0  501 -0.00000000000E+00  0.00000000000E+00  0.10900713223E+03  0.10900713226E+03  0.25500000000E-02 0.  1.
          2   -1    0    0  501    0  0.00000000000E+00 -0.00000000000E+00 -0.17320208015E+04  0.17320208015E+04  0.25500000000E-02 0. -1.
    8880022    1    1    2    0    0  0.93373512264E+02  0.23712225668E+02  0.25578381066E+02  0.18255626265E+03  0.15294330000E+03 0.  0.
    8880022    1    1    2    0    0 -0.93373512264E+02 -0.23712225668E+02 -0.16485920504E+04  0.16584716712E+04  0.15294330000E+03 0.  0.
<mgrwt>
<rscale>  0 0.18075546E+03</rscale>
<asrwt>0</asrwt>
<pdfrwt beam="1">  1        2 0.26646472E+00 0.18075546E+03</pdfrwt>
<pdfrwt beam="2">  1       -2 0.16770329E-01 0.18075546E+03</pdfrwt>
<totfact> 0.29961676E+02</totfact>
</mgrwt>
</event>
<event>
 4    1  0.1033139E-008  0.9457789E+03  0.7818608E-02  0.9370098E-01
         -2   -1    0    0    0  501 -0.00000000000E+00  0.00000000000E+00  0.48439870902E+03  0.48439870903E+03  0.25500000000E-02 0.  1.
          2   -1    0    0  501    0  0.00000000000E+00 -0.00000000000E+00 -0.23611869223E+04  0.23611869223E+04  0.25500000000E-02 0. -1.
    8880022    1    1    2    0    0 -0.79579943605E+03  0.48765689471E+03 -0.16025954738E+04  0.18608626750E+04  0.15294330000E+03 0.  0.
    8880022    1    1    2    0    0  0.79579943605E+03 -0.48765689471E+03 -0.27419273945E+03  0.98472295635E+03  0.15294330000E+03 0.  0.
<mgrwt>
<rscale>  0 0.94577885E+03</rscale>
<asrwt>0</asrwt>
<pdfrwt beam="1">  1        2 0.36325952E+00 0.94577885E+03</pdfrwt>
<pdfrwt beam="2">  1       -2 0.74522880E-01 0.94577885E+03</pdfrwt>
<totfact> 0.68797926E+00</totfact>
</mgrwt>
</event>
<event>
 4    1  0.1033139E-008  0.1074812E+04  0.7818608E-02  0.9230096E-01
          2   -1    0    0  501    0  0.00000000000E+00  0.00000000000E+00  0.15365510972E+04  0.15365510972E+04  0.25500000000E-02 0. -1.
         -2   -1    0    0    0  501 -0.00000000000E+00 -0.00000000000E+00 -0.86650540692E+03  0.86650540692E+03  0.25500000000E-02 0.  1.
    8880022    1    1    2    0    0  0.90358121526E+03 -0.56157816281E+03 -0.10208545663E+03  0.10796490814E+04  0.15294330000E+03 0.  0.
    8880022    1    1    2    0    0 -0.90358121526E+03  0.56157816281E+03  0.77213114695E+03  0.13234074228E+04  0.15294330000E+03 0.  0.
<mgrwt>
<rscale>  0 0.10748119E+04</rscale>
<asrwt>0</asrwt>
<pdfrwt beam="1">  1        2 0.23639248E+00 0.10748119E+04</pdfrwt>
<pdfrwt beam="2">  1       -2 0.13330852E+00 0.10748119E+04</pdfrwt>
<totfact> 0.48605934E+00</totfact>
</mgrwt>
</event>
<event>
 4    1  0.1033139E-008  0.6753989E+03  0.7818608E-02  0.9760254E-01
         -2   -1    0    0    0  501 -0.00000000000E+00  0.00000000000E+00  0.64060275067E+03  0.64060275067E+03  0.25500000000E-02 0.  1.
          2   -1    0    0  501    0  0.00000000000E+00 -0.00000000000E+00 -0.15487573110E+04  0.15487573110E+04  0.25500000000E-02 0. -1.
    8880022    1    1    2    0    0 -0.23932026004E+03  0.61277877781E+03  0.35051004120E+03  0.76093426746E+03  0.15294330000E+03 0.  0.
    8880022    1    1    2    0    0  0.23932026004E+03 -0.61277877781E+03 -0.12586646016E+04  0.14284257942E+04  0.15294330000E+03 0.  0.
<mgrwt>
<rscale>  0 0.67539890E+03</rscale>
<asrwt>0</asrwt>
<pdfrwt beam="1">  1        2 0.23827035E+00 0.67539890E+03</pdfrwt>
<pdfrwt beam="2">  1       -2 0.98554270E-01 0.67539890E+03</pdfrwt>
<totfact> 0.10560160E+01</totfact>
</mgrwt>
</event>
<event>
 4    1  0.1033139E-008  0.8100869E+03  0.7818608E-02  0.9545530E-01
          2   -1    0    0  501    0  0.00000000000E+00  0.00000000000E+00  0.11098372475E+04  0.11098372475E+04  0.25500000000E-02 0. -1.
         -2   -1    0    0    0  501 -0.00000000000E+00 -0.00000000000E+00 -0.73963088804E+03  0.73963088805E+03  0.25500000000E-02 0.  1.
    8880022    1    1    2    0    0  0.38929453789E+03  0.69375713129E+03 -0.22902324301E+03  0.84183875730E+03  0.15294330000E+03 0.  0.
    8880022    1    1    2    0    0 -0.38929453789E+03 -0.69375713129E+03  0.59922960249E+03  0.10076293783E+04  0.15294330000E+03 0.  0.
<mgrwt>
<rscale>  0 0.81008694E+03</rscale>
<asrwt>0</asrwt>
<pdfrwt beam="1">  1        2 0.17074419E+00 0.81008694E+03</pdfrwt>
<pdfrwt beam="2">  1       -2 0.11378937E+00 0.81008694E+03</pdfrwt>
<totfact> 0.13148124E+01</totfact>
</mgrwt>
</event>
<event>
 4    1  0.1033139E-008  0.7293670E+03  0.7818608E-02  0.9668288E-01
         -2   -1    0    0    0  501 -0.00000000000E+00  0.00000000000E+00  0.59115972617E+03  0.59115972618E+03  0.25500000000E-02 0.  1.
          2   -1    0    0  501    0  0.00000000000E+00 -0.00000000000E+00 -0.27663234307E+04  0.27663234307E+04  0.25500000000E-02 0. -1.
    8880022    1    1    2    0    0 -0.29057029772E+03  0.65127067543E+03  0.29133827351E+03  0.78540068323E+03  0.15294330000E+03 0.  0.
    8880022    1    1    2    0    0  0.29057029772E+03 -0.65127067543E+03 -0.24665019780E+04  0.25720824736E+04  0.15294330000E+03 0.  0.
<mgrwt>
<rscale>  0 0.72936702E+03</rscale>
<asrwt>0</asrwt>
<pdfrwt beam="1">  1        2 0.42558821E+00 0.72936702E+03</pdfrwt>
<pdfrwt beam="2">  1       -2 0.90947652E-01 0.72936702E+03</pdfrwt>
<totfact> 0.26581964E+00</totfact>
</mgrwt>
</event>
<event>
 4    1  0.1033139E-008  0.1872211E+04  0.7818608E-02  0.8668814E-01
         -2   -1    0    0    0  501 -0.00000000000E+00  0.00000000000E+00  0.17087609828E+04  0.17087609828E+04  0.25500000000E-02 0.  1.
          2   -1    0    0  501    0  0.00000000000E+00 -0.00000000000E+00 -0.30612863257E+04  0.30612863257E+04  0.25500000000E-02 0. -1.
    8880022    1    1    2    0    0  0.12694535355E+04  0.13675785597E+04  0.69367012053E+03  0.19965854063E+04  0.15294330000E+03 0.  0.
    8880022    1    1    2    0    0 -0.12694535355E+04 -0.13675785597E+04 -0.20461954634E+04  0.27734619022E+04  0.15294330000E+03 0.  0.
<mgrwt>
<rscale>  0 0.18722113E+04</rscale>
<asrwt>0</asrwt>
<pdfrwt beam="1">  1        2 0.47096713E+00 0.18722113E+04</pdfrwt>
<pdfrwt beam="2">  1       -2 0.26288631E+00 0.18722113E+04</pdfrwt>
<totfact> 0.76705152E-02</totfact>
</mgrwt>
</event>
<event>
 4    1  0.1033139E-008  0.2932676E+03  0.7818608E-02  0.1088655E+00
         -2   -1    0    0    0  501 -0.00000000000E+00  0.00000000000E+00  0.82967215795E+03  0.82967215796E+03  0.25500000000E-02 0.  1.
          2   -1    0    0  501    0  0.00000000000E+00 -0.00000000000E+00 -0.52362173270E+03  0.52362173270E+03  0.25500000000E-02 0. -1.
    8880022    1    1    2    0    0  0.24548148091E+03  0.48508360553E+02 -0.45295280797E+03  0.53960366731E+03  0.15294330000E+03 0. -1.
    8880022    1    1    2    0    0 -0.24548148091E+03 -0.48508360553E+02  0.75900323322E+03  0.81369022335E+03  0.15294330000E+03 0.  0.
<mgrwt>
<rscale>  0 0.29326758E+03</rscale>
<asrwt>0</asrwt>
<pdfrwt beam="1">  1        2 0.80557190E-01 0.29326758E+03</pdfrwt>
<pdfrwt beam="2">  1       -2 0.12764187E+00 0.29326758E+03</pdfrwt>
<totfact> 0.28427333E+01</totfact>
</mgrwt>
</event>
<event>
 4    1  0.1033139E-008  0.4689305E+03  0.7818608E-02  0.1022222E+00
         -2   -1    0    0    0  501 -0.00000000000E+00  0.00000000000E+00  0.43134357774E+03  0.43134357775E+03  0.25500000000E-02 0.  1.
          2   -1    0    0  501    0  0.00000000000E+00 -0.00000000000E+00 -0.26624522501E+04  0.26624522501E+04  0.25500000000E-02 0. -1.
    8880022    1    1    2    0    0  0.34162291704E+03 -0.28248534054E+03 -0.25064943723E+04  0.25499823287E+04  0.15294330000E+03 0.  0.
    8880022    1    1    2    0    0 -0.34162291704E+03  0.28248534054E+03  0.27538570000E+03  0.54381349914E+03  0.15294330000E+03 0.  0.
<mgrwt>
<rscale>  0 0.46893053E+03</rscale>
<asrwt>0</asrwt>
<pdfrwt beam="1">  1        2 0.40960803E+00 0.46893053E+03</pdfrwt>
<pdfrwt beam="2">  1       -2 0.66360552E-01 0.46893053E+03</pdfrwt>
<totfact> 0.65640033E+00</totfact>
</mgrwt>
</event>
<event>
 4    1  0.1033139E-008  0.2900051E+03  0.7818608E-02  0.1090346E+00
          2   -1    0    0  501    0  0.00000000000E+00  0.00000000000E+00  0.58567213120E+03  0.58567213121E+03  0.25500000000E-02 0. -1.
         -2   -1    0    0    0  501 -0.00000000000E+00 -0.00000000000E+00 -0.25889079572E+03  0.25889079574E+03  0.25500000000E-02 0.  1.
    8880022    1    1    2    0    0  0.24177568914E+03 -0.47495290760E+02 -0.11840848026E+03  0.31324672020E+03  0.15294330000E+03 0.  0.
    8880022    1    1    2    0    0 -0.24177568914E+03  0.47495290760E+02  0.44518981574E+03  0.53131620675E+03  0.15294330000E+03 0. -1.
<mgrwt>
<rscale>  0 0.29000507E+03</rscale>
<asrwt>0</asrwt>
<pdfrwt beam="1">  1        2 0.90103405E-01 0.29000507E+03</pdfrwt>
<pdfrwt beam="2">  1       -2 0.39829353E-01 0.29000507E+03</pdfrwt>
<totfact> 0.31379455E+02</totfact>
</mgrwt>
</event>
<event>
 4    1  0.1033139E-008  0.6845958E+03  0.7818608E-02  0.9743944E-01
          2   -1    0    0  501    0  0.00000000000E+00  0.00000000000E+00  0.14316713295E+04  0.14316713295E+04  0.25500000000E-02 0. -1.
         -2   -1    0    0    0  501 -0.00000000000E+00 -0.00000000000E+00 -0.16762231542E+04  0.16762231542E+04  0.25500000000E-02 0.  1.
    8880022    1    1    2    0    0 -0.56523640424E+03 -0.35466547160E+03  0.12716970572E+04  0.14442592730E+04  0.15294330000E+03 0.  0.
    8880022    1    1    2    0    0  0.56523640424E+03  0.35466547160E+03 -0.15162488818E+04  0.16636352106E+04  0.15294330000E+03 0.  0.
<mgrwt>
<rscale>  0 0.68459582E+03</rscale>
<asrwt>0</asrwt>
<pdfrwt beam="1">  1        2 0.22025713E+00 0.68459582E+03</pdfrwt>
<pdfrwt beam="2">  1       -2 0.25788048E+00 0.68459582E+03</pdfrwt>
<totfact> 0.84365787E-01</totfact>
</mgrwt>
</event>
<event>
 4    1  0.1033139E-008  0.4548938E+03  0.7818608E-02  0.1026273E+00
         -2   -1    0    0    0  501 -0.00000000000E+00  0.00000000000E+00  0.21321848578E+04  0.21321848578E+04  0.25500000000E-02 0.  1.
          2   -1    0    0  501    0  0.00000000000E+00 -0.00000000000E+00 -0.48486041224E+03  0.48486041225E+03  0.25500000000E-02 0. -1.
    8880022    1    1    2    0    0 -0.28745805969E+03  0.31765484558E+03 -0.34659855198E+03  0.57189067684E+03  0.15294330000E+03 0. -1.
    8880022    1    1    2    0    0  0.28745805969E+03 -0.31765484558E+03  0.19939229975E+04  0.20451545932E+04  0.15294330000E+03 0.  0.
<mgrwt>
<rscale>  0 0.45489382E+03</rscale>
<asrwt>0</asrwt>
<pdfrwt beam="1">  1        2 0.74593909E-01 0.45489382E+03</pdfrwt>
<pdfrwt beam="2">  1       -2 0.32802844E+00 0.45489382E+03</pdfrwt>
<totfact> 0.15230428E+00</totfact>
</mgrwt>
</event>
<event>
 4    1  0.1033139E-008  0.4494233E+03  0.7818608E-02  0.1027894E+00
         -2   -1    0    0    0  501 -0.00000000000E+00  0.00000000000E+00  0.82420116893E+03  0.82420116894E+03  0.25500000000E-02 0.  1.
          2   -1    0    0  501    0  0.00000000000E+00 -0.00000000000E+00 -0.50015900680E+03  0.50015900681E+03  0.25500000000E-02 0. -1.
    8880022    1    1    2    0    0 -0.41923787303E+03 -0.53190358567E+02 -0.31088385632E+03  0.54647052396E+03  0.15294330000E+03 0. -1.
    8880022    1    1    2    0    0  0.41923787303E+03  0.53190358567E+02  0.63492601845E+03  0.77788965178E+03  0.15294330000E+03 0.  0.
<mgrwt>
<rscale>  0 0.44942325E+03</rscale>
<asrwt>0</asrwt>
<pdfrwt beam="1">  1        2 0.76947540E-01 0.44942325E+03</pdfrwt>
<pdfrwt beam="2">  1       -2 0.12680018E+00 0.44942325E+03</pdfrwt>
<totfact> 0.29700863E+01</totfact>
</mgrwt>
</event>
<event>
 4    1  0.1033139E-008  0.3485537E+03  0.7818608E-02  0.1063210E+00
         -2   -1    0    0    0  501 -0.00000000000E+00  0.00000000000E+00  0.14837098668E+03  0.14837098670E+03  0.25500000000E-02 0.  1.
          2   -1    0    0  501    0  0.00000000000E+00 -0.00000000000E+00 -0.13447566151E+04  0.13447566151E+04  0.25500000000E-02 0. -1.
    8880022    1    1    2    0    0  0.21522245196E+03 -0.22754632480E+03 -0.13130747009E+03  0.37246656021E+03  0.15294330000E+03 0.  0.
    8880022    1    1    2    0    0 -0.21522245196E+03  0.22754632480E+03 -0.10650781583E+04  0.11206610416E+04  0.15294330000E+03 0.  0.
<mgrwt>
<rscale>  0 0.34855371E+03</rscale>
<asrwt>0</asrwt>
<pdfrwt beam="1">  1        2 0.20688563E+00 0.34855371E+03</pdfrwt>
<pdfrwt beam="2">  1       -2 0.22826307E-01 0.34855371E+03</pdfrwt>
<totfact> 0.27569099E+02</totfact>
</mgrwt>
</event>
<event>
 4    1  0.1033139E-008  0.9072642E+03  0.7818608E-02  0.9416546E-01
          2   -1    0    0  501    0  0.00000000000E+00  0.00000000000E+00  0.11400638963E+04  0.11400638963E+04  0.25500000000E-02 0. -1.
         -2   -1    0    0    0  501 -0.00000000000E+00 -0.00000000000E+00 -0.13569189282E+04  0.13569189282E+04  0.25500000000E-02 0.  1.
    8880022    1    1    2    0    0  0.18859806600E+03  0.87416672022E+03 -0.96244563479E+03  0.13226601749E+04  0.15294330000E+03 0.  0.
    8880022    1    1    2    0    0 -0.18859806600E+03 -0.87416672022E+03  0.74559060285E+03  0.11743226496E+04  0.15294330000E+03 0.  0.
<mgrwt>
<rscale>  0 0.90726421E+03</rscale>
<asrwt>0</asrwt>
<pdfrwt beam="1">  1        2 0.17539444E+00 0.90726421E+03</pdfrwt>
<pdfrwt beam="2">  1       -2 0.20875676E+00 0.90726421E+03</pdfrwt>
<totfact> 0.24117208E+00</totfact>
</mgrwt>
</event>
<event>
 4    1  0.1033139E-008  0.6736890E+03  0.7818608E-02  0.9763316E-01
         -2   -1    0    0    0  501 -0.00000000000E+00  0.00000000000E+00  0.16810778778E+04  0.16810778778E+04  0.25500000000E-02 0.  1.
          2   -1    0    0  501    0  0.00000000000E+00 -0.00000000000E+00 -0.10964898774E+04  0.10964898774E+04  0.25500000000E-02 0. -1.
    8880022    1    1    2    0    0 -0.39416147844E+03  0.52450165475E+03 -0.91345373335E+03  0.11350130541E+04  0.15294330000E+03 0.  0.
    8880022    1    1    2    0    0  0.39416147844E+03 -0.52450165475E+03  0.14980417338E+04  0.16425547011E+04  0.15294330000E+03 0.  1.
<mgrwt>
<rscale>  0 0.67368903E+03</rscale>
<asrwt>0</asrwt>
<pdfrwt beam="1">  1        2 0.16869075E+00 0.67368903E+03</pdfrwt>
<pdfrwt beam="2">  1       -2 0.25862736E+00 0.67368903E+03</pdfrwt>
<totfact> 0.13111029E+00</totfact>
</mgrwt>
</event>
<event>
 4    1  0.1033139E-008  0.9230775E+03  0.7818608E-02  0.9397184E-01
          2   -1    0    0  501    0  0.00000000000E+00  0.00000000000E+00  0.24203130192E+04  0.24203130192E+04  0.25500000000E-02 0. -1.
         -2   -1    0    0    0  501 -0.00000000000E+00 -0.00000000000E+00 -0.72347853800E+03  0.72347853800E+03  0.25500000000E-02 0.  1.
    8880022    1    1    2    0    0 -0.71619301905E+03  0.56191460039E+03  0.19747023318E+04  0.21797984794E+04  0.15294330000E+03 0.  0.
    8880022    1    1    2    0    0  0.71619301905E+03 -0.56191460039E+03 -0.27786785057E+03  0.96399307781E+03  0.15294330000E+03 0.  0.
<mgrwt>
<rscale>  0 0.92307752E+03</rscale>
<asrwt>0</asrwt>
<pdfrwt beam="1">  1        2 0.37235585E+00 0.92307752E+03</pdfrwt>
<pdfrwt beam="2">  1       -2 0.11130439E+00 0.92307752E+03</pdfrwt>
<totfact> 0.25147631E+00</totfact>
</mgrwt>
</event>
<event>
 4    1  0.1033139E-008  0.9022865E+03  0.7818608E-02  0.9422728E-01
         -2   -1    0    0    0  501 -0.00000000000E+00  0.00000000000E+00  0.64745100884E+03  0.64745100884E+03  0.25500000000E-02 0.  1.
          2   -1    0    0  501    0  0.00000000000E+00 -0.00000000000E+00 -0.19726701868E+04  0.19726701868E+04  0.25500000000E-02 0. -1.
    8880022    1    1    2    0    0 -0.51816346019E+03  0.72265887001E+03  0.12623548582E+03  0.91107423670E+03  0.15294330000E+03 0.  1.
    8880022    1    1    2    0    0  0.51816346019E+03 -0.72265887001E+03 -0.14514546638E+04  0.17090469590E+04  0.15294330000E+03 0.  0.
<mgrwt>
<rscale>  0 0.90228647E+03</rscale>
<asrwt>0</asrwt>
<pdfrwt beam="1">  1        2 0.30348772E+00 0.90228647E+03</pdfrwt>
<pdfrwt beam="2">  1       -2 0.99607849E-01 0.90228647E+03</pdfrwt>
<totfact> 0.58410336E+00</totfact>
</mgrwt>
</event>
<event>
 4    1  0.1221326E-008  0.1331599E+04  0.7818608E-02  0.9004875E-01
          2   -1    0    0  501    0  0.00000000000E+00  0.00000000000E+00  0.19040100502E+04  0.19040100502E+04  0.25500000000E-02 0. -1.
         -2   -1    0    0    0  501 -0.00000000000E+00 -0.00000000000E+00 -0.17617806402E+04  0.17617806402E+04  0.25500000000E-02 0.  1.
    8880022    1    1    2    0    0 -0.10102727371E+04  0.85388152541E+03 -0.11873270889E+04  0.17840689258E+04  0.15294330000E+03 0.  0.
    8880022    1    1    2    0    0  0.10102727371E+04 -0.85388152541E+03  0.13295564989E+04  0.18817217647E+04  0.15294330000E+03 0.  0.
<mgrwt>
<rscale>  0 0.13315992E+04</rscale>
<asrwt>0</asrwt>
<pdfrwt beam="1">  1        2 0.29292462E+00 0.13315992E+04</pdfrwt>
<pdfrwt beam="2">  1       -2 0.27104318E+00 0.13315992E+04</pdfrwt>
<totfact> 0.34526223E-01</totfact>
</mgrwt>
</event>
<event>
 4    1  0.1033139E-008  0.2139120E+03  0.7818608E-02  0.1138505E+00
          2   -1    0    0  501    0  0.00000000000E+00  0.00000000000E+00  0.81367351784E+03  0.81367351784E+03  0.25500000000E-02 0. -1.
         -2   -1    0    0    0  501 -0.00000000000E+00 -0.00000000000E+00 -0.31125416702E+03  0.31125416703E+03  0.25500000000E-02 0.  1.
    8880022    1    1    2    0    0  0.31243326608E+02  0.14625506322E+03  0.76033178356E+03  0.78984983578E+03  0.15294330000E+03 0.  0.
    8880022    1    1    2    0    0 -0.31243326608E+02 -0.14625506322E+03 -0.25791243274E+03  0.33507784909E+03  0.15294330000E+03 0.  1.
<mgrwt>
<rscale>  0 0.21391200E+03</rscale>
<asrwt>0</asrwt>
<pdfrwt beam="1">  1        2 0.12518054E+00 0.21391200E+03</pdfrwt>
<pdfrwt beam="2">  1       -2 0.47885256E-01 0.21391200E+03</pdfrwt>
<totfact> 0.14843161E+02</totfact>
</mgrwt>
</event>
<event>
 4    1  0.1033139E-008  0.5044006E+03  0.7818608E-02  0.1012637E+00
         -2   -1    0    0    0  501 -0.00000000000E+00  0.00000000000E+00  0.85193377884E+03  0.85193377885E+03  0.25500000000E-02 0.  1.
          2   -1    0    0  501    0  0.00000000000E+00 -0.00000000000E+00 -0.11678649495E+04  0.11678649495E+04  0.25500000000E-02 0. -1.
    8880022    1    1    2    0    0  0.18630707484E+03  0.44307786897E+03  0.71329551835E+03  0.87361918112E+03  0.15294330000E+03 0.  0.
    8880022    1    1    2    0    0 -0.18630707484E+03 -0.44307786897E+03 -0.10292266890E+04  0.11461795472E+04  0.15294330000E+03 0. -1.
<mgrwt>
<rscale>  0 0.50440061E+03</rscale>
<asrwt>0</asrwt>
<pdfrwt beam="1">  1        2 0.17967153E+00 0.50440061E+03</pdfrwt>
<pdfrwt beam="2">  1       -2 0.13106674E+00 0.50440061E+03</pdfrwt>
<totfact> 0.89263022E+00</totfact>
</mgrwt>
</event>
<event>
 4    1  0.1033139E-008  0.9636203E+03  0.7818608E-02  0.9349371E-01
         -2   -1    0    0    0  501 -0.00000000000E+00  0.00000000000E+00  0.48288586674E+03  0.48288586675E+03  0.25500000000E-02 0.  1.
          2   -1    0    0  501    0  0.00000000000E+00 -0.00000000000E+00 -0.42326610692E+04  0.42326610692E+04  0.25500000000E-02 0. -1.
    8880022    1    1    2    0    0 -0.79364734455E+03  0.52468684420E+03 -0.13318333071E+03  0.97278047091E+03  0.15294330000E+03 0.  0.
    8880022    1    1    2    0    0  0.79364734455E+03 -0.52468684420E+03 -0.36165918718E+04  0.37427664650E+04  0.15294330000E+03 0.  0.
<mgrwt>
<rscale>  0 0.96362028E+03</rscale>
<asrwt>0</asrwt>
<pdfrwt beam="1">  1        2 0.65117860E+00 0.96362028E+03</pdfrwt>
<pdfrwt beam="2">  1       -2 0.74290136E-01 0.96362028E+03</pdfrwt>
<totfact> 0.38027491E-01</totfact>
</mgrwt>
</event>
<event>
 4    1  0.1033139E-008  0.1265611E+04  0.7818608E-02  0.9057290E-01
         -2   -1    0    0    0  501 -0.00000000000E+00  0.00000000000E+00  0.13571621253E+04  0.13571621253E+04  0.25500000000E-02 0.  1.
          2   -1    0    0  501    0  0.00000000000E+00 -0.00000000000E+00 -0.18414109758E+04  0.18414109758E+04  0.25500000000E-02 0. -1.
    8880022    1    1    2    0    0 -0.16147978463E+03 -0.12459143944E+04  0.71619325233E+03  0.14542017834E+04  0.15294330000E+03 0.  0.
    8880022    1    1    2    0    0  0.16147978463E+03  0.12459143944E+04 -0.12004421028E+04  0.17443713178E+04  0.15294330000E+03 0.  0.
<mgrwt>
<rscale>  0 0.12656105E+04</rscale>
<asrwt>0</asrwt>
<pdfrwt beam="1">  1        2 0.28329400E+00 0.12656105E+04</pdfrwt>
<pdfrwt beam="2">  1       -2 0.20879417E+00 0.12656105E+04</pdfrwt>
<totfact> 0.91876219E-01</totfact>
</mgrwt>
</event>
<event>
 4    1  0.1033139E-008  0.8336478E+03  0.7818608E-02  0.9512551E-01
          2   -1    0    0  501    0  0.00000000000E+00  0.00000000000E+00  0.23466914375E+04  0.23466914375E+04  0.25500000000E-02 0. -1.
         -2   -1    0    0    0  501 -0.00000000000E+00 -0.00000000000E+00 -0.45161345585E+03  0.45161345586E+03  0.25500000000E-02 0.  1.
    8880022    1    1    2    0    0 -0.81858318403E+03 -0.38710354757E+02  0.12662398184E+03  0.84320946776E+03  0.15294330000E+03 0.  0.
    8880022    1    1    2    0    0  0.81858318403E+03  0.38710354757E+02  0.17684539998E+04  0.19550954256E+04  0.15294330000E+03 0.  0.
<mgrwt>
<rscale>  0 0.83364775E+03</rscale>
<asrwt>0</asrwt>
<pdfrwt beam="1">  1        2 0.36102945E+00 0.83364775E+03</pdfrwt>
<pdfrwt beam="2">  1       -2 0.69478993E-01 0.83364775E+03</pdfrwt>
<totfact> 0.83084193E+00</totfact>
</mgrwt>
</event>
<event>
 4    1  0.1033139E-008  0.7697943E+03  0.7818608E-02  0.9604798E-01
         -2   -1    0    0    0  501 -0.00000000000E+00  0.00000000000E+00  0.72016472786E+03  0.72016472786E+03  0.25500000000E-02 0.  1.
          2   -1    0    0  501    0  0.00000000000E+00 -0.00000000000E+00 -0.15236906207E+04  0.15236906207E+04  0.25500000000E-02 0. -1.
    8880022    1    1    2    0    0  0.67847032781E+02  0.75139092820E+03 -0.11626636163E+04  0.13944066425E+04  0.15294330000E+03 0.  0.
    8880022    1    1    2    0    0 -0.67847032781E+02 -0.75139092820E+03  0.35913772347E+03  0.84944870609E+03  0.15294330000E+03 0.  1.
<mgrwt>
<rscale>  0 0.76979426E+03</rscale>
<asrwt>0</asrwt>
<pdfrwt beam="1">  1        2 0.23441394E+00 0.76979426E+03</pdfrwt>
<pdfrwt beam="2">  1       -2 0.11079457E+00 0.76979426E+03</pdfrwt>
<totfact> 0.81262431E+00</totfact>
</mgrwt>
</event>
<event>
 4    1  0.1033139E-008  0.9771058E+03  0.7818608E-02  0.9334017E-01
          2   -1    0    0  501    0  0.00000000000E+00  0.00000000000E+00  0.28305741401E+04  0.28305741401E+04  0.25500000000E-02 0. -1.
         -2   -1    0    0    0  501 -0.00000000000E+00 -0.00000000000E+00 -0.45427477479E+03  0.45427477480E+03  0.25500000000E-02 0.  1.
    8880022    1    1    2    0    0  0.60656286916E+02 -0.96315359081E+03  0.20216069486E+04  0.22453575065E+04  0.15294330000E+03 0.  0.
    8880022    1    1    2    0    0 -0.60656286916E+02  0.96315359081E+03  0.35469241679E+03  0.10394914084E+04  0.15294330000E+03 0.  0.
<mgrwt>
<rscale>  0 0.97710577E+03</rscale>
<asrwt>0</asrwt>
<pdfrwt beam="1">  1        2 0.43547294E+00 0.97710577E+03</pdfrwt>
<pdfrwt beam="2">  1       -2 0.69888428E-01 0.97710577E+03</pdfrwt>
<totfact> 0.42214935E+00</totfact>
</mgrwt>
</event>
<event>
 4    1  0.1033139E-008  0.2800094E+03  0.7818608E-02  0.1095684E+00
          2   -1    0    0  501    0  0.00000000000E+00  0.00000000000E+00  0.72019548163E+03  0.72019548164E+03  0.25500000000E-02 0. -1.
         -2   -1    0    0    0  501 -0.00000000000E+00 -0.00000000000E+00 -0.72103386488E+03  0.72103386488E+03  0.25500000000E-02 0.  1.
    8880022    1    1    2    0    0 -0.22499038805E+03 -0.66279367397E+02 -0.66440729280E+03  0.72100092441E+03  0.15294330000E+03 0.  0.
    8880022    1    1    2    0    0  0.22499038805E+03  0.66279367397E+02  0.66356890956E+03  0.72022842210E+03  0.15294330000E+03 0.  0.
<mgrwt>
<rscale>  0 0.28000943E+03</rscale>
<asrwt>0</asrwt>
<pdfrwt beam="1">  1        2 0.11079930E+00 0.28000943E+03</pdfrwt>
<pdfrwt beam="2">  1       -2 0.11092829E+00 0.28000943E+03</pdfrwt>
<totfact> 0.27533058E+01</totfact>
</mgrwt>
</event>
<event>
 4    1  0.1033139E-008  0.7167036E+03  0.7818608E-02  0.9689086E-01
          2   -1    0    0  501    0  0.00000000000E+00  0.00000000000E+00  0.20239949043E+04  0.20239949043E+04  0.25500000000E-02 0. -1.
         -2   -1    0    0    0  501 -0.00000000000E+00 -0.00000000000E+00 -0.69389867152E+03  0.69389867152E+03  0.25500000000E-02 0.  1.
    8880022    1    1    2    0    0 -0.64148875370E+03 -0.28065029342E+03  0.17473184466E+04  0.18885936077E+04  0.15294330000E+03 0.  0.
    8880022    1    1    2    0    0  0.64148875370E+03  0.28065029342E+03 -0.41722221383E+03  0.82929996808E+03  0.15294330000E+03 0.  0.
<mgrwt>
<rscale>  0 0.71670361E+03</rscale>
<asrwt>0</asrwt>
<pdfrwt beam="1">  1        2 0.31138383E+00 0.71670361E+03</pdfrwt>
<pdfrwt beam="2">  1       -2 0.10675364E+00 0.71670361E+03</pdfrwt>
<totfact> 0.47714369E+00</totfact>
</mgrwt>
</event>
<event>
 4    1  0.1033139E-008  0.6350302E+03  0.7818608E-02  0.9835282E-01
          2   -1    0    0  501    0  0.00000000000E+00  0.00000000000E+00  0.16571643341E+04  0.16571643341E+04  0.25500000000E-02 0. -1.
         -2   -1    0    0    0  501 -0.00000000000E+00 -0.00000000000E+00 -0.18888615789E+04  0.18888615789E+04  0.25500000000E-02 0.  1.
    8880022    1    1    2    0    0  0.36811204857E+03 -0.49433307434E+03  0.15390177115E+04  0.16648840314E+04  0.15294330000E+03 0.  0.
    8880022    1    1    2    0    0 -0.36811204857E+03  0.49433307434E+03 -0.17707149563E+04  0.18811418815E+04  0.15294330000E+03 0.  0.
<mgrwt>
<rscale>  0 0.63503017E+03</rscale>
<asrwt>0</asrwt>
<pdfrwt beam="1">  1        2 0.25494836E+00 0.63503017E+03</pdfrwt>
<pdfrwt beam="2">  1       -2 0.29059409E+00 0.63503017E+03</pdfrwt>
<totfact> 0.40850712E-01</totfact>
</mgrwt>
</event>
<event>
 4    1  0.1033139E-008  0.1149643E+04  0.7818608E-02  0.9158113E-01
         -2   -1    0    0    0  501 -0.00000000000E+00  0.00000000000E+00  0.96639952031E+03  0.96639952031E+03  0.25500000000E-02 0.  1.
          2   -1    0    0  501    0  0.00000000000E+00 -0.00000000000E+00 -0.24041893770E+04  0.24041893770E+04  0.25500000000E-02 0. -1.
    8880022    1    1    2    0    0  0.60906560806E+03  0.96297806612E+03  0.38769837246E+03  0.12132556828E+04  0.15294330000E+03 0.  0.
    8880022    1    1    2    0    0 -0.60906560806E+03 -0.96297806612E+03 -0.18254882291E+04  0.21573332145E+04  0.15294330000E+03 0.  0.
<mgrwt>
<rscale>  0 0.11496431E+04</rscale>
<asrwt>0</asrwt>
<pdfrwt beam="1">  1        2 0.36987529E+00 0.11496431E+04</pdfrwt>
<pdfrwt beam="2">  1       -2 0.14867685E+00 0.11496431E+04</pdfrwt>
<totfact> 0.11922544E+00</totfact>
</mgrwt>
</event>
<event>
 4    1  0.1033139E-008  0.3905273E+03  0.7818608E-02  0.1047110E+00
          2   -1    0    0  501    0  0.00000000000E+00  0.00000000000E+00  0.38535298039E+04  0.38535298039E+04  0.25500000000E-02 0. -1.
         -2   -1    0    0    0  501 -0.00000000000E+00 -0.00000000000E+00 -0.90663151004E+02  0.90663151040E+02  0.25500000000E-02 0.  1.
    8880022    1    1    2    0    0  0.28817917490E+03 -0.21464548163E+03  0.40108513627E+03  0.55980430436E+03  0.15294330000E+03 0.  1.
    8880022    1    1    2    0    0 -0.28817917490E+03  0.21464548163E+03  0.33617815166E+04  0.33843886506E+04  0.15294330000E+03 0.  0.
<mgrwt>
<rscale>  0 0.39052730E+03</rscale>
<asrwt>0</asrwt>
<pdfrwt beam="1">  1        2 0.59285088E+00 0.39052730E+03</pdfrwt>
<pdfrwt beam="2">  1       -2 0.13948174E-01 0.39052730E+03</pdfrwt>
<totfact> 0.21200609E+01</totfact>
</mgrwt>
</event>
<event>
 4    1  0.1033139E-008  0.4732776E+03  0.7818608E-02  0.1020999E+00
          2   -1    0    0  501    0  0.00000000000E+00  0.00000000000E+00  0.10222989485E+04  0.10222989485E+04  0.25500000000E-02 0. -1.
         -2   -1    0    0    0  501 -0.00000000000E+00 -0.00000000000E+00 -0.31503636726E+03  0.31503636727E+03  0.25500000000E-02 0.  1.
    8880022    1    1    2    0    0 -0.17249339808E+03 -0.41333533681E+03  0.72261590998E+03  0.86380870533E+03  0.15294330000E+03 0.  0.
    8880022    1    1    2    0    0  0.17249339808E+03  0.41333533681E+03 -0.15353328782E+02  0.47352661040E+03  0.15294330000E+03 0.  0.
<mgrwt>
<rscale>  0 0.47327764E+03</rscale>
<asrwt>0</asrwt>
<pdfrwt beam="1">  1        2 0.15727676E+00 0.47327764E+03</pdfrwt>
<pdfrwt beam="2">  1       -2 0.48467134E-01 0.47327764E+03</pdfrwt>
<totfact> 0.10219578E+02</totfact>
</mgrwt>
</event>
<event>
 4    1  0.1033139E-008  0.1001647E+04  0.7818608E-02  0.9306740E-01
         -2   -1    0    0    0  501 -0.00000000000E+00  0.00000000000E+00  0.10868389057E+04  0.10868389057E+04  0.25500000000E-02 0.  1.
          2   -1    0    0  501    0  0.00000000000E+00 -0.00000000000E+00 -0.12495220626E+04  0.12495220626E+04  0.25500000000E-02 0. -1.
    8880022    1    1    2    0    0 -0.86002286523E+03 -0.49016907941E+03  0.51570178239E+03  0.11266077563E+04  0.15294330000E+03 0.  0.
    8880022    1    1    2    0    0  0.86002286523E+03  0.49016907941E+03 -0.67838493924E+03  0.12097532120E+04  0.15294330000E+03 0.  0.
<mgrwt>
<rscale>  0 0.10016470E+04</rscale>
<asrwt>0</asrwt>
<pdfrwt beam="1">  1        2 0.19223416E+00 0.10016470E+04</pdfrwt>
<pdfrwt beam="2">  1       -2 0.16720598E+00 0.10016470E+04</pdfrwt>
<totfact> 0.39152244E+00</totfact>
</mgrwt>
</event>
<event>
 4    1  0.1033139E-008  0.1182853E+04  0.7818608E-02  0.9127999E-01
         -2   -1    0    0    0  501 -0.00000000000E+00  0.00000000000E+00  0.47407265339E+03  0.47407265340E+03  0.25500000000E-02 0.  1.
          2   -1    0    0  501    0  0.00000000000E+00 -0.00000000000E+00 -0.33065938222E+04  0.33065938222E+04  0.25500000000E-02 0. -1.
    8880022    1    1    2    0    0 -0.41823332583E+03  0.10958239299E+04 -0.79663608191E+03  0.14261030468E+04  0.15294330000E+03 0.  0.
    8880022    1    1    2    0    0  0.41823332583E+03 -0.10958239299E+04 -0.20358850869E+04  0.23545634288E+04  0.15294330000E+03 0.  0.
<mgrwt>
<rscale>  0 0.11828528E+04</rscale>
<asrwt>0</asrwt>
<pdfrwt beam="1">  1        2 0.50870673E+00 0.11828528E+04</pdfrwt>
<pdfrwt beam="2">  1       -2 0.72934256E-01 0.11828528E+04</pdfrwt>
<totfact> 0.18779154E+00</totfact>
</mgrwt>
</event>
<event>
 4    1  0.1033139E-008  0.9747452E+03  0.7818608E-02  0.9336686E-01
         -2   -1    0    0    0  501 -0.00000000000E+00  0.00000000000E+00  0.10586685911E+04  0.10586685912E+04  0.25500000000E-02 0.  1.
          2   -1    0    0  501    0  0.00000000000E+00 -0.00000000000E+00 -0.14847577191E+04  0.14847577191E+04  0.25500000000E-02 0. -1.
    8880022    1    1    2    0    0  0.36763866434E+03  0.88970692632E+03 -0.10128513730E+04  0.14057013050E+04  0.15294330000E+03 0.  0.
    8880022    1    1    2    0    0 -0.36763866434E+03 -0.88970692632E+03  0.58676224502E+03  0.11377250052E+04  0.15294330000E+03 0.  0.
<mgrwt>
<rscale>  0 0.97474523E+03</rscale>
<asrwt>0</asrwt>
<pdfrwt beam="1">  1        2 0.22842426E+00 0.97474523E+03</pdfrwt>
<pdfrwt beam="2">  1       -2 0.16287209E+00 0.97474523E+03</pdfrwt>
<totfact> 0.30927730E+00</totfact>
</mgrwt>
</event>
<event>
 4    1  0.1033139E-008  0.5057108E+03  0.7818608E-02  0.1012299E+00
         -2   -1    0    0    0  501 -0.00000000000E+00  0.00000000000E+00  0.28075419728E+03  0.28075419729E+03  0.25500000000E-02 0.  1.
          2   -1    0    0  501    0  0.00000000000E+00 -0.00000000000E+00 -0.42401963107E+04  0.42401963107E+04  0.25500000000E-02 0. -1.
    8880022    1    1    2    0    0 -0.48201774081E+03  0.32582911202E+01 -0.39827258282E+04  0.40147040232E+04  0.15294330000E+03 0.  0.
    8880022    1    1    2    0    0  0.48201774081E+03 -0.32582911202E+01  0.23283714754E+02  0.50624648473E+03  0.15294330000E+03 0.  0.
<mgrwt>
<rscale>  0 0.50571076E+03</rscale>
<asrwt>0</asrwt>
<pdfrwt beam="1">  1        2 0.65233785E+00 0.50571076E+03</pdfrwt>
<pdfrwt beam="2">  1       -2 0.43192957E-01 0.50571076E+03</pdfrwt>
<totfact> 0.13215184E+00</totfact>
</mgrwt>
</event>
<event>
 4    1  0.1033139E-008  0.3732433E+03  0.7818608E-02  0.1053460E+00
         -2   -1    0    0    0  501 -0.00000000000E+00  0.00000000000E+00  0.54675577295E+04  0.54675577295E+04  0.25500000000E-02 0.  1.
          2   -1    0    0  501    0  0.00000000000E+00 -0.00000000000E+00 -0.20829087379E+03  0.20829087381E+03  0.25500000000E-02 0. -1.
    8880022    1    1    2    0    0  0.37553996204E+02  0.33839124239E+03  0.52883209832E+04  0.53014761539E+04  0.15294330000E+03 0.  0.
    8880022    1    1    2    0    0 -0.37553996204E+02 -0.33839124239E+03 -0.29054127500E+02  0.37437244944E+03  0.15294330000E+03 0.  0.
<mgrwt>
<rscale>  0 0.37324334E+03</rscale>
<asrwt>0</asrwt>
<pdfrwt beam="1">  1        2 0.32044751E-01 0.37324334E+03</pdfrwt>
<pdfrwt beam="2">  1       -2 0.84116268E+00 0.37324334E+03</pdfrwt>
<totfact> 0.91317290E-03</totfact>
</mgrwt>
</event>
<event>
 4    1  0.1060017E-008  0.1138661E+04  0.7818608E-02  0.9168308E-01
         -2   -1    0    0    0  501 -0.00000000000E+00  0.00000000000E+00  0.16134939309E+04  0.16134939309E+04  0.25500000000E-02 0.  1.
          2   -1    0    0  501    0  0.00000000000E+00 -0.00000000000E+00 -0.22055217735E+04  0.22055217735E+04  0.25500000000E-02 0. -1.
    8880022    1    1    2    0    0 -0.41775208616E+03 -0.10481608310E+04  0.12264004018E+04  0.16735015780E+04  0.15294330000E+03 0.  0.
    8880022    1    1    2    0    0  0.41775208616E+03  0.10481608310E+04 -0.18184282444E+04  0.21455141263E+04  0.15294330000E+03 0.  0.
<mgrwt>
<rscale>  0 0.11386613E+04</rscale>
<asrwt>0</asrwt>
<pdfrwt beam="1">  1        2 0.33931104E+00 0.11386613E+04</pdfrwt>
<pdfrwt beam="2">  1       -2 0.24822984E+00 0.11386613E+04</pdfrwt>
<totfact> 0.33221944E-01</totfact>
</mgrwt>
</event>
<event>
 4    1  0.1033139E-008  0.7431982E+03  0.7818608E-02  0.9646082E-01
         -2   -1    0    0    0  501 -0.00000000000E+00  0.00000000000E+00  0.80261440037E+03  0.80261440038E+03  0.25500000000E-02 0.  1.
          2   -1    0    0  501    0  0.00000000000E+00 -0.00000000000E+00 -0.20817682926E+04  0.20817682927E+04  0.25500000000E-02 0. -1.
    8880022    1    1    2    0    0 -0.53240335299E+03  0.49547809321E+03  0.54040093923E+03  0.91889972210E+03  0.15294330000E+03 0.  0.
    8880022    1    1    2    0    0  0.53240335299E+03 -0.49547809321E+03 -0.18195548315E+04  0.19654829709E+04  0.15294330000E+03 0.  0.
<mgrwt>
<rscale>  0 0.74319817E+03</rscale>
<asrwt>0</asrwt>
<pdfrwt beam="1">  1        2 0.32027204E+00 0.74319817E+03</pdfrwt>
<pdfrwt beam="2">  1       -2 0.12347914E+00 0.74319817E+03</pdfrwt>
<totfact> 0.30930739E+00</totfact>
</mgrwt>
</event>
<event>
 4    1  0.1033139E-008  0.1256828E+04  0.7818608E-02  0.9064519E-01
         -2   -1    0    0    0  501 -0.00000000000E+00  0.00000000000E+00  0.44966966163E+03  0.44966966164E+03  0.25500000000E-02 0.  1.
          2   -1    0    0  501    0  0.00000000000E+00 -0.00000000000E+00 -0.38629750090E+04  0.38629750090E+04  0.25500000000E-02 0. -1.
    8880022    1    1    2    0    0 -0.96625801339E+03 -0.78903201826E+03 -0.10574649639E+04  0.16425132807E+04  0.15294330000E+03 0.  0.
    8880022    1    1    2    0    0  0.96625801339E+03  0.78903201826E+03 -0.23558403835E+04  0.26701313900E+04  0.15294330000E+03 0.  0.
<mgrwt>
<rscale>  0 0.12568284E+04</rscale>
<asrwt>0</asrwt>
<pdfrwt beam="1">  1        2 0.59430382E+00 0.12568284E+04</pdfrwt>
<pdfrwt beam="2">  1       -2 0.69179951E-01 0.12568284E+04</pdfrwt>
<totfact> 0.84287628E-01</totfact>
</mgrwt>
</event>
<event>
 4    1  0.1033139E-008  0.1025392E+04  0.7818608E-02  0.9281125E-01
         -2   -1    0    0    0  501 -0.00000000000E+00  0.00000000000E+00  0.47252817601E+03  0.47252817601E+03  0.25500000000E-02 0.  1.
          2   -1    0    0  501    0  0.00000000000E+00 -0.00000000000E+00 -0.44369203541E+04  0.44369203541E+04  0.25500000000E-02 0. -1.
    8880022    1    1    2    0    0 -0.99849463026E+03  0.17619872379E+03 -0.37153431978E+04  0.38542449646E+04  0.15294330000E+03 0.  0.
    8880022    1    1    2    0    0  0.99849463026E+03 -0.17619872379E+03 -0.24904898024E+03  0.10552035654E+04  0.15294330000E+03 0.  0.
<mgrwt>
<rscale>  0 0.10253922E+04</rscale>
<asrwt>0</asrwt>
<pdfrwt beam="1">  1        2 0.68260310E+00 0.10253922E+04</pdfrwt>
<pdfrwt beam="2">  1       -2 0.72696646E-01 0.10253922E+04</pdfrwt>
<totfact> 0.25835706E-01</totfact>
</mgrwt>
</event>
<event>
 4    1  0.1033139E-008  0.2335902E+03  0.7818608E-02  0.1124138E+00
         -2   -1    0    0    0  501 -0.00000000000E+00  0.00000000000E+00  0.43515610404E+03  0.43515610405E+03  0.25500000000E-02 0.  1.
          2   -1    0    0  501    0  0.00000000000E+00 -0.00000000000E+00 -0.42138305150E+03  0.42138305151E+03  0.25500000000E-02 0. -1.
    8880022    1    1    2    0    0  0.30188046269E+02  0.17395801866E+03 -0.35205128991E+03  0.42249789838E+03  0.15294330000E+03 0. -1.
    8880022    1    1    2    0    0 -0.30188046269E+02 -0.17395801866E+03  0.36582434244E+03  0.43404125718E+03  0.15294330000E+03 0.  0.
<mgrwt>
<rscale>  0 0.23359016E+03</rscale>
<asrwt>0</asrwt>
<pdfrwt beam="1">  1        2 0.64828162E-01 0.23359016E+03</pdfrwt>
<pdfrwt beam="2">  1       -2 0.66947093E-01 0.23359016E+03</pdfrwt>
<totfact> 0.16026410E+02</totfact>
</mgrwt>
</event>
<event>
 4    1  0.1502064E-008  0.5432421E+03  0.7818608E-02  0.1003070E+00
          2   -1    0    0  501    0  0.00000000000E+00  0.00000000000E+00  0.24243185123E+04  0.24243185123E+04  0.25500000000E-02 0. -1.
         -2   -1    0    0    0  501 -0.00000000000E+00 -0.00000000000E+00 -0.19001923691E+04  0.19001923691E+04  0.25500000000E-02 0.  1.
    8880022    1    1    2    0    0 -0.49989384441E+03  0.14773791640E+03  0.23539132119E+04  0.24157854644E+04  0.15294330000E+03 0. -1.
    8880022    1    1    2    0    0  0.49989384441E+03 -0.14773791640E+03 -0.18297870688E+04  0.19087254170E+04  0.15294330000E+03 0.  0.
<mgrwt>
<rscale>  0 0.54324212E+03</rscale>
<asrwt>0</asrwt>
<pdfrwt beam="1">  1        2 0.37297208E+00 0.54324212E+03</pdfrwt>
<pdfrwt beam="2">  1       -2 0.29233729E+00 0.54324212E+03</pdfrwt>
<totfact> 0.15691392E-01</totfact>
</mgrwt>
</event>
<event>
 4    1  0.1033139E-008  0.1160262E+04  0.7818608E-02  0.9148368E-01
         -2   -1    0    0    0  501 -0.00000000000E+00  0.00000000000E+00  0.57141063834E+03  0.57141063835E+03  0.25500000000E-02 0.  1.
          2   -1    0    0  501    0  0.00000000000E+00 -0.00000000000E+00 -0.30587668746E+04  0.30587668746E+04  0.25500000000E-02 0. -1.
    8880022    1    1    2    0    0 -0.25446982424E+03 -0.11216332670E+04 -0.21137389954E+04  0.24112445481E+04  0.15294330000E+03 0.  0.
    8880022    1    1    2    0    0  0.25446982424E+03  0.11216332670E+04 -0.37361724085E+03  0.12189329648E+04  0.15294330000E+03 0.  0.
<mgrwt>
<rscale>  0 0.11602619E+04</rscale>
<asrwt>0</asrwt>
<pdfrwt beam="1">  1        2 0.47057951E+00 0.11602619E+04</pdfrwt>
<pdfrwt beam="2">  1       -2 0.87909331E-01 0.11602619E+04</pdfrwt>
<totfact> 0.17809444E+00</totfact>
</mgrwt>
</event>
<event>
 4    1  0.1033139E-008  0.7768638E+03  0.7818608E-02  0.9594123E-01
         -2   -1    0    0    0  501 -0.00000000000E+00  0.00000000000E+00  0.94040745867E+03  0.94040745867E+03  0.25500000000E-02 0.  1.
          2   -1    0    0  501    0  0.00000000000E+00 -0.00000000000E+00 -0.21613005611E+04  0.21613005611E+04  0.25500000000E-02 0. -1.
    8880022    1    1    2    0    0 -0.23259606865E+03  0.72527563907E+03  0.68993039964E+03  0.10390001411E+04  0.15294330000E+03 0.  0.
    8880022    1    1    2    0    0  0.23259606865E+03 -0.72527563907E+03 -0.19108235021E+04  0.20627078787E+04  0.15294330000E+03 0.  0.
<mgrwt>
<rscale>  0 0.77686378E+03</rscale>
<asrwt>0</asrwt>
<pdfrwt beam="1">  1        2 0.33250778E+00 0.77686378E+03</pdfrwt>
<pdfrwt beam="2">  1       -2 0.14467807E+00 0.77686378E+03</pdfrwt>
<totfact> 0.18550991E+00</totfact>
</mgrwt>
</event>
<event>
 4    1  0.1033139E-008  0.4075068E+03  0.7818608E-02  0.1041211E+00
          2   -1    0    0  501    0  0.00000000000E+00  0.00000000000E+00  0.12126469351E+04  0.12126469351E+04  0.25500000000E-02 0. -1.
         -2   -1    0    0    0  501 -0.00000000000E+00 -0.00000000000E+00 -0.17255318012E+03  0.17255318014E+03  0.25500000000E-02 0.  1.
    8880022    1    1    2    0    0  0.32302104713E+03  0.19577417717E+03  0.20540478004E+03  0.45634734799E+03  0.15294330000E+03 0.  0.
    8880022    1    1    2    0    0 -0.32302104713E+03 -0.19577417717E+03  0.83468897497E+03  0.92885276728E+03  0.15294330000E+03 0.  0.
<mgrwt>
<rscale>  0 0.40750678E+03</rscale>
<asrwt>0</asrwt>
<pdfrwt beam="1">  1        2 0.18656106E+00 0.40750678E+03</pdfrwt>
<pdfrwt beam="2">  1       -2 0.26546644E-01 0.40750678E+03</pdfrwt>
<totfact> 0.24856133E+02</totfact>
</mgrwt>
</event>
<event>
 4    1  0.1033139E-008  0.1130529E+04  0.7818608E-02  0.9175936E-01
         -2   -1    0    0    0  501 -0.00000000000E+00  0.00000000000E+00  0.19674296142E+04  0.19674296142E+04  0.25500000000E-02 0.  1.
          2   -1    0    0  501    0  0.00000000000E+00 -0.00000000000E+00 -0.16463769029E+04  0.16463769029E+04  0.25500000000E-02 0. -1.
    8880022    1    1    2    0    0  0.63630762289E+03 -0.92185543120E+03  0.15664549049E+04  0.19318067836E+04  0.15294330000E+03 0.  0.
    8880022    1    1    2    0    0 -0.63630762289E+03  0.92185543120E+03 -0.12454021936E+04  0.16819997336E+04  0.15294330000E+03 0.  0.
<mgrwt>
<rscale>  0 0.11305293E+04</rscale>
<asrwt>0</asrwt>
<pdfrwt beam="1">  1        2 0.25328875E+00 0.11305293E+04</pdfrwt>
<pdfrwt beam="2">  1       -2 0.30268148E+00 0.11305293E+04</pdfrwt>
<totfact> 0.31697932E-01</totfact>
</mgrwt>
</event>
<event>
 4    1  0.1033139E-008  0.1524152E+04  0.7818608E-02  0.8868549E-01
          2   -1    0    0  501    0  0.00000000000E+00  0.00000000000E+00  0.25830617835E+04  0.25830617835E+04  0.25500000000E-02 0. -1.
         -2   -1    0    0    0  501 -0.00000000000E+00 -0.00000000000E+00 -0.10478297225E+04  0.10478297225E+04  0.25500000000E-02 0.  1.
    8880022    1    1    2    0    0 -0.12322128598E+04 -0.88391126846E+03  0.14510437828E+04  0.21044161601E+04  0.15294330000E+03 0.  0.
    8880022    1    1    2    0    0  0.12322128598E+04  0.88391126846E+03  0.84188278131E+02  0.15264753458E+04  0.15294330000E+03 0.  0.
<mgrwt>
<rscale>  0 0.15241520E+04</rscale>
<asrwt>0</asrwt>
<pdfrwt beam="1">  1        2 0.39739412E+00 0.15241520E+04</pdfrwt>
<pdfrwt beam="2">  1       -2 0.16120457E+00 0.15241520E+04</pdfrwt>
<totfact> 0.72330213E-01</totfact>
</mgrwt>
</event>
<event>
 4    1  0.1033139E-008  0.2314997E+04  0.7818608E-02  0.8472031E-01
          2   -1    0    0  501    0  0.00000000000E+00  0.00000000000E+00  0.47400702308E+04  0.47400702308E+04  0.25500000000E-02 0. -1.
         -2   -1    0    0    0  501 -0.00000000000E+00 -0.00000000000E+00 -0.12582439291E+04  0.12582439291E+04  0.25500000000E-02 0.  1.
    8880022    1    1    2    0    0  0.95138418371E+03 -0.21049201717E+04  0.26960924738E+04  0.35536076140E+04  0.15294330000E+03 0.  0.
    8880022    1    1    2    0    0 -0.95138418371E+03  0.21049201717E+04  0.78573382790E+03  0.24447065459E+04  0.15294330000E+03 0.  0.
<mgrwt>
<rscale>  0 0.23149973E+04</rscale>
<asrwt>0</asrwt>
<pdfrwt beam="1">  1        2 0.72924157E+00 0.23149973E+04</pdfrwt>
<pdfrwt beam="2">  1       -2 0.19357599E+00 0.23149973E+04</pdfrwt>
<totfact> 0.88669306E-03</totfact>
</mgrwt>
</event>
<event>
 4    1  0.1033139E-008  0.2710308E+03  0.7818608E-02  0.1100691E+00
         -2   -1    0    0    0  501 -0.00000000000E+00  0.00000000000E+00  0.77593442171E+03  0.77593442171E+03  0.25500000000E-02 0.  1.
          2   -1    0    0  501    0  0.00000000000E+00 -0.00000000000E+00 -0.14970508664E+04  0.14970508664E+04  0.25500000000E-02 0. -1.
    8880022    1    1    2    0    0 -0.18869810308E+02 -0.22295739125E+03 -0.14605294813E+04  0.14854642664E+04  0.15294330000E+03 0.  0.
    8880022    1    1    2    0    0  0.18869810308E+02  0.22295739125E+03  0.73941303655E+03  0.78752102174E+03  0.15294330000E+03 0.  0.
<mgrwt>
<rscale>  0 0.27103085E+03</rscale>
<asrwt>0</asrwt>
<pdfrwt beam="1">  1        2 0.23031552E+00 0.27103085E+03</pdfrwt>
<pdfrwt beam="2">  1       -2 0.11937453E+00 0.27103085E+03</pdfrwt>
<totfact> 0.78541467E+00</totfact>
</mgrwt>
</event>
<event>
 4    1  0.1033139E-008  0.1736462E+03  0.7818608E-02  0.1174098E+00
         -2   -1    0    0    0  501 -0.00000000000E+00  0.00000000000E+00  0.66981330747E+02  0.66981330796E+02  0.25500000000E-02 0.  1.
          2   -1    0    0  501    0  0.00000000000E+00 -0.00000000000E+00 -0.11925126178E+04  0.11925126178E+04  0.25500000000E-02 0. -1.
    8880022    1    1    2    0    0  0.23232902128E+02  0.78876942888E+02 -0.10596287652E+04  0.10737625962E+04  0.15294330000E+03 0.  0.
    8880022    1    1    2    0    0 -0.23232902128E+02 -0.78876942888E+02 -0.65902521784E+02  0.18573135237E+03  0.15294330000E+03 0.  1.
<mgrwt>
<rscale>  0 0.17364617E+03</rscale>
<asrwt>0</asrwt>
<pdfrwt beam="1">  1        2 0.18346346E+00 0.17364617E+03</pdfrwt>
<pdfrwt beam="2">  1       -2 0.10304821E-01 0.17364617E+03</pdfrwt>
<totfact> 0.12813837E+03</totfact>
</mgrwt>
</event>
<event>
 4    1  0.1033139E-008  0.4254652E+03  0.7818608E-02  0.1035302E+00
          2   -1    0    0  501    0  0.00000000000E+00  0.00000000000E+00  0.22884747596E+04  0.22884747596E+04  0.25500000000E-02 0. -1.
         -2   -1    0    0    0  501 -0.00000000000E+00 -0.00000000000E+00 -0.35966296354E+03  0.35966296355E+03  0.25500000000E-02 0.  1.
    8880022    1    1    2    0    0 -0.59706846770E+01 -0.39698029939E+03 -0.20503183610E+03  0.47229092094E+03  0.15294330000E+03 0.  0.
    8880022    1    1    2    0    0  0.59706846770E+01  0.39698029939E+03  0.21338436321E+04  0.21758468022E+04  0.15294330000E+03 0.  0.
<mgrwt>
<rscale>  0 0.42546523E+03</rscale>
<asrwt>0</asrwt>
<pdfrwt beam="1">  1        2 0.35207305E+00 0.42546523E+03</pdfrwt>
<pdfrwt beam="2">  1       -2 0.55332762E-01 0.42546523E+03</pdfrwt>
<totfact> 0.15722458E+01</totfact>
</mgrwt>
</event>
<event>
 4    1  0.1033139E-008  0.5468209E+03  0.7818608E-02  0.1002232E+00
         -2   -1    0    0    0  501 -0.00000000000E+00  0.00000000000E+00  0.20994484405E+03  0.20994484407E+03  0.25500000000E-02 0.  1.
          2   -1    0    0  501    0  0.00000000000E+00 -0.00000000000E+00 -0.15092147753E+04  0.15092147753E+04  0.25500000000E-02 0. -1.
    8880022    1    1    2    0    0  0.62924996922E+02 -0.52121197350E+03 -0.44567728980E+03  0.70543701081E+03  0.15294330000E+03 0.  0.
    8880022    1    1    2    0    0 -0.62924996922E+02  0.52121197350E+03 -0.85359264147E+03  0.10137226086E+04  0.15294330000E+03 0.  0.
<mgrwt>
<rscale>  0 0.54682093E+03</rscale>
<asrwt>0</asrwt>
<pdfrwt beam="1">  1        2 0.23218688E+00 0.54682093E+03</pdfrwt>
<pdfrwt beam="2">  1       -2 0.32299208E-01 0.54682093E+03</pdfrwt>
<totfact> 0.11630568E+02</totfact>
</mgrwt>
</event>
<event>
 4    1  0.1033139E-008  0.4674884E+03  0.7818608E-02  0.1022631E+00
         -2   -1    0    0    0  501 -0.00000000000E+00  0.00000000000E+00  0.16623668648E+04  0.16623668648E+04  0.25500000000E-02 0.  1.
          2   -1    0    0  501    0  0.00000000000E+00 -0.00000000000E+00 -0.22715929643E+04  0.22715929643E+04  0.25500000000E-02 0. -1.
    8880022    1    1    2    0    0 -0.43231295703E+03  0.90880620557E+02  0.16045999985E+04  0.16713128338E+04  0.15294330000E+03 0.  0.
    8880022    1    1    2    0    0  0.43231295703E+03 -0.90880620557E+02 -0.22138260980E+04  0.22626469953E+04  0.15294330000E+03 0. -1.
<mgrwt>
<rscale>  0 0.46748843E+03</rscale>
<asrwt>0</asrwt>
<pdfrwt beam="1">  1        2 0.34947584E+00 0.46748843E+03</pdfrwt>
<pdfrwt beam="2">  1       -2 0.25574875E+00 0.46748843E+03</pdfrwt>
<totfact> 0.32389035E-01</totfact>
</mgrwt>
</event>
<event>
 4    1  0.1033139E-008  0.7783187E+03  0.7818608E-02  0.9591941E-01
          2   -1    0    0  501    0  0.00000000000E+00  0.00000000000E+00  0.13854999422E+04  0.13854999422E+04  0.25500000000E-02 0. -1.
         -2   -1    0    0    0  501 -0.00000000000E+00 -0.00000000000E+00 -0.66484922191E+03  0.66484922191E+03  0.25500000000E-02 0.  1.
    8880022    1    1    2    0    0 -0.28217989073E+03 -0.70905768583E+03  0.96017475551E+03  0.12360078910E+04  0.15294330000E+03 0.  0.
    8880022    1    1    2    0    0  0.28217989073E+03  0.70905768583E+03 -0.23952403523E+03  0.81434127307E+03  0.15294330000E+03 0.  0.
<mgrwt>
<rscale>  0 0.77831867E+03</rscale>
<asrwt>0</asrwt>
<pdfrwt beam="1">  1        2 0.21315384E+00 0.77831867E+03</pdfrwt>
<pdfrwt beam="2">  1       -2 0.10228450E+00 0.77831867E+03</pdfrwt>
<totfact> 0.11763251E+01</totfact>
</mgrwt>
</event>
<event>
 4    1  0.1033139E-008  0.6324816E+03  0.7818608E-02  0.9840218E-01
          2   -1    0    0  501    0  0.00000000000E+00  0.00000000000E+00  0.11046764340E+04  0.11046764340E+04  0.25500000000E-02 0. -1.
         -2   -1    0    0    0  501 -0.00000000000E+00 -0.00000000000E+00 -0.57989610631E+03  0.57989610632E+03  0.25500000000E-02 0.  1.
    8880022    1    1    2    0    0 -0.32499473615E+02  0.61285001302E+03  0.77854844576E+03  0.10030805998E+04  0.15294330000E+03 0.  0.
    8880022    1    1    2    0    0  0.32499473615E+02 -0.61285001302E+03 -0.25376811808E+03  0.68149194053E+03  0.15294330000E+03 0.  0.
<mgrwt>
<rscale>  0 0.63248163E+03</rscale>
<asrwt>0</asrwt>
<pdfrwt beam="1">  1        2 0.16995022E+00 0.63248163E+03</pdfrwt>
<pdfrwt beam="2">  1       -2 0.89214786E-01 0.63248163E+03</pdfrwt>
<totfact> 0.24071888E+01</totfact>
</mgrwt>
</event>
<event>
 4    1  0.1033139E-008  0.4412964E+03  0.7818608E-02  0.1030350E+00
         -2   -1    0    0    0  501 -0.00000000000E+00  0.00000000000E+00  0.95573769025E+03  0.95573769025E+03  0.25500000000E-02 0.  1.
          2   -1    0    0  501    0  0.00000000000E+00 -0.00000000000E+00 -0.12727784915E+04  0.12727784915E+04  0.25500000000E-02 0. -1.
    8880022    1    1    2    0    0  0.22824466455E+03 -0.34533345174E+03  0.86265819208E+03  0.96897968460E+03  0.15294330000E+03 0.  0.
    8880022    1    1    2    0    0 -0.22824466455E+03  0.34533345174E+03 -0.11796989933E+04  0.12595364971E+04  0.15294330000E+03 0.  0.
<mgrwt>
<rscale>  0 0.44129635E+03</rscale>
<asrwt>0</asrwt>
<pdfrwt beam="1">  1        2 0.19581208E+00 0.44129635E+03</pdfrwt>
<pdfrwt beam="2">  1       -2 0.14703657E+00 0.44129635E+03</pdfrwt>
<totfact> 0.58622419E+00</totfact>
</mgrwt>
</event>
<event>
 4    1  0.1033139E-008  0.2476471E+03  0.7818608E-02  0.1114801E+00
          2   -1    0    0  501    0  0.00000000000E+00  0.00000000000E+00  0.51956013092E+03  0.51956013093E+03  0.25500000000E-02 0. -1.
         -2   -1    0    0    0  501 -0.00000000000E+00 -0.00000000000E+00 -0.12827321125E+04  0.12827321125E+04  0.25500000000E-02 0.  1.
    8880022    1    1    2    0    0 -0.17614387561E+03 -0.83131114719E+02 -0.12402687078E+04  0.12647511880E+04  0.15294330000E+03 0.  0.
    8880022    1    1    2    0    0  0.17614387561E+03  0.83131114719E+02  0.47709672616E+03  0.53754105543E+03  0.15294330000E+03 0. -1.
<mgrwt>
<rscale>  0 0.24764713E+03</rscale>
<asrwt>0</asrwt>
<pdfrwt beam="1">  1        2 0.79932328E-01 0.24764713E+03</pdfrwt>
<pdfrwt beam="2">  1       -2 0.19734340E+00 0.24764713E+03</pdfrwt>
<totfact> 0.91171736E+00</totfact>
</mgrwt>
</event>
<event>
 4    1  0.1033139E-008  0.5416612E+03  0.7818608E-02  0.1003443E+00
         -2   -1    0    0    0  501 -0.00000000000E+00  0.00000000000E+00  0.11998811068E+04  0.11998811068E+04  0.25500000000E-02 0.  1.
          2   -1    0    0  501    0  0.00000000000E+00 -0.00000000000E+00 -0.13995951634E+04  0.13995951634E+04  0.25500000000E-02 0. -1.
    8880022    1    1    2    0    0 -0.51961463787E+03  0.24255602357E+01  0.10808970593E+04  0.12090224816E+04  0.15294330000E+03 0.  0.
    8880022    1    1    2    0    0  0.51961463787E+03 -0.24255602357E+01 -0.12806111159E+04  0.13904537887E+04  0.15294330000E+03 0.  0.
<mgrwt>
<rscale>  0 0.54166125E+03</rscale>
<asrwt>0</asrwt>
<pdfrwt beam="1">  1        2 0.21532233E+00 0.54166125E+03</pdfrwt>
<pdfrwt beam="2">  1       -2 0.18459709E+00 0.54166125E+03</pdfrwt>
<totfact> 0.26148402E+00</totfact>
</mgrwt>
</event>
<event>
 4    1  0.1033139E-008  0.1219295E+04  0.7818608E-02  0.9096133E-01
         -2   -1    0    0    0  501 -0.00000000000E+00  0.00000000000E+00  0.23251088391E+04  0.23251088391E+04  0.25500000000E-02 0.  1.
          2   -1    0    0  501    0  0.00000000000E+00 -0.00000000000E+00 -0.10986531043E+04  0.10986531043E+04  0.25500000000E-02 0. -1.
    8880022    1    1    2    0    0  0.11732745520E+04  0.29447626090E+03  0.17200249321E+04  0.21083564363E+04  0.15294330000E+03 0.  0.
    8880022    1    1    2    0    0 -0.11732745520E+04 -0.29447626090E+03 -0.49356919728E+03  0.13154055071E+04  0.15294330000E+03 0. -1.
<mgrwt>
<rscale>  0 0.12192953E+04</rscale>
<asrwt>0</asrwt>
<pdfrwt beam="1">  1        2 0.16902356E+00 0.12192953E+04</pdfrwt>
<pdfrwt beam="2">  1       -2 0.35770905E+00 0.12192953E+04</pdfrwt>
<totfact> 0.29745379E-01</totfact>
</mgrwt>
</event>
<event>
 4    1  0.1033139E-008  0.7760791E+03  0.7818608E-02  0.9595302E-01
         -2   -1    0    0    0  501 -0.00000000000E+00  0.00000000000E+00  0.41328479713E+03  0.41328479714E+03  0.25500000000E-02 0.  1.
          2   -1    0    0  501    0  0.00000000000E+00 -0.00000000000E+00 -0.27084574725E+04  0.27084574725E+04  0.25500000000E-02 0. -1.
    8880022    1    1    2    0    0 -0.41472531798E+03  0.63789501428E+03 -0.22084366461E+04  0.23408313077E+04  0.15294330000E+03 0.  0.
    8880022    1    1    2    0    0  0.41472531798E+03 -0.63789501428E+03 -0.86736029314E+02  0.78091096190E+03  0.15294330000E+03 0.  0.
<mgrwt>
<rscale>  0 0.77607911E+03</rscale>
<asrwt>0</asrwt>
<pdfrwt beam="1">  1        2 0.41668575E+00 0.77607911E+03</pdfrwt>
<pdfrwt beam="2">  1       -2 0.63582278E-01 0.77607911E+03</pdfrwt>
<totfact> 0.63149009E+00</totfact>
</mgrwt>
</event>
<event>
 4    1  0.1033139E-008  0.1035999E+04  0.7818608E-02  0.9269920E-01
          2   -1    0    0  501    0  0.00000000000E+00  0.00000000000E+00  0.99242236945E+03  0.99242236946E+03  0.25500000000E-02 0. -1.
         -2   -1    0    0    0  501 -0.00000000000E+00 -0.00000000000E+00 -0.19544194034E+04  0.19544194034E+04  0.25500000000E-02 0.  1.
    8880022    1    1    2    0    0 -0.49472249829E+03 -0.89730210681E+03  0.50371057975E+03  0.11519624223E+04  0.15294330000E+03 0.  0.
    8880022    1    1    2    0    0  0.49472249829E+03  0.89730210681E+03 -0.14657076137E+04  0.17948793506E+04  0.15294330000E+03 0.  0.
<mgrwt>
<rscale>  0 0.10359986E+04</rscale>
<asrwt>0</asrwt>
<pdfrwt beam="1">  1        2 0.15268037E+00 0.10359986E+04</pdfrwt>
<pdfrwt beam="2">  1       -2 0.30067991E+00 0.10359986E+04</pdfrwt>
<totfact> 0.80102336E-01</totfact>
</mgrwt>
</event>
<event>
 4    1  0.1033139E-008  0.1171459E+04  0.7818608E-02  0.9138211E-01
          2   -1    0    0  501    0  0.00000000000E+00  0.00000000000E+00  0.11214708813E+04  0.11214708813E+04  0.25500000000E-02 0. -1.
         -2   -1    0    0    0  501 -0.00000000000E+00 -0.00000000000E+00 -0.21624536352E+04  0.21624536352E+04  0.25500000000E-02 0.  1.
    8880022    1    1    2    0    0  0.11579260159E+04 -0.90183146635E+02  0.56136864256E+03  0.12990196550E+04  0.15294330000E+03 0.  0.
    8880022    1    1    2    0    0 -0.11579260159E+04  0.90183146635E+02 -0.16023513965E+04  0.19849048614E+04  0.15294330000E+03 0.  0.
<mgrwt>
<rscale>  0 0.11714595E+04</rscale>
<asrwt>0</asrwt>
<pdfrwt beam="1">  1        2 0.17253398E+00 0.11714595E+04</pdfrwt>
<pdfrwt beam="2">  1       -2 0.33268517E+00 0.11714595E+04</pdfrwt>
<totfact> 0.41534568E-01</totfact>
</mgrwt>
</event>
<event>
 4    1  0.1033139E-008  0.1006788E+04  0.7818608E-02  0.9301131E-01
         -2   -1    0    0    0  501 -0.00000000000E+00  0.00000000000E+00  0.57049307530E+03  0.57049307531E+03  0.25500000000E-02 0.  1.
          2   -1    0    0  501    0  0.00000000000E+00 -0.00000000000E+00 -0.32591239040E+04  0.32591239040E+04  0.25500000000E-02 0. -1.
    8880022    1    1    2    0    0 -0.92877596069E+03  0.35721905853E+03 -0.52934927552E+02  0.10081785559E+04  0.15294330000E+03 0.  0.
    8880022    1    1    2    0    0  0.92877596069E+03 -0.35721905853E+03 -0.26356959011E+04  0.28214384234E+04  0.15294330000E+03 0.  0.
<mgrwt>
<rscale>  0 0.10067879E+04</rscale>
<asrwt>0</asrwt>
<pdfrwt beam="1">  1        2 0.50140367E+00 0.10067879E+04</pdfrwt>
<pdfrwt beam="2">  1       -2 0.87768168E-01 0.10067879E+04</pdfrwt>
<totfact> 0.13625805E+00</totfact>
</mgrwt>
</event>
<event>
 4    1  0.1033139E-008  0.6739014E+03  0.7818608E-02  0.9762935E-01
          2   -1    0    0  501    0  0.00000000000E+00  0.00000000000E+00  0.35393329107E+03  0.35393329108E+03  0.25500000000E-02 0. -1.
         -2   -1    0    0    0  501 -0.00000000000E+00 -0.00000000000E+00 -0.22854506614E+04  0.22854506614E+04  0.25500000000E-02 0.  1.
    8880022    1    1    2    0    0 -0.46218294209E+03  0.46598115530E+03 -0.18397146295E+04  0.19592582985E+04  0.15294330000E+03 0.  0.
    8880022    1    1    2    0    0  0.46218294209E+03 -0.46598115530E+03 -0.91802740863E+02  0.68012565406E+03  0.15294330000E+03 0.  0.
<mgrwt>
<rscale>  0 0.67390145E+03</rscale>
<asrwt>0</asrwt>
<pdfrwt beam="1">  1        2 0.54451277E-01 0.67390145E+03</pdfrwt>
<pdfrwt beam="2">  1       -2 0.35160779E+00 0.67390145E+03</pdfrwt>
<totfact> 0.14802488E+00</totfact>
</mgrwt>
</event>
<event>
 4    1  0.1033139E-008  0.1344950E+04  0.7818608E-02  0.8994660E-01
         -2   -1    0    0    0  501 -0.00000000000E+00  0.00000000000E+00  0.18355291678E+04  0.18355291678E+04  0.25500000000E-02 0.  1.
          2   -1    0    0  501    0  0.00000000000E+00 -0.00000000000E+00 -0.11872155278E+04  0.11872155278E+04  0.25500000000E-02 0. -1.
    8880022    1    1    2    0    0 -0.13320558660E+04 -0.10547925853E+03 -0.29884629211E+03  0.13777515971E+04  0.15294330000E+03 0.  0.
    8880022    1    1    2    0    0  0.13320558660E+04  0.10547925853E+03  0.94715993210E+03  0.16449930985E+04  0.15294330000E+03 0.  0.
<mgrwt>
<rscale>  0 0.13449499E+04</rscale>
<asrwt>0</asrwt>
<pdfrwt beam="1">  1        2 0.18264854E+00 0.13449499E+04</pdfrwt>
<pdfrwt beam="2">  1       -2 0.28238910E+00 0.13449499E+04</pdfrwt>
<totfact> 0.75309909E-01</totfact>
</mgrwt>
</event>
<event>
 4    1  0.1033139E-008  0.7957372E+03  0.7818608E-02  0.9566208E-01
          2   -1    0    0  501    0  0.00000000000E+00  0.00000000000E+00  0.16627875122E+04  0.16627875122E+04  0.25500000000E-02 0. -1.
         -2   -1    0    0    0  501 -0.00000000000E+00 -0.00000000000E+00 -0.10086640611E+04  0.10086640612E+04  0.25500000000E-02 0.  1.
    8880022    1    1    2    0    0 -0.74162135660E+03 -0.24454802064E+03  0.13809028838E+04  0.15937661053E+04  0.15294330000E+03 0.  0.
    8880022    1    1    2    0    0  0.74162135660E+03  0.24454802064E+03 -0.72677943280E+03  0.10776854680E+04  0.15294330000E+03 0.  0.
<mgrwt>
<rscale>  0 0.79573716E+03</rscale>
<asrwt>0</asrwt>
<pdfrwt beam="1">  1        2 0.25581346E+00 0.79573716E+03</pdfrwt>
<pdfrwt beam="2">  1       -2 0.15517909E+00 0.79573716E+03</pdfrwt>
<totfact> 0.28791012E+00</totfact>
</mgrwt>
</event>
<event>
 4    1  0.1033139E-008  0.2024431E+03  0.7818608E-02  0.1147694E+00
         -2   -1    0    0    0  501 -0.00000000000E+00  0.00000000000E+00  0.14566104079E+04  0.14566104079E+04  0.25500000000E-02 0.  1.
          2   -1    0    0  501    0  0.00000000000E+00 -0.00000000000E+00 -0.26353874045E+04  0.26353874045E+04  0.25500000000E-02 0. -1.
    8880022    1    1    2    0    0 -0.68301888414E+02 -0.11369435200E+03 -0.26244363160E+04  0.26322327373E+04  0.15294330000E+03 0. -1.
    8880022    1    1    2    0    0  0.68301888414E+02  0.11369435200E+03  0.14456593194E+04  0.14597650751E+04  0.15294330000E+03 0.  0.
<mgrwt>
<rscale>  0 0.20244309E+03</rscale>
<asrwt>0</asrwt>
<pdfrwt beam="1">  1        2 0.40544422E+00 0.20244309E+03</pdfrwt>
<pdfrwt beam="2">  1       -2 0.22409391E+00 0.20244309E+03</pdfrwt>
<totfact> 0.37378208E-01</totfact>
</mgrwt>
</event>
<event>
 4    1  0.1033139E-008  0.1883217E+04  0.7818608E-02  0.8663256E-01
          2   -1    0    0  501    0  0.00000000000E+00  0.00000000000E+00  0.10511660002E+04  0.10511660003E+04  0.25500000000E-02 0. -1.
         -2   -1    0    0    0  501 -0.00000000000E+00 -0.00000000000E+00 -0.37379672327E+04  0.37379672327E+04  0.25500000000E-02 0.  1.
    8880022    1    1    2    0    0  0.52167181195E+03  0.18030454072E+04 -0.59606947585E+03  0.19752986339E+04  0.15294330000E+03 0.  0.
    8880022    1    1    2    0    0 -0.52167181195E+03 -0.18030454072E+04 -0.20907317566E+04  0.28138345991E+04  0.15294330000E+03 0.  0.
<mgrwt>
<rscale>  0 0.18832169E+04</rscale>
<asrwt>0</asrwt>
<pdfrwt beam="1">  1        2 0.16171785E+00 0.18832169E+04</pdfrwt>
<pdfrwt beam="2">  1       -2 0.57507187E+00 0.18832169E+04</pdfrwt>
<totfact> 0.13401694E-02</totfact>
</mgrwt>
</event>
<event>
 4    1  0.1033139E-008  0.6076409E+03  0.7818608E-02  0.9889679E-01
          2   -1    0    0  501    0  0.00000000000E+00  0.00000000000E+00  0.48914658334E+03  0.48914658335E+03  0.25500000000E-02 0. -1.
         -2   -1    0    0    0  501 -0.00000000000E+00 -0.00000000000E+00 -0.11731335538E+04  0.11731335538E+04  0.25500000000E-02 0.  1.
    8880022    1    1    2    0    0 -0.43100734827E+03  0.40008551763E+03  0.15430285835E+03  0.62692645565E+03  0.15294330000E+03 0.  0.
    8880022    1    1    2    0    0  0.43100734827E+03 -0.40008551763E+03 -0.83828982878E+03  0.10353536815E+04  0.15294330000E+03 0.  0.
<mgrwt>
<rscale>  0 0.60764086E+03</rscale>
<asrwt>0</asrwt>
<pdfrwt beam="1">  1        2 0.75253321E-01 0.60764086E+03</pdfrwt>
<pdfrwt beam="2">  1       -2 0.18048208E+00 0.60764086E+03</pdfrwt>
<totfact> 0.11741000E+01</totfact>
</mgrwt>
</event>
<event>
 4    1  0.1033139E-008  0.5310909E+03  0.7818608E-02  0.1005968E+00
          2   -1    0    0  501    0  0.00000000000E+00  0.00000000000E+00  0.63877787125E+03  0.63877787126E+03  0.25500000000E-02 0. -1.
         -2   -1    0    0    0  501 -0.00000000000E+00 -0.00000000000E+00 -0.12593367729E+04  0.12593367729E+04  0.25500000000E-02 0.  1.
    8880022    1    1    2    0    0 -0.10892480943E+03  0.49679098853E+03 -0.10750644968E+04  0.11990918338E+04  0.15294330000E+03 0.  0.
    8880022    1    1    2    0    0  0.10892480943E+03 -0.49679098853E+03  0.45450559520E+03  0.69902281041E+03  0.15294330000E+03 0.  0.
<mgrwt>
<rscale>  0 0.53109091E+03</rscale>
<asrwt>0</asrwt>
<pdfrwt beam="1">  1        2 0.98273519E-01 0.53109091E+03</pdfrwt>
<pdfrwt beam="2">  1       -2 0.19374412E+00 0.53109091E+03</pdfrwt>
<totfact> 0.70686043E+00</totfact>
</mgrwt>
</event>
<event>
 4    1  0.1033139E-008  0.6157403E+03  0.7818608E-02  0.9873278E-01
         -2   -1    0    0    0  501 -0.00000000000E+00  0.00000000000E+00  0.83767366162E+03  0.83767366163E+03  0.25500000000E-02 0.  1.
          2   -1    0    0  501    0  0.00000000000E+00 -0.00000000000E+00 -0.57020957787E+03  0.57020957788E+03  0.25500000000E-02 0. -1.
    8880022    1    1    2    0    0  0.12231620314E+03  0.58376638864E+03  0.45342252316E+03  0.76467515167E+03  0.15294330000E+03 0.  0.
    8880022    1    1    2    0    0 -0.12231620314E+03 -0.58376638864E+03 -0.18595843941E+03  0.64320808784E+03  0.15294330000E+03 0. -1.
<mgrwt>
<rscale>  0 0.61574029E+03</rscale>
<asrwt>0</asrwt>
<pdfrwt beam="1">  1        2 0.87724551E-01 0.61574029E+03</pdfrwt>
<pdfrwt beam="2">  1       -2 0.12887287E+00 0.61574029E+03</pdfrwt>
<totfact> 0.24018637E+01</totfact>
</mgrwt>
</event>
<event>
 4    1  0.1033139E-008  0.7663568E+03  0.7818608E-02  0.9610033E-01
          2   -1    0    0  501    0  0.00000000000E+00  0.00000000000E+00  0.14365076494E+04  0.14365076494E+04  0.25500000000E-02 0. -1.
         -2   -1    0    0    0  501 -0.00000000000E+00 -0.00000000000E+00 -0.83276228022E+03  0.83276228022E+03  0.25500000000E-02 0.  1.
    8880022    1    1    2    0    0 -0.83810009272E+02  0.74624856773E+03  0.11114129171E+04  0.13500153214E+04  0.15294330000E+03 0.  0.
    8880022    1    1    2    0    0  0.83810009272E+02 -0.74624856773E+03 -0.50766754798E+03  0.91925460825E+03  0.15294330000E+03 0.  0.
<mgrwt>
<rscale>  0 0.76635677E+03</rscale>
<asrwt>0</asrwt>
<pdfrwt beam="1">  1        2 0.22100118E+00 0.76635677E+03</pdfrwt>
<pdfrwt beam="2">  1       -2 0.12811727E+00 0.76635677E+03</pdfrwt>
<totfact> 0.63506258E+00</totfact>
</mgrwt>
</event>
<event>
 4    1  0.1033139E-008  0.1247236E+04  0.7818608E-02  0.9072487E-01
         -2   -1    0    0    0  501 -0.00000000000E+00  0.00000000000E+00  0.14648319921E+04  0.14648319922E+04  0.25500000000E-02 0.  1.
          2   -1    0    0  501    0  0.00000000000E+00 -0.00000000000E+00 -0.24902856372E+04  0.24902856372E+04  0.25500000000E-02 0. -1.
    8880022    1    1    2    0    0 -0.27785586741E+01  0.12378199261E+04  0.98494951859E+03  0.15892523705E+04  0.15294330000E+03 0.  0.
    8880022    1    1    2    0    0  0.27785586741E+01 -0.12378199261E+04 -0.20104031637E+04  0.23658652589E+04  0.15294330000E+03 0.  0.
<mgrwt>
<rscale>  0 0.12472360E+04</rscale>
<asrwt>0</asrwt>
<pdfrwt beam="1">  1        2 0.38312087E+00 0.12472360E+04</pdfrwt>
<pdfrwt beam="2">  1       -2 0.22535877E+00 0.12472360E+04</pdfrwt>
<totfact> 0.31254887E-01</totfact>
</mgrwt>
</event>
<event>
 4    1  0.1033139E-008  0.7759150E+03  0.7818608E-02  0.9595549E-01
          2   -1    0    0  501    0  0.00000000000E+00  0.00000000000E+00  0.15356896020E+04  0.15356896020E+04  0.25500000000E-02 0. -1.
         -2   -1    0    0    0  501 -0.00000000000E+00 -0.00000000000E+00 -0.13054610630E+04  0.13054610630E+04  0.25500000000E-02 0.  1.
    8880022    1    1    2    0    0  0.57574012761E+03 -0.49716767657E+03 -0.10731663431E+04  0.13242847300E+04  0.15294330000E+03 0.  0.
    8880022    1    1    2    0    0 -0.57574012761E+03  0.49716767657E+03  0.13033948821E+04  0.15168659350E+04  0.15294330000E+03 0.  0.
<mgrwt>
<rscale>  0 0.77591497E+03</rscale>
<asrwt>0</asrwt>
<pdfrwt beam="1">  1        2 0.23625994E+00 0.77591497E+03</pdfrwt>
<pdfrwt beam="2">  1       -2 0.20084016E+00 0.77591497E+03</pdfrwt>
<totfact> 0.16368039E+00</totfact>
</mgrwt>
</event>
<event>
 4    1  0.1033139E-008  0.1741921E+04  0.7818608E-02  0.8737810E-01
         -2   -1    0    0    0  501 -0.00000000000E+00  0.00000000000E+00  0.10324498112E+04  0.10324498112E+04  0.25500000000E-02 0.  1.
          2   -1    0    0  501    0  0.00000000000E+00 -0.00000000000E+00 -0.43735552048E+04  0.43735552048E+04  0.25500000000E-02 0. -1.
    8880022    1    1    2    0    0  0.70742410484E+03 -0.15844397824E+04 -0.32186544824E+04  0.36597850508E+04  0.15294330000E+03 0.  0.
    8880022    1    1    2    0    0 -0.70742410484E+03  0.15844397824E+04 -0.12245091124E+03  0.17462199652E+04  0.15294330000E+03 0.  0.
<mgrwt>
<rscale>  0 0.17419213E+04</rscale>
<asrwt>0</asrwt>
<pdfrwt beam="1">  1        2 0.67285464E+00 0.17419213E+04</pdfrwt>
<pdfrwt beam="2">  1       -2 0.15883844E+00 0.17419213E+04</pdfrwt>
<totfact> 0.39020504E-02</totfact>
</mgrwt>
</event>
<event>
 4    1  0.1033139E-008  0.1487422E+04  0.7818608E-02  0.8892861E-01
          2   -1    0    0  501    0  0.00000000000E+00  0.00000000000E+00  0.14400388099E+04  0.14400388099E+04  0.25500000000E-02 0. -1.
         -2   -1    0    0    0  501 -0.00000000000E+00 -0.00000000000E+00 -0.16944453000E+04  0.16944453000E+04  0.25500000000E-02 0.  1.
    8880022    1    1    2    0    0  0.20651044587E+03  0.14650544419E+04 -0.60590338250E+03  0.16060951541E+04  0.15294330000E+03 0.  0.
    8880022    1    1    2    0    0 -0.20651044587E+03 -0.14650544419E+04  0.35149689244E+03  0.15283889559E+04  0.15294330000E+03 0.  0.
<mgrwt>
<rscale>  0 0.14874215E+04</rscale>
<asrwt>0</asrwt>
<pdfrwt beam="1">  1        2 0.22154443E+00 0.14874215E+04</pdfrwt>
<pdfrwt beam="2">  1       -2 0.26068389E+00 0.14874215E+04</pdfrwt>
<totfact> 0.71472850E-01</totfact>
</mgrwt>
</event>
<event>
 4    1  0.1033139E-008  0.1439260E+04  0.7818608E-02  0.8925881E-01
          2   -1    0    0  501    0  0.00000000000E+00  0.00000000000E+00  0.21349330383E+04  0.21349330383E+04  0.25500000000E-02 0. -1.
         -2   -1    0    0    0  501 -0.00000000000E+00 -0.00000000000E+00 -0.11772290470E+04  0.11772290471E+04  0.25500000000E-02 0.  1.
    8880022    1    1    2    0    0 -0.13414494139E+04 -0.49858818023E+03 -0.21551637365E+03  0.14553060379E+04  0.15294330000E+03 0.  0.
    8880022    1    1    2    0    0  0.13414494139E+04  0.49858818023E+03  0.11732203649E+04  0.18568560475E+04  0.15294330000E+03 0.  0.
<mgrwt>
<rscale>  0 0.14392597E+04</rscale>
<asrwt>0</asrwt>
<pdfrwt beam="1">  1        2 0.32845123E+00 0.14392597E+04</pdfrwt>
<pdfrwt beam="2">  1       -2 0.18111216E+00 0.14392597E+04</pdfrwt>
<totfact> 0.94721067E-01</totfact>
</mgrwt>
</event>
<event>
 4    1  0.1033139E-008  0.3694400E+03  0.7818608E-02  0.1054907E+00
          2   -1    0    0  501    0  0.00000000000E+00  0.00000000000E+00  0.39046401993E+03  0.39046401994E+03  0.25500000000E-02 0. -1.
         -2   -1    0    0    0  501 -0.00000000000E+00 -0.00000000000E+00 -0.64171128756E+03  0.64171128756E+03  0.25500000000E-02 0.  1.
    8880022    1    1    2    0    0  0.31624980771E+03 -0.11436913044E+03  0.22260662053E+03  0.43132308006E+03  0.15294330000E+03 0.  0.
    8880022    1    1    2    0    0 -0.31624980771E+03  0.11436913044E+03 -0.47385388816E+03  0.60085222744E+03  0.15294330000E+03 0.  1.
<mgrwt>
<rscale>  0 0.36943997E+03</rscale>
<asrwt>0</asrwt>
<pdfrwt beam="1">  1        2 0.60071388E-01 0.36943997E+03</pdfrwt>
<pdfrwt beam="2">  1       -2 0.98724813E-01 0.36943997E+03</pdfrwt>
<totfact> 0.72358268E+01</totfact>
</mgrwt>
</event>
<event>
 4    1  0.1033139E-008  0.4640335E+03  0.7818608E-02  0.1023618E+00
         -2   -1    0    0    0  501 -0.00000000000E+00  0.00000000000E+00  0.14708546792E+04  0.14708546792E+04  0.25500000000E-02 0.  1.
          2   -1    0    0  501    0  0.00000000000E+00 -0.00000000000E+00 -0.50676639365E+03  0.50676639366E+03  0.25500000000E-02 0. -1.
    8880022    1    1    2    0    0 -0.35198860245E+03 -0.26084381074E+03  0.13158861742E+04  0.13953076887E+04  0.15294330000E+03 0.  0.
    8880022    1    1    2    0    0  0.35198860245E+03  0.26084381074E+03 -0.35179788864E+03  0.58231338412E+03  0.15294330000E+03 0. -1.
<mgrwt>
<rscale>  0 0.46403354E+03</rscale>
<asrwt>0</asrwt>
<pdfrwt beam="1">  1        2 0.77964060E-01 0.46403354E+03</pdfrwt>
<pdfrwt beam="2">  1       -2 0.22628534E+00 0.46403354E+03</pdfrwt>
<totfact> 0.58564999E+00</totfact>
</mgrwt>
</event>
<event>
 4    1  0.1033139E-008  0.4842111E+03  0.7818608E-02  0.1017984E+00
          2   -1    0    0  501    0  0.00000000000E+00  0.00000000000E+00  0.29340425747E+04  0.29340425747E+04  0.25500000000E-02 0. -1.
         -2   -1    0    0    0  501 -0.00000000000E+00 -0.00000000000E+00 -0.41426057502E+03  0.41426057503E+03  0.25500000000E-02 0.  1.
    8880022    1    1    2    0    0 -0.76598059664E+02  0.45299164880E+03 -0.24414692785E+03  0.54228043669E+03  0.15294330000E+03 0.  0.
    8880022    1    1    2    0    0  0.76598059664E+02 -0.45299164880E+03  0.27639289276E+04  0.28060227131E+04  0.15294330000E+03 0.  0.
<mgrwt>
<rscale>  0 0.48421106E+03</rscale>
<asrwt>0</asrwt>
<pdfrwt beam="1">  1        2 0.45139117E+00 0.48421106E+03</pdfrwt>
<pdfrwt beam="2">  1       -2 0.63732396E-01 0.48421106E+03</pdfrwt>
<totfact> 0.49457867E+00</totfact>
</mgrwt>
</event>
<event>
 4    1  0.1033139E-008  0.5202998E+03  0.7818608E-02  0.1008612E+00
          2   -1    0    0  501    0  0.00000000000E+00  0.00000000000E+00  0.54835208573E+03  0.54835208574E+03  0.25500000000E-02 0. -1.
         -2   -1    0    0    0  501 -0.00000000000E+00 -0.00000000000E+00 -0.29273476239E+04  0.29273476239E+04  0.25500000000E-02 0.  1.
    8880022    1    1    2    0    0 -0.71341426199E+02 -0.49216929732E+03  0.39505061703E+03  0.65328160800E+03  0.15294330000E+03 0.  0.
    8880022    1    1    2    0    0  0.71341426199E+02  0.49216929732E+03 -0.27740461552E+04  0.28224181016E+04  0.15294330000E+03 0.  0.
<mgrwt>
<rscale>  0 0.52029979E+03</rscale>
<asrwt>0</asrwt>
<pdfrwt beam="1">  1        2 0.84361861E-01 0.52029979E+03</pdfrwt>
<pdfrwt beam="2">  1       -2 0.45036117E+00 0.52029979E+03</pdfrwt>
<totfact> 0.21579203E-01</totfact>
</mgrwt>
</event>
<event>
 4    1  0.1033139E-008  0.8855061E+03  0.7818608E-02  0.9443883E-01
         -2   -1    0    0    0  501 -0.00000000000E+00  0.00000000000E+00  0.15950069455E+04  0.15950069455E+04  0.25500000000E-02 0.  1.
          2   -1    0    0  501    0  0.00000000000E+00 -0.00000000000E+00 -0.11168202773E+04  0.11168202773E+04  0.25500000000E-02 0. -1.
    8880022    1    1    2    0    0  0.72697528824E+03 -0.48190913560E+03 -0.77541000030E+03  0.11770224324E+04  0.15294330000E+03 0.  0.
    8880022    1    1    2    0    0 -0.72697528824E+03  0.48190913560E+03  0.12535966685E+04  0.15348047905E+04  0.15294330000E+03 0.  0.
<mgrwt>
<rscale>  0 0.88550615E+03</rscale>
<asrwt>0</asrwt>
<pdfrwt beam="1">  1        2 0.17181850E+00 0.88550615E+03</pdfrwt>
<pdfrwt beam="2">  1       -2 0.24538568E+00 0.88550615E+03</pdfrwt>
<totfact> 0.14772844E+00</totfact>
</mgrwt>
</event>
<event>
 4    1  0.1033139E-008  0.5270854E+03  0.7818608E-02  0.1006941E+00
         -2   -1    0    0    0  501 -0.00000000000E+00  0.00000000000E+00  0.27772414609E+03  0.27772414610E+03  0.25500000000E-02 0.  1.
          2   -1    0    0  501    0  0.00000000000E+00 -0.00000000000E+00 -0.18131640746E+04  0.18131640746E+04  0.25500000000E-02 0. -1.
    8880022    1    1    2    0    0 -0.53631347658E+02 -0.50154862493E+03 -0.14676911095E+04  0.15594666365E+04  0.15294330000E+03 0.  0.
    8880022    1    1    2    0    0  0.53631347658E+02  0.50154862493E+03 -0.67748819047E+02  0.53142158417E+03  0.15294330000E+03 0.  0.
<mgrwt>
<rscale>  0 0.52708538E+03</rscale>
<asrwt>0</asrwt>
<pdfrwt beam="1">  1        2 0.27894831E+00 0.52708538E+03</pdfrwt>
<pdfrwt beam="2">  1       -2 0.42726793E-01 0.52708538E+03</pdfrwt>
<totfact> 0.46679082E+01</totfact>
</mgrwt>
</event>
<event>
 4    1  0.1033139E-008  0.1302103E+04  0.7818608E-02  0.9027899E-01
         -2   -1    0    0    0  501 -0.00000000000E+00  0.00000000000E+00  0.80630937366E+03  0.80630937367E+03  0.25500000000E-02 0.  1.
          2   -1    0    0  501    0  0.00000000000E+00 -0.00000000000E+00 -0.21834933385E+04  0.21834933385E+04  0.25500000000E-02 0. -1.
    8880022    1    1    2    0    0  0.10080020213E+04 -0.80994535926E+03 -0.40113291169E+03  0.13624899360E+04  0.15294330000E+03 0.  0.
    8880022    1    1    2    0    0 -0.10080020213E+04  0.80994535926E+03 -0.97605105316E+03  0.16273127761E+04  0.15294330000E+03 0.  0.
<mgrwt>
<rscale>  0 0.13021026E+04</rscale>
<asrwt>0</asrwt>
<pdfrwt beam="1">  1        2 0.33592205E+00 0.13021026E+04</pdfrwt>
<pdfrwt beam="2">  1       -2 0.12404760E+00 0.13021026E+04</pdfrwt>
<totfact> 0.24921202E+00</totfact>
</mgrwt>
</event>
<event>
 4    1  0.1033139E-008  0.6624156E+03  0.7818608E-02  0.9783757E-01
         -2   -1    0    0    0  501 -0.00000000000E+00  0.00000000000E+00  0.74929011415E+03  0.74929011416E+03  0.25500000000E-02 0.  1.
          2   -1    0    0  501    0  0.00000000000E+00 -0.00000000000E+00 -0.24497040688E+04  0.24497040688E+04  0.25500000000E-02 0. -1.
    8880022    1    1    2    0    0  0.26492656312E+03 -0.58755148726E+03 -0.22454830124E+04  0.23411510942E+04  0.15294330000E+03 0.  0.
    8880022    1    1    2    0    0 -0.26492656312E+03  0.58755148726E+03  0.54506905779E+03  0.85784308868E+03  0.15294330000E+03 0.  0.
<mgrwt>
<rscale>  0 0.66241565E+03</rscale>
<asrwt>0</asrwt>
<pdfrwt beam="1">  1        2 0.37687754E+00 0.66241565E+03</pdfrwt>
<pdfrwt beam="2">  1       -2 0.11527540E+00 0.66241565E+03</pdfrwt>
<totfact> 0.23311810E+00</totfact>
</mgrwt>
</event>
<event>
 4    1  0.1033139E-008  0.1082678E+04  0.7818608E-02  0.9222241E-01
          2   -1    0    0  501    0  0.00000000000E+00  0.00000000000E+00  0.14472551108E+04  0.14472551108E+04  0.25500000000E-02 0. -1.
         -2   -1    0    0    0  501 -0.00000000000E+00 -0.00000000000E+00 -0.11253138426E+04  0.11253138426E+04  0.25500000000E-02 0.  1.
    8880022    1    1    2    0    0  0.65015699618E+02  0.10698472253E+04 -0.51997445641E+03  0.12010683640E+04  0.15294330000E+03 0.  0.
    8880022    1    1    2    0    0 -0.65015699618E+02 -0.10698472253E+04  0.84191572460E+03  0.13715005895E+04  0.15294330000E+03 0.  0.
<mgrwt>
<rscale>  0 0.10826781E+04</rscale>
<asrwt>0</asrwt>
<pdfrwt beam="1">  1        2 0.22265463E+00 0.10826781E+04</pdfrwt>
<pdfrwt beam="2">  1       -2 0.17312521E+00 0.10826781E+04</pdfrwt>
<totfact> 0.27070153E+00</totfact>
</mgrwt>
</event>
<event>
 4    1  0.1033139E-008  0.5808074E+03  0.7818608E-02  0.9946045E-01
         -2   -1    0    0    0  501 -0.00000000000E+00  0.00000000000E+00  0.36426119974E+03  0.36426119975E+03  0.25500000000E-02 0.  1.
          2   -1    0    0  501    0  0.00000000000E+00 -0.00000000000E+00 -0.15081954133E+04  0.15081954133E+04  0.25500000000E-02 0. -1.
    8880022    1    1    2    0    0  0.24085277044E+03 -0.50590072036E+03  0.96741689619E+01  0.58088797410E+03  0.15294330000E+03 0.  0.
    8880022    1    1    2    0    0 -0.24085277044E+03  0.50590072036E+03 -0.11536083825E+04  0.12915686389E+04  0.15294330000E+03 0.  0.
<mgrwt>
<rscale>  0 0.58080741E+03</rscale>
<asrwt>0</asrwt>
<pdfrwt beam="1">  1        2 0.23203006E+00 0.58080741E+03</pdfrwt>
<pdfrwt beam="2">  1       -2 0.56040185E-01 0.58080741E+03</pdfrwt>
<totfact> 0.39225018E+01</totfact>
</mgrwt>
</event>
<event>
 4    1  0.1033139E-008  0.6708215E+03  0.7818608E-02  0.9768475E-01
          2   -1    0    0  501    0  0.00000000000E+00  0.00000000000E+00  0.14410731791E+04  0.14410731791E+04  0.25500000000E-02 0. -1.
         -2   -1    0    0    0  501 -0.00000000000E+00 -0.00000000000E+00 -0.51522461864E+03  0.51522461864E+03  0.25500000000E-02 0.  1.
    8880022    1    1    2    0    0  0.62299615229E+03  0.19617757257E+03  0.10768388430E+04  0.12686935771E+04  0.15294330000E+03 0.  0.
    8880022    1    1    2    0    0 -0.62299615229E+03 -0.19617757257E+03 -0.15099028259E+03  0.68760422061E+03  0.15294330000E+03 0.  0.
<mgrwt>
<rscale>  0 0.67082151E+03</rscale>
<asrwt>0</asrwt>
<pdfrwt beam="1">  1        2 0.22170356E+00 0.67082151E+03</pdfrwt>
<pdfrwt beam="2">  1       -2 0.79265328E-01 0.67082151E+03</pdfrwt>
<totfact> 0.19992946E+01</totfact>
</mgrwt>
</event>
<event>
 4    1  0.1033139E-008  0.2010851E+04  0.7818608E-02  0.8601564E-01
         -2   -1    0    0    0  501 -0.00000000000E+00  0.00000000000E+00  0.27554297111E+04  0.27554297111E+04  0.25500000000E-02 0.  1.
          2   -1    0    0  501    0  0.00000000000E+00 -0.00000000000E+00 -0.21201950531E+04  0.21201950531E+04  0.25500000000E-02 0. -1.
    8880022    1    1    2    0    0 -0.19066709067E+04  0.62027010217E+03  0.16702388235E+04  0.26140425257E+04  0.15294330000E+03 0.  0.
    8880022    1    1    2    0    0  0.19066709067E+04 -0.62027010217E+03 -0.10350041654E+04  0.22615822385E+04  0.15294330000E+03 0.  0.
<mgrwt>
<rscale>  0 0.20108507E+04</rscale>
<asrwt>0</asrwt>
<pdfrwt beam="1">  1        2 0.32618385E+00 0.20108507E+04</pdfrwt>
<pdfrwt beam="2">  1       -2 0.42391227E+00 0.20108507E+04</pdfrwt>
<totfact> 0.26097298E-02</totfact>
</mgrwt>
</event>
<event>
 4    1  0.1033139E-008  0.4174172E+03  0.7818608E-02  0.1037910E+00
         -2   -1    0    0    0  501 -0.00000000000E+00  0.00000000000E+00  0.13006245560E+04  0.13006245560E+04  0.25500000000E-02 0.  1.
          2   -1    0    0  501    0  0.00000000000E+00 -0.00000000000E+00 -0.60897411716E+03  0.60897411716E+03  0.25500000000E-02 0. -1.
    8880022    1    1    2    0    0  0.11020209995E+03  0.37242572712E+03 -0.49743972658E+03  0.64937151127E+03  0.15294330000E+03 0. -1.
    8880022    1    1    2    0    0 -0.11020209995E+03 -0.37242572712E+03  0.11890901654E+04  0.12602271619E+04  0.15294330000E+03 0.  0.
<mgrwt>
<rscale>  0 0.41741715E+03</rscale>
<asrwt>0</asrwt>
<pdfrwt beam="1">  1        2 0.93688326E-01 0.41741715E+03</pdfrwt>
<pdfrwt beam="2">  1       -2 0.20009608E+00 0.41741715E+03</pdfrwt>
<totfact> 0.69591207E+00</totfact>
</mgrwt>
</event>
<event>
 4    1  0.1033139E-008  0.9627251E+03  0.7818608E-02  0.9350399E-01
         -2   -1    0    0    0  501 -0.00000000000E+00  0.00000000000E+00  0.53125130991E+03  0.53125130992E+03  0.25500000000E-02 0.  1.
          2   -1    0    0  501    0  0.00000000000E+00 -0.00000000000E+00 -0.25987920180E+04  0.25987920180E+04  0.25500000000E-02 0. -1.
    8880022    1    1    2    0    0 -0.66703986739E+03  0.67713057169E+03 -0.19309996362E+04  0.21576837683E+04  0.15294330000E+03 0.  0.
    8880022    1    1    2    0    0  0.66703986739E+03 -0.67713057169E+03 -0.13654107181E+03  0.97235955958E+03  0.15294330000E+03 0.  0.
<mgrwt>
<rscale>  0 0.96272512E+03</rscale>
<asrwt>0</asrwt>
<pdfrwt beam="1">  1        2 0.39981415E+00 0.96272512E+03</pdfrwt>
<pdfrwt beam="2">  1       -2 0.81730973E-01 0.96272512E+03</pdfrwt>
<totfact> 0.40846083E+00</totfact>
</mgrwt>
</event>
<event>
 4    1  0.1033139E-008  0.7233261E+03  0.7818608E-02  0.9678153E-01
         -2   -1    0    0    0  501 -0.00000000000E+00  0.00000000000E+00  0.87980193452E+03  0.87980193452E+03  0.25500000000E-02 0.  1.
          2   -1    0    0  501    0  0.00000000000E+00 -0.00000000000E+00 -0.17112379475E+04  0.17112379475E+04  0.25500000000E-02 0. -1.
    8880022    1    1    2    0    0 -0.43454621767E+03 -0.55765451235E+03  0.63075861984E+03  0.95971717707E+03  0.15294330000E+03 0.  0.
    8880022    1    1    2    0    0  0.43454621767E+03  0.55765451235E+03 -0.14621946328E+04  0.16313227049E+04  0.15294330000E+03 0.  0.
<mgrwt>
<rscale>  0 0.72332608E+03</rscale>
<asrwt>0</asrwt>
<pdfrwt beam="1">  1        2 0.26326738E+00 0.72332608E+03</pdfrwt>
<pdfrwt beam="2">  1       -2 0.13535414E+00 0.72332608E+03</pdfrwt>
<totfact> 0.39194029E+00</totfact>
</mgrwt>
</event>
<event>
 4    1  0.1033139E-008  0.4713705E+03  0.7818608E-02  0.1021534E+00
          2   -1    0    0  501    0  0.00000000000E+00  0.00000000000E+00  0.83855357901E+03  0.83855357901E+03  0.25500000000E-02 0. -1.
         -2   -1    0    0    0  501 -0.00000000000E+00 -0.00000000000E+00 -0.10765321133E+04  0.10765321133E+04  0.25500000000E-02 0.  1.
    8880022    1    1    2    0    0 -0.13717895819E+03  0.42424103388E+03  0.71240311289E+03  0.85422969374E+03  0.15294330000E+03 0.  0.
    8880022    1    1    2    0    0  0.13717895819E+03 -0.42424103388E+03 -0.95038164717E+03  0.10608559986E+04  0.15294330000E+03 0.  0.
<mgrwt>
<rscale>  0 0.47137053E+03</rscale>
<asrwt>0</asrwt>
<pdfrwt beam="1">  1        2 0.12900824E+00 0.47137053E+03</pdfrwt>
<pdfrwt beam="2">  1       -2 0.16562033E+00 0.47137053E+03</pdfrwt>
<totfact> 0.78690716E+00</totfact>
</mgrwt>
</event>
<event>
 4    1  0.1033139E-008  0.1066631E+04  0.7818608E-02  0.9238340E-01
         -2   -1    0    0    0  501 -0.00000000000E+00  0.00000000000E+00  0.17340541306E+04  0.17340541306E+04  0.25500000000E-02 0.  1.
          2   -1    0    0  501    0  0.00000000000E+00 -0.00000000000E+00 -0.10454456695E+04  0.10454456695E+04  0.25500000000E-02 0. -1.
    8880022    1    1    2    0    0 -0.44835937155E+02  0.10546560533E+04 -0.50381581096E+03  0.11796320089E+04  0.15294330000E+03 0.  0.
    8880022    1    1    2    0    0  0.44835937155E+02 -0.10546560533E+04  0.11924242720E+04  0.15998677912E+04  0.15294330000E+03 0.  0.
<mgrwt>
<rscale>  0 0.10666308E+04</rscale>
<asrwt>0</asrwt>
<pdfrwt beam="1">  1        2 0.16083779E+00 0.10666308E+04</pdfrwt>
<pdfrwt beam="2">  1       -2 0.26677756E+00 0.10666308E+04</pdfrwt>
<totfact> 0.11834982E+00</totfact>
</mgrwt>
</event>
<event>
 4    1  0.1033139E-008  0.6062501E+03  0.7818608E-02  0.9892523E-01
         -2   -1    0    0    0  501 -0.00000000000E+00  0.00000000000E+00  0.39657237163E+03  0.39657237164E+03  0.25500000000E-02 0.  1.
          2   -1    0    0  501    0  0.00000000000E+00 -0.00000000000E+00 -0.26977889694E+04  0.26977889694E+04  0.25500000000E-02 0. -1.
    8880022    1    1    2    0    0  0.22567542852E+03 -0.54149619796E+03  0.10295490640E+03  0.61492999375E+03  0.15294330000E+03 0.  0.
    8880022    1    1    2    0    0 -0.22567542852E+03  0.54149619796E+03 -0.24041715041E+04  0.24794313472E+04  0.15294330000E+03 0.  0.
<mgrwt>
<rscale>  0 0.60625010E+03</rscale>
<asrwt>0</asrwt>
<pdfrwt beam="1">  1        2 0.41504444E+00 0.60625010E+03</pdfrwt>
<pdfrwt beam="2">  1       -2 0.61011136E-01 0.60625010E+03</pdfrwt>
<totfact> 0.72308467E+00</totfact>
</mgrwt>
</event>
<event>
 4    1  0.1033139E-008  0.5959841E+03  0.7818608E-02  0.9913773E-01
          2   -1    0    0  501    0  0.00000000000E+00  0.00000000000E+00  0.55307614065E+03  0.55307614066E+03  0.25500000000E-02 0. -1.
         -2   -1    0    0    0  501 -0.00000000000E+00 -0.00000000000E+00 -0.11424281506E+04  0.11424281506E+04  0.25500000000E-02 0.  1.
    8880022    1    1    2    0    0 -0.38228821773E+03  0.43088404381E+03 -0.85563289997E+03  0.10427390149E+04  0.15294330000E+03 0.  0.
    8880022    1    1    2    0    0  0.38228821773E+03 -0.43088404381E+03  0.26628089003E+03  0.65276527637E+03  0.15294330000E+03 0.  0.
<mgrwt>
<rscale>  0 0.59598405E+03</rscale>
<asrwt>0</asrwt>
<pdfrwt beam="1">  1        2 0.85088637E-01 0.59598405E+03</pdfrwt>
<pdfrwt beam="2">  1       -2 0.17575818E+00 0.59598405E+03</pdfrwt>
<totfact> 0.10984890E+01</totfact>
</mgrwt>
</event>
<event>
 4    1  0.1033139E-008  0.8991089E+03  0.7818608E-02  0.9426696E-01
          2   -1    0    0  501    0  0.00000000000E+00  0.00000000000E+00  0.22285360148E+04  0.22285360148E+04  0.25500000000E-02 0. -1.
         -2   -1    0    0    0  501 -0.00000000000E+00 -0.00000000000E+00 -0.87084813477E+03  0.87084813477E+03  0.25500000000E-02 0.  1.
    8880022    1    1    2    0    0 -0.33588017532E+03 -0.81987174730E+03  0.18625636630E+04  0.20682215128E+04  0.15294330000E+03 0.  0.
    8880022    1    1    2    0    0  0.33588017532E+03  0.81987174730E+03 -0.50487578299E+03  0.10311626368E+04  0.15294330000E+03 0.  0.
<mgrwt>
<rscale>  0 0.89910891E+03</rscale>
<asrwt>0</asrwt>
<pdfrwt beam="1">  1        2 0.34285168E+00 0.89910891E+03</pdfrwt>
<pdfrwt beam="2">  1       -2 0.13397664E+00 0.89910891E+03</pdfrwt>
<totfact> 0.20350912E+00</totfact>
</mgrwt>
</event>
<event>
 4    1  0.1033139E-008  0.1903634E+03  0.7818608E-02  0.1158134E+00
          2   -1    0    0  501    0  0.00000000000E+00  0.00000000000E+00  0.13839936207E+04  0.13839936207E+04  0.25500000000E-02 0. -1.
         -2   -1    0    0    0  501 -0.00000000000E+00 -0.00000000000E+00 -0.90101642747E+02  0.90101642783E+02  0.25500000000E-02 0.  1.
    8880022    1    1    2    0    0  0.80829890029E+02 -0.79455109551E+02  0.26162453238E+02  0.19215283638E+03  0.15294330000E+03 0.  0.
    8880022    1    1    2    0    0 -0.80829890029E+02  0.79455109551E+02  0.12677295247E+04  0.12819424271E+04  0.15294330000E+03 0. -1.
<mgrwt>
<rscale>  0 0.19036344E+03</rscale>
<asrwt>0</asrwt>
<pdfrwt beam="1">  1        2 0.21292210E+00 0.19036344E+03</pdfrwt>
<pdfrwt beam="2">  1       -2 0.13861791E-01 0.19036344E+03</pdfrwt>
<totfact> 0.62381337E+02</totfact>
</mgrwt>
</event>
<event>
 4    1  0.1033139E-008  0.5957640E+03  0.7818608E-02  0.9914234E-01
          2   -1    0    0  501    0  0.00000000000E+00  0.00000000000E+00  0.15099036628E+04  0.15099036628E+04  0.25500000000E-02 0. -1.
         -2   -1    0    0    0  501 -0.00000000000E+00 -0.00000000000E+00 -0.53811191252E+03  0.53811191253E+03  0.25500000000E-02 0.  1.
    8880022    1    1    2    0    0  0.16189344301E+03 -0.55257003128E+03  0.12543491869E+04  0.13886420209E+04  0.15294330000E+03 0.  0.
    8880022    1    1    2    0    0 -0.16189344301E+03  0.55257003128E+03 -0.28255743663E+03  0.65937355449E+03  0.15294330000E+03 0.  0.
<mgrwt>
<rscale>  0 0.59576403E+03</rscale>
<asrwt>0</asrwt>
<pdfrwt beam="1">  1        2 0.23229287E+00 0.59576403E+03</pdfrwt>
<pdfrwt beam="2">  1       -2 0.82786450E-01 0.59576403E+03</pdfrwt>
<totfact> 0.16786620E+01</totfact>
</mgrwt>
</event>
<event>
 4    1  0.1033139E-008  0.3968723E+03  0.7818608E-02  0.1044868E+00
         -2   -1    0    0    0  501 -0.00000000000E+00  0.00000000000E+00  0.38020069266E+03  0.38020069267E+03  0.25500000000E-02 0.  1.
          2   -1    0    0  501    0  0.00000000000E+00 -0.00000000000E+00 -0.16171939145E+04  0.16171939145E+04  0.25500000000E-02 0. -1.
    8880022    1    1    2    0    0  0.95334253072E+02  0.35359203123E+03  0.24283626928E+03  0.46527094370E+03  0.15294330000E+03 0.  0.
    8880022    1    1    2    0    0 -0.95334253072E+02 -0.35359203123E+03 -0.14798294911E+04  0.15321236635E+04  0.15294330000E+03 0.  0.
<mgrwt>
<rscale>  0 0.39687227E+03</rscale>
<asrwt>0</asrwt>
<pdfrwt beam="1">  1        2 0.24879906E+00 0.39687227E+03</pdfrwt>
<pdfrwt beam="2">  1       -2 0.58492415E-01 0.39687227E+03</pdfrwt>
<totfact> 0.32349251E+01</totfact>
</mgrwt>
</event>
<event>
 4    1  0.1033139E-008  0.7991017E+03  0.7818608E-02  0.9561318E-01
         -2   -1    0    0    0  501 -0.00000000000E+00  0.00000000000E+00  0.46357252864E+03  0.46357252864E+03  0.25500000000E-02 0.  1.
          2   -1    0    0  501    0  0.00000000000E+00 -0.00000000000E+00 -0.20082621712E+04  0.20082621712E+04  0.25500000000E-02 0. -1.
    8880022    1    1    2    0    0 -0.17787080859E+03  0.76389387048E+03 -0.79688638917E+02  0.80306525394E+03  0.15294330000E+03 0.  0.
    8880022    1    1    2    0    0  0.17787080859E+03 -0.76389387048E+03 -0.14650010037E+04  0.16687694459E+04  0.15294330000E+03 0.  0.
<mgrwt>
<rscale>  0 0.79910170E+03</rscale>
<asrwt>0</asrwt>
<pdfrwt beam="1">  1        2 0.30896341E+00 0.79910170E+03</pdfrwt>
<pdfrwt beam="2">  1       -2 0.71318852E-01 0.79910170E+03</pdfrwt>
<totfact> 0.12127803E+01</totfact>
</mgrwt>
</event>
<event>
 4    1  0.1033139E-008  0.8522089E+03  0.7818608E-02  0.9487377E-01
         -2   -1    0    0    0  501 -0.00000000000E+00  0.00000000000E+00  0.23027239840E+04  0.23027239840E+04  0.25500000000E-02 0.  1.
          2   -1    0    0  501    0  0.00000000000E+00 -0.00000000000E+00 -0.11531264065E+04  0.11531264065E+04  0.25500000000E-02 0. -1.
    8880022    1    1    2    0    0  0.82937711416E+03 -0.12248237398E+03 -0.89798751957E+03  0.12379990177E+04  0.15294330000E+03 0.  0.
    8880022    1    1    2    0    0 -0.82937711416E+03  0.12248237398E+03  0.20475850970E+04  0.22178513729E+04  0.15294330000E+03 0.  0.
<mgrwt>
<rscale>  0 0.85220888E+03</rscale>
<asrwt>0</asrwt>
<pdfrwt beam="1">  1        2 0.17740407E+00 0.85220888E+03</pdfrwt>
<pdfrwt beam="2">  1       -2 0.35426522E+00 0.85220888E+03</pdfrwt>
<totfact> 0.30723086E-01</totfact>
</mgrwt>
</event>
<event>
 4    1  0.1033139E-008  0.8757875E+03  0.7818608E-02  0.9456365E-01
          2   -1    0    0  501    0  0.00000000000E+00  0.00000000000E+00  0.33961909545E+04  0.33961909545E+04  0.25500000000E-02 0. -1.
         -2   -1    0    0    0  501 -0.00000000000E+00 -0.00000000000E+00 -0.42902939403E+03  0.42902939404E+03  0.25500000000E-02 0.  1.
    8880022    1    1    2    0    0  0.51346585140E+03 -0.69279499302E+03  0.16735332024E+03  0.89163382042E+03  0.15294330000E+03 0.  0.
    8880022    1    1    2    0    0 -0.51346585140E+03  0.69279499302E+03  0.27998082402E+04  0.29335865281E+04  0.15294330000E+03 0.  0.
<mgrwt>
<rscale>  0 0.87578749E+03</rscale>
<asrwt>0</asrwt>
<pdfrwt beam="1">  1        2 0.52249094E+00 0.87578749E+03</pdfrwt>
<pdfrwt beam="2">  1       -2 0.66004519E-01 0.87578749E+03</pdfrwt>
<totfact> 0.21384510E+00</totfact>
</mgrwt>
</event>
<event>
 4    1  0.1033139E-008  0.4604941E+03  0.7818608E-02  0.1024638E+00
         -2   -1    0    0    0  501 -0.00000000000E+00  0.00000000000E+00  0.59386971000E+03  0.59386971001E+03  0.25500000000E-02 0.  1.
          2   -1    0    0  501    0  0.00000000000E+00 -0.00000000000E+00 -0.30113139219E+04  0.30113139219E+04  0.25500000000E-02 0. -1.
    8880022    1    1    2    0    0 -0.13331001926E+03  0.41339037272E+03 -0.29010696391E+04  0.29373899750E+04  0.15294330000E+03 0.  0.
    8880022    1    1    2    0    0  0.13331001926E+03 -0.41339037272E+03  0.48362542713E+03  0.66779365695E+03  0.15294330000E+03 0.  0.
<mgrwt>
<rscale>  0 0.46049410E+03</rscale>
<asrwt>0</asrwt>
<pdfrwt beam="1">  1        2 0.46327906E+00 0.46049410E+03</pdfrwt>
<pdfrwt beam="2">  1       -2 0.91364573E-01 0.46049410E+03</pdfrwt>
<totfact> 0.20209933E+00</totfact>
</mgrwt>
</event>
<event>
 4    1  0.1033139E-008  0.6969662E+03  0.7818608E-02  0.9722435E-01
          2   -1    0    0  501    0  0.00000000000E+00  0.00000000000E+00  0.27885723648E+04  0.27885723648E+04  0.25500000000E-02 0. -1.
         -2   -1    0    0    0  501 -0.00000000000E+00 -0.00000000000E+00 -0.32516629626E+03  0.32516629627E+03  0.25500000000E-02 0.  1.
    8880022    1    1    2    0    0 -0.67445744094E+03 -0.86471554389E+02  0.17087921774E+03  0.71760820050E+03  0.15294330000E+03 0.  0.
    8880022    1    1    2    0    0  0.67445744094E+03  0.86471554389E+02  0.22925268508E+04  0.23961304605E+04  0.15294330000E+03 0.  0.
<mgrwt>
<rscale>  0 0.69696616E+03</rscale>
<asrwt>0</asrwt>
<pdfrwt beam="1">  1        2 0.42901111E+00 0.69696616E+03</pdfrwt>
<pdfrwt beam="2">  1       -2 0.50025586E-01 0.69696616E+03</pdfrwt>
<totfact> 0.94803491E+00</totfact>
</mgrwt>
</event>
<event>
 4    1  0.1033139E-008  0.3273389E+03  0.7818608E-02  0.1072320E+00
          2   -1    0    0  501    0  0.00000000000E+00  0.00000000000E+00  0.34797298508E+04  0.34797298508E+04  0.25500000000E-02 0. -1.
         -2   -1    0    0    0  501 -0.00000000000E+00 -0.00000000000E+00 -0.87417576399E+02  0.87417576436E+02  0.25500000000E-02 0.  1.
    8880022    1    1    2    0    0 -0.30567198381E+02  0.28779286816E+03  0.26068387778E+03  0.41845767496E+03  0.15294330000E+03 0.  0.
    8880022    1    1    2    0    0  0.30567198381E+02 -0.28779286816E+03  0.31316283967E+04  0.31486897523E+04  0.15294330000E+03 0.  0.
<mgrwt>
<rscale>  0 0.32733888E+03</rscale>
<asrwt>0</asrwt>
<pdfrwt beam="1">  1        2 0.53534317E+00 0.32733888E+03</pdfrwt>
<pdfrwt beam="2">  1       -2 0.13448855E-01 0.32733888E+03</pdfrwt>
<totfact> 0.42084404E+01</totfact>
</mgrwt>
</event>
<event>
 4    1  0.1033139E-008  0.3448619E+03  0.7818608E-02  0.1064744E+00
          2   -1    0    0  501    0  0.00000000000E+00  0.00000000000E+00  0.63697647366E+03  0.63697647367E+03  0.25500000000E-02 0. -1.
         -2   -1    0    0    0  501 -0.00000000000E+00 -0.00000000000E+00 -0.12740299107E+04  0.12740299107E+04  0.25500000000E-02 0.  1.
    8880022    1    1    2    0    0  0.25791344430E+03  0.17034887137E+03 -0.12012428128E+04  0.12497655905E+04  0.15294330000E+03 0.  0.
    8880022    1    1    2    0    0 -0.25791344430E+03 -0.17034887137E+03  0.56418937580E+03  0.66124079389E+03  0.15294330000E+03 0. -1.
<mgrwt>
<rscale>  0 0.34486191E+03</rscale>
<asrwt>0</asrwt>
<pdfrwt beam="1">  1        2 0.97996381E-01 0.34486191E+03</pdfrwt>
<pdfrwt beam="2">  1       -2 0.19600460E+00 0.34486191E+03</pdfrwt>
<totfact> 0.71307832E+00</totfact>
</mgrwt>
</event>
<event>
 4    1  0.1033139E-008  0.2800683E+03  0.7818608E-02  0.1095652E+00
         -2   -1    0    0    0  501 -0.00000000000E+00  0.00000000000E+00  0.98322372594E+02  0.98322372627E+02  0.25500000000E-02 0.  1.
          2   -1    0    0  501    0  0.00000000000E+00 -0.00000000000E+00 -0.16009380514E+04  0.16009380514E+04  0.25500000000E-02 0. -1.
    8880022    1    1    2    0    0 -0.13491648985E+03 -0.19194821848E+03 -0.14951499594E+03  0.31747907779E+03  0.15294330000E+03 0.  0.
    8880022    1    1    2    0    0  0.13491648985E+03  0.19194821848E+03 -0.13531006829E+04  0.13817813462E+04  0.15294330000E+03 0.  0.
<mgrwt>
<rscale>  0 0.28006826E+03</rscale>
<asrwt>0</asrwt>
<pdfrwt beam="1">  1        2 0.24629814E+00 0.28006826E+03</pdfrwt>
<pdfrwt beam="2">  1       -2 0.15126520E-01 0.28006826E+03</pdfrwt>
<totfact> 0.40818716E+02</totfact>
</mgrwt>
</event>
<event>
 4    1  0.1033139E-008  0.4179206E+03  0.7818608E-02  0.1037745E+00
         -2   -1    0    0    0  501 -0.00000000000E+00  0.00000000000E+00  0.14622057778E+03  0.14622057780E+03  0.25500000000E-02 0.  1.
          2   -1    0    0  501    0  0.00000000000E+00 -0.00000000000E+00 -0.29313132423E+04  0.29313132423E+04  0.25500000000E-02 0. -1.
    8880022    1    1    2    0    0 -0.21543993991E+03  0.32380795020E+03 -0.20808540423E+03  0.46685880605E+03  0.15294330000E+03 0.  0.
    8880022    1    1    2    0    0  0.21543993991E+03 -0.32380795020E+03 -0.25770072603E+04  0.26106750140E+04  0.15294330000E+03 0.  0.
<mgrwt>
<rscale>  0 0.41792058E+03</rscale>
<asrwt>0</asrwt>
<pdfrwt beam="1">  1        2 0.45097122E+00 0.41792058E+03</pdfrwt>
<pdfrwt beam="2">  1       -2 0.22495476E-01 0.41792058E+03</pdfrwt>
<totfact> 0.37552004E+01</totfact>
</mgrwt>
</event>
<event>
 4    1  0.1033139E-008  0.1155635E+04  0.7818608E-02  0.9152601E-01
          2   -1    0    0  501    0  0.00000000000E+00  0.00000000000E+00  0.31902771993E+04  0.31902771993E+04  0.25500000000E-02 0. -1.
         -2   -1    0    0    0  501 -0.00000000000E+00 -0.00000000000E+00 -0.43206265477E+03  0.43206265478E+03  0.25500000000E-02 0.  1.
    8880022    1    1    2    0    0 -0.22924572153E+03 -0.11222955923E+04  0.10595596234E+04  0.15678517934E+04  0.15294330000E+03 0.  0.
    8880022    1    1    2    0    0  0.22924572153E+03  0.11222955923E+04  0.16986549212E+04  0.20544880607E+04  0.15294330000E+03 0.  0.
<mgrwt>
<rscale>  0 0.11556352E+04</rscale>
<asrwt>0</asrwt>
<pdfrwt beam="1">  1        2 0.49081187E+00 0.11556352E+04</pdfrwt>
<pdfrwt beam="2">  1       -2 0.66471179E-01 0.11556352E+04</pdfrwt>
<totfact> 0.27504241E+00</totfact>
</mgrwt>
</event>
<event>
 4    1  0.1461484E-008  0.9842887E+03  0.7818608E-02  0.9325947E-01
         -2   -1    0    0    0  501 -0.00000000000E+00  0.00000000000E+00  0.17391806888E+04  0.17391806888E+04  0.25500000000E-02 0.  1.
          2   -1    0    0  501    0  0.00000000000E+00 -0.00000000000E+00 -0.17718559026E+04  0.17718559026E+04  0.25500000000E-02 0. -1.
    8880022    1    1    2    0    0  0.69451697999E+03  0.68049886577E+03 -0.14699319021E+04  0.17690460682E+04  0.15294330000E+03 0.  0.
    8880022    1    1    2    0    0 -0.69451697999E+03 -0.68049886577E+03  0.14372566883E+04  0.17419905231E+04  0.15294330000E+03 0.  0.
<mgrwt>
<rscale>  0 0.98428867E+03</rscale>
<asrwt>0</asrwt>
<pdfrwt beam="1">  1        2 0.27259322E+00 0.98428867E+03</pdfrwt>
<pdfrwt beam="2">  1       -2 0.26756626E+00 0.98428867E+03</pdfrwt>
<totfact> 0.45112901E-01</totfact>
</mgrwt>
</event>
<event>
 4    1  0.1033139E-008  0.6687025E+03  0.7818608E-02  0.9772305E-01
         -2   -1    0    0    0  501 -0.00000000000E+00  0.00000000000E+00  0.81628304465E+03  0.81628304466E+03  0.25500000000E-02 0.  1.
          2   -1    0    0  501    0  0.00000000000E+00 -0.00000000000E+00 -0.71291385645E+03  0.71291385645E+03  0.25500000000E-02 0. -1.
    8880022    1    1    2    0    0  0.22914189253E+03  0.60931553606E+03 -0.31627611005E+03  0.73972539513E+03  0.15294330000E+03 0.  0.
    8880022    1    1    2    0    0 -0.22914189253E+03 -0.60931553606E+03  0.41964529825E+03  0.78947150598E+03  0.15294330000E+03 0.  1.
<mgrwt>
<rscale>  0 0.66870254E+03</rscale>
<asrwt>0</asrwt>
<pdfrwt beam="1">  1        2 0.10967906E+00 0.66870254E+03</pdfrwt>
<pdfrwt beam="2">  1       -2 0.12558201E+00 0.66870254E+03</pdfrwt>
<totfact> 0.19396180E+01</totfact>
</mgrwt>
</event>
<event>
 4    1  0.1033139E-008  0.1563946E+04  0.7818608E-02  0.8843009E-01
         -2   -1    0    0    0  501 -0.00000000000E+00  0.00000000000E+00  0.20481541953E+04  0.20481541953E+04  0.25500000000E-02 0.  1.
          2   -1    0    0  501    0  0.00000000000E+00 -0.00000000000E+00 -0.13422034473E+04  0.13422034473E+04  0.25500000000E-02 0. -1.
    8880022    1    1    2    0    0 -0.12650159076E+04 -0.90679053958E+03  0.91587084917E+03  0.18123866570E+04  0.15294330000E+03 0.  0.
    8880022    1    1    2    0    0  0.12650159076E+04  0.90679053958E+03 -0.20992010120E+03  0.15779709855E+04  0.15294330000E+03 0.  0.
<mgrwt>
<rscale>  0 0.15639456E+04</rscale>
<asrwt>0</asrwt>
<pdfrwt beam="1">  1        2 0.20649284E+00 0.15639456E+04</pdfrwt>
<pdfrwt beam="2">  1       -2 0.31510065E+00 0.15639456E+04</pdfrwt>
<totfact> 0.37569780E-01</totfact>
</mgrwt>
</event>
<event>
 4    1  0.1033139E-008  0.5052218E+03  0.7818608E-02  0.1012425E+00
         -2   -1    0    0    0  501 -0.00000000000E+00  0.00000000000E+00  0.78206763089E+03  0.78206763089E+03  0.25500000000E-02 0.  1.
          2   -1    0    0  501    0  0.00000000000E+00 -0.00000000000E+00 -0.15068774947E+04  0.15068774947E+04  0.25500000000E-02 0. -1.
    8880022    1    1    2    0    0  0.85214418606E+02  0.47391555883E+03 -0.13753816112E+04  0.14652384391E+04  0.15294330000E+03 0.  0.
    8880022    1    1    2    0    0 -0.85214418606E+02 -0.47391555883E+03  0.65057174731E+03  0.82370668654E+03  0.15294330000E+03 0.  0.
<mgrwt>
<rscale>  0 0.50522184E+03</rscale>
<asrwt>0</asrwt>
<pdfrwt beam="1">  1        2 0.23182731E+00 0.50522184E+03</pdfrwt>
<pdfrwt beam="2">  1       -2 0.12031810E+00 0.50522184E+03</pdfrwt>
<totfact> 0.71029852E+00</totfact>
</mgrwt>
</event>
<event>
 4    1  0.1033139E-008  0.8538180E+03  0.7818608E-02  0.9485227E-01
          2   -1    0    0  501    0  0.00000000000E+00  0.00000000000E+00  0.14972593547E+04  0.14972593547E+04  0.25500000000E-02 0. -1.
         -2   -1    0    0    0  501 -0.00000000000E+00 -0.00000000000E+00 -0.11522623335E+04  0.11522623335E+04  0.25500000000E-02 0.  1.
    8880022    1    1    2    0    0 -0.74688183716E+03  0.38442296999E+03  0.11791825413E+04  0.14558422364E+04  0.15294330000E+03 0.  0.
    8880022    1    1    2    0    0  0.74688183716E+03 -0.38442296999E+03 -0.83418552016E+03  0.11936794518E+04  0.15294330000E+03 0.  1.
<mgrwt>
<rscale>  0 0.85381799E+03</rscale>
<asrwt>0</asrwt>
<pdfrwt beam="1">  1        2 0.23034759E+00 0.85381799E+03</pdfrwt>
<pdfrwt beam="2">  1       -2 0.17727113E+00 0.85381799E+03</pdfrwt>
<totfact> 0.24430977E+00</totfact>
</mgrwt>
</event>
<event>
 4    1  0.1033139E-008  0.1437855E+04  0.7818608E-02  0.8926864E-01
         -2   -1    0    0    0  501 -0.00000000000E+00  0.00000000000E+00  0.11203568649E+04  0.11203568649E+04  0.25500000000E-02 0.  1.
          2   -1    0    0  501    0  0.00000000000E+00 -0.00000000000E+00 -0.20316702066E+04  0.20316702066E+04  0.25500000000E-02 0. -1.
    8880022    1    1    2    0    0 -0.91990294864E+03  0.10944467416E+04  0.21639613998E+02  0.14380177437E+04  0.15294330000E+03 0.  0.
    8880022    1    1    2    0    0  0.91990294864E+03 -0.10944467416E+04 -0.93295295568E+03  0.17140093278E+04  0.15294330000E+03 0.  0.
<mgrwt>
<rscale>  0 0.14378549E+04</rscale>
<asrwt>0</asrwt>
<pdfrwt beam="1">  1        2 0.31256465E+00 0.14378549E+04</pdfrwt>
<pdfrwt beam="2">  1       -2 0.17236259E+00 0.14378549E+04</pdfrwt>
<totfact> 0.12464476E+00</totfact>
</mgrwt>
</event>
<event>
 4    1  0.1033139E-008  0.7559407E+03  0.7818608E-02  0.9626076E-01
         -2   -1    0    0    0  501 -0.00000000000E+00  0.00000000000E+00  0.16082527532E+04  0.16082527532E+04  0.25500000000E-02 0.  1.
          2   -1    0    0  501    0  0.00000000000E+00 -0.00000000000E+00 -0.97009753165E+03  0.97009753165E+03  0.25500000000E-02 0. -1.
    8880022    1    1    2    0    0  0.73504765183E+03 -0.88089142293E+02 -0.70719507497E+03  0.10351672689E+04  0.15294330000E+03 0.  0.
    8880022    1    1    2    0    0 -0.73504765183E+03  0.88089142293E+02  0.13453502965E+04  0.15431830160E+04  0.15294330000E+03 0.  0.
<mgrwt>
<rscale>  0 0.75594074E+03</rscale>
<asrwt>0</asrwt>
<pdfrwt beam="1">  1        2 0.14924577E+00 0.75594074E+03</pdfrwt>
<pdfrwt beam="2">  1       -2 0.24742350E+00 0.75594074E+03</pdfrwt>
<totfact> 0.18117811E+00</totfact>
</mgrwt>
</event>
<event>
 4    1  0.1033139E-008  0.9402110E+03  0.7818608E-02  0.9376666E-01
          2   -1    0    0  501    0  0.00000000000E+00  0.00000000000E+00  0.17744039904E+04  0.17744039904E+04  0.25500000000E-02 0. -1.
         -2   -1    0    0    0  501 -0.00000000000E+00 -0.00000000000E+00 -0.77977916715E+03  0.77977916715E+03  0.25500000000E-02 0.  1.
    8880022    1    1    2    0    0  0.85895529529E+03  0.35042951631E+03  0.12647471050E+04  0.15759384308E+04  0.15294330000E+03 0.  0.
    8880022    1    1    2    0    0 -0.85895529529E+03 -0.35042951631E+03 -0.27012228174E+03  0.97824472670E+03  0.15294330000E+03 0.  0.
<mgrwt>
<rscale>  0 0.94021099E+03</rscale>
<asrwt>0</asrwt>
<pdfrwt beam="1">  1        2 0.27298523E+00 0.94021099E+03</pdfrwt>
<pdfrwt beam="2">  1       -2 0.11996603E+00 0.94021099E+03</pdfrwt>
<totfact> 0.47549976E+00</totfact>
</mgrwt>
</event>
<event>
 4    1  0.1033139E-008  0.1538416E+04  0.7818608E-02  0.8859301E-01
          2   -1    0    0  501    0  0.00000000000E+00  0.00000000000E+00  0.23636031988E+04  0.23636031988E+04  0.25500000000E-02 0. -1.
         -2   -1    0    0    0  501 -0.00000000000E+00 -0.00000000000E+00 -0.12649752209E+04  0.12649752209E+04  0.25500000000E-02 0.  1.
    8880022    1    1    2    0    0  0.64821732289E+03  0.13867750652E+04 -0.27897892933E+03  0.15635062121E+04  0.15294330000E+03 0.  0.
    8880022    1    1    2    0    0 -0.64821732289E+03 -0.13867750652E+04  0.13776069072E+04  0.20650722077E+04  0.15294330000E+03 0.  0.
<mgrwt>
<rscale>  0 0.15384156E+04</rscale>
<asrwt>0</asrwt>
<pdfrwt beam="1">  1        2 0.36363126E+00 0.15384156E+04</pdfrwt>
<pdfrwt beam="2">  1       -2 0.19461157E+00 0.15384156E+04</pdfrwt>
<totfact> 0.56354694E-01</totfact>
</mgrwt>
</event>
<event>
 4    1  0.1033139E-008  0.1000866E+04  0.7818608E-02  0.9307596E-01
          2   -1    0    0  501    0  0.00000000000E+00  0.00000000000E+00  0.15671547673E+04  0.15671547673E+04  0.25500000000E-02 0. -1.
         -2   -1    0    0    0  501 -0.00000000000E+00 -0.00000000000E+00 -0.82332584889E+03  0.82332584889E+03  0.25500000000E-02 0.  1.
    8880022    1    1    2    0    0 -0.69490953438E+03  0.70387598898E+03 -0.19331068433E+03  0.10193632044E+04  0.15294330000E+03 0.  0.
    8880022    1    1    2    0    0  0.69490953438E+03 -0.70387598898E+03  0.93713960273E+03  0.13711174118E+04  0.15294330000E+03 0.  0.
<mgrwt>
<rscale>  0 0.10008658E+04</rscale>
<asrwt>0</asrwt>
<pdfrwt beam="1">  1        2 0.24110073E+00 0.10008658E+04</pdfrwt>
<pdfrwt beam="2">  1       -2 0.12666552E+00 0.10008658E+04</pdfrwt>
<totfact> 0.53637507E+00</totfact>
</mgrwt>
</event>
<event>
 4    1  0.1033139E-008  0.8293458E+03  0.7818608E-02  0.9518485E-01
          2   -1    0    0  501    0  0.00000000000E+00  0.00000000000E+00  0.25345162321E+04  0.25345162321E+04  0.25500000000E-02 0. -1.
         -2   -1    0    0    0  501 -0.00000000000E+00 -0.00000000000E+00 -0.48707609933E+03  0.48707609933E+03  0.25500000000E-02 0.  1.
    8880022    1    1    2    0    0  0.72902045144E+03 -0.36462571021E+03  0.20290987120E+04  0.21920437868E+04  0.15294330000E+03 0.  0.
    8880022    1    1    2    0    0 -0.72902045144E+03  0.36462571021E+03  0.18341420756E+02  0.82954854463E+03  0.15294330000E+03 0.  0.
<mgrwt>
<rscale>  0 0.82934575E+03</rscale>
<asrwt>0</asrwt>
<pdfrwt beam="1">  1        2 0.38992556E+00 0.82934575E+03</pdfrwt>
<pdfrwt beam="2">  1       -2 0.74934787E-01 0.82934575E+03</pdfrwt>
<totfact> 0.55133005E+00</totfact>
</mgrwt>
</event>
<event>
 4    1  0.1033139E-008  0.6668447E+03  0.7818608E-02  0.9775675E-01
          2   -1    0    0  501    0  0.00000000000E+00  0.00000000000E+00  0.83535487671E+03  0.83535487672E+03  0.25500000000E-02 0. -1.
         -2   -1    0    0    0  501 -0.00000000000E+00 -0.00000000000E+00 -0.11731111220E+04  0.11731111220E+04  0.25500000000E-02 0.  1.
    8880022    1    1    2    0    0  0.60522117991E+03 -0.23451549235E+03 -0.91107791344E+03  0.11290459734E+04  0.15294330000E+03 0.  0.
    8880022    1    1    2    0    0 -0.60522117991E+03  0.23451549235E+03  0.57332166813E+03  0.87942002531E+03  0.15294330000E+03 0. -1.
<mgrwt>
<rscale>  0 0.66684469E+03</rscale>
<asrwt>0</asrwt>
<pdfrwt beam="1">  1        2 0.12851613E+00 0.66684469E+03</pdfrwt>
<pdfrwt beam="2">  1       -2 0.18047863E+00 0.66684469E+03</pdfrwt>
<totfact> 0.60302895E+00</totfact>
</mgrwt>
</event>
<event>
 4    1  0.1033139E-008  0.2033123E+03  0.7818608E-02  0.1146974E+00
         -2   -1    0    0    0  501 -0.00000000000E+00  0.00000000000E+00  0.13093743830E+03  0.13093743832E+03  0.25500000000E-02 0.  1.
          2   -1    0    0  501    0  0.00000000000E+00 -0.00000000000E+00 -0.27161328536E+04  0.27161328536E+04  0.25500000000E-02 0. -1.
    8880022    1    1    2    0    0 -0.42323495220E+02  0.12709435032E+03 -0.26308506043E+04  0.26386949061E+04  0.15294330000E+03 0. -1.
    8880022    1    1    2    0    0  0.42323495220E+02 -0.12709435032E+03  0.45655189006E+02  0.20837538585E+03  0.15294330000E+03 0.  0.
<mgrwt>
<rscale>  0 0.20331233E+03</rscale>
<asrwt>0</asrwt>
<pdfrwt beam="1">  1        2 0.41786655E+00 0.20331233E+03</pdfrwt>
<pdfrwt beam="2">  1       -2 0.20144223E-01 0.20331233E+03</pdfrwt>
<totfact> 0.65542213E+01</totfact>
</mgrwt>
</event>
<event>
 4    1  0.1033139E-008  0.7889082E+03  0.7818608E-02  0.9576212E-01
         -2   -1    0    0    0  501 -0.00000000000E+00  0.00000000000E+00  0.21306080870E+03  0.21306080872E+03  0.25500000000E-02 0.  1.
          2   -1    0    0  501    0  0.00000000000E+00 -0.00000000000E+00 -0.37419099694E+04  0.37419099694E+04  0.25500000000E-02 0. -1.
    8880022    1    1    2    0    0  0.59320033501E+03  0.49708933930E+03 -0.83827156389E+03  0.11511191583E+04  0.15294330000E+03 0.  0.
    8880022    1    1    2    0    0 -0.59320033501E+03 -0.49708933930E+03 -0.26905775968E+04  0.28038516198E+04  0.15294330000E+03 0.  0.
<mgrwt>
<rscale>  0 0.78890817E+03</rscale>
<asrwt>0</asrwt>
<pdfrwt beam="1">  1        2 0.57567841E+00 0.78890817E+03</pdfrwt>
<pdfrwt beam="2">  1       -2 0.32778589E-01 0.78890817E+03</pdfrwt>
<totfact> 0.51128213E+00</totfact>
</mgrwt>
</event>
<event>
 4    1  0.1033139E-008  0.6630906E+03  0.7818608E-02  0.9782521E-01
          2   -1    0    0  501    0  0.00000000000E+00  0.00000000000E+00  0.67016942171E+03  0.67016942171E+03  0.25500000000E-02 0. -1.
         -2   -1    0    0    0  501 -0.00000000000E+00 -0.00000000000E+00 -0.19445582287E+04  0.19445582287E+04  0.25500000000E-02 0.  1.
    8880022    1    1    2    0    0 -0.49873081286E+03  0.40934719543E+03 -0.17013947874E+04  0.18260431062E+04  0.15294330000E+03 0.  1.
    8880022    1    1    2    0    0  0.49873081286E+03 -0.40934719543E+03  0.42700598035E+03  0.78868454427E+03  0.15294330000E+03 0.  0.
<mgrwt>
<rscale>  0 0.66309064E+03</rscale>
<asrwt>0</asrwt>
<pdfrwt beam="1">  1        2 0.10310299E+00 0.66309064E+03</pdfrwt>
<pdfrwt beam="2">  1       -2 0.29916280E+00 0.66309064E+03</pdfrwt>
<totfact> 0.14745651E+00</totfact>
</mgrwt>
</event>
<event>
 4    1  0.1033139E-008  0.7051054E+03  0.7818608E-02  0.9708541E-01
         -2   -1    0    0    0  501 -0.00000000000E+00  0.00000000000E+00  0.52366574115E+03  0.52366574116E+03  0.25500000000E-02 0.  1.
          2   -1    0    0  501    0  0.00000000000E+00 -0.00000000000E+00 -0.17890329864E+04  0.17890329864E+04  0.25500000000E-02 0. -1.
    8880022    1    1    2    0    0 -0.67835639945E+03 -0.11668121690E+03 -0.14248602335E+04  0.15897799373E+04  0.15294330000E+03 0.  0.
    8880022    1    1    2    0    0  0.67835639945E+03  0.11668121690E+03  0.15949298822E+03  0.72291879029E+03  0.15294330000E+03 0.  0.
<mgrwt>
<rscale>  0 0.70510536E+03</rscale>
<asrwt>0</asrwt>
<pdfrwt beam="1">  1        2 0.27523584E+00 0.70510536E+03</pdfrwt>
<pdfrwt beam="2">  1       -2 0.80563961E-01 0.70510536E+03</pdfrwt>
<totfact> 0.12347210E+01</totfact>
</mgrwt>
</event>
<event>
 4    1  0.1033139E-008  0.1954488E+04  0.7818608E-02  0.8628200E-01
         -2   -1    0    0    0  501 -0.00000000000E+00  0.00000000000E+00  0.16454342999E+04  0.16454342999E+04  0.25500000000E-02 0.  1.
          2   -1    0    0  501    0  0.00000000000E+00 -0.00000000000E+00 -0.25148794271E+04  0.25148794271E+04  0.25500000000E-02 0. -1.
    8880022    1    1    2    0    0  0.47560696973E+03 -0.18895579850E+04 -0.10114121300E+04  0.22006766046E+04  0.15294330000E+03 0.  0.
    8880022    1    1    2    0    0 -0.47560696973E+03  0.18895579850E+04  0.14196700277E+03  0.19596371223E+04  0.15294330000E+03 0.  0.
<mgrwt>
<rscale>  0 0.19544879E+04</rscale>
<asrwt>0</asrwt>
<pdfrwt beam="1">  1        2 0.38690453E+00 0.19544879E+04</pdfrwt>
<pdfrwt beam="2">  1       -2 0.25314374E+00 0.19544879E+04</pdfrwt>
<totfact> 0.18740160E-01</totfact>
</mgrwt>
</event>
<event>
 4    1  0.1033139E-008  0.3172707E+03  0.7818608E-02  0.1076912E+00
         -2   -1    0    0    0  501 -0.00000000000E+00  0.00000000000E+00  0.14142021842E+03  0.14142021844E+03  0.25500000000E-02 0.  1.
          2   -1    0    0  501    0  0.00000000000E+00 -0.00000000000E+00 -0.19599266327E+04  0.19599266327E+04  0.25500000000E-02 0. -1.
    8880022    1    1    2    0    0  0.27217298082E+03  0.56487937679E+02 -0.70797893494E+02  0.32507385827E+03  0.15294330000E+03 0.  0.
    8880022    1    1    2    0    0 -0.27217298082E+03 -0.56487937679E+02 -0.17477085208E+04  0.17762729929E+04  0.15294330000E+03 0. -1.
<mgrwt>
<rscale>  0 0.31727066E+03</rscale>
<asrwt>0</asrwt>
<pdfrwt beam="1">  1        2 0.30152715E+00 0.31727066E+03</pdfrwt>
<pdfrwt beam="2">  1       -2 0.21756958E-01 0.31727066E+03</pdfrwt>
<totfact> 0.14109954E+02</totfact>
</mgrwt>
</event>
<event>
 4    1  0.1033139E-008  0.1159536E+04  0.7818608E-02  0.9149031E-01
          2   -1    0    0  501    0  0.00000000000E+00  0.00000000000E+00  0.13623500959E+04  0.13623500959E+04  0.25500000000E-02 0. -1.
         -2   -1    0    0    0  501 -0.00000000000E+00 -0.00000000000E+00 -0.13047105662E+04  0.13047105662E+04  0.25500000000E-02 0.  1.
    8880022    1    1    2    0    0 -0.21850745999E+03 -0.11284441448E+04  0.68696224393E+03  0.13477538631E+04  0.15294330000E+03 0.  0.
    8880022    1    1    2    0    0  0.21850745999E+03  0.11284441448E+04 -0.62932271429E+03  0.13193067990E+04  0.15294330000E+03 0.  0.
<mgrwt>
<rscale>  0 0.11595358E+04</rscale>
<asrwt>0</asrwt>
<pdfrwt beam="1">  1        2 0.20959232E+00 0.11595358E+04</pdfrwt>
<pdfrwt beam="2">  1       -2 0.20072470E+00 0.11595358E+04</pdfrwt>
<totfact> 0.19499710E+00</totfact>
</mgrwt>
</event>
<event>
 4    1  0.1033139E-008  0.5735832E+03  0.7818608E-02  0.9961781E-01
         -2   -1    0    0    0  501 -0.00000000000E+00  0.00000000000E+00  0.60537648885E+03  0.60537648886E+03  0.25500000000E-02 0.  1.
          2   -1    0    0  501    0  0.00000000000E+00 -0.00000000000E+00 -0.11546440944E+04  0.11546440944E+04  0.25500000000E-02 0. -1.
    8880022    1    1    2    0    0 -0.37678884300E+03 -0.40451970405E+03  0.36561656837E+03  0.68020081686E+03  0.15294330000E+03 0.  0.
    8880022    1    1    2    0    0  0.37678884300E+03  0.40451970405E+03 -0.91488417388E+03  0.10798197664E+04  0.15294330000E+03 0.  0.
<mgrwt>
<rscale>  0 0.57358319E+03</rscale>
<asrwt>0</asrwt>
<pdfrwt beam="1">  1        2 0.17763755E+00 0.57358319E+03</pdfrwt>
<pdfrwt beam="2">  1       -2 0.93134845E-01 0.57358319E+03</pdfrwt>
<totfact> 0.20504293E+01</totfact>
</mgrwt>
</event>
<event>
 4    1  0.1708882E-008  0.8783175E+03  0.7818608E-02  0.9453099E-01
         -2   -1    0    0    0  501 -0.00000000000E+00  0.00000000000E+00  0.13565302969E+04  0.13565302969E+04  0.25500000000E-02 0.  1.
          2   -1    0    0  501    0  0.00000000000E+00 -0.00000000000E+00 -0.34674137053E+04  0.34674137053E+04  0.25500000000E-02 0. -1.
    8880022    1    1    2    0    0 -0.78623117761E+03  0.36040318920E+03 -0.32607689516E+04  0.33769891519E+04  0.15294330000E+03 0.  0.
    8880022    1    1    2    0    0  0.78623117761E+03 -0.36040318920E+03  0.11498855432E+04  0.14469548503E+04  0.15294330000E+03 0.  0.
<mgrwt>
<rscale>  0 0.87831747E+03</rscale>
<asrwt>0</asrwt>
<pdfrwt beam="1">  1        2 0.53344826E+00 0.87831747E+03</pdfrwt>
<pdfrwt beam="2">  1       -2 0.20869697E+00 0.87831747E+03</pdfrwt>
<totfact> 0.10602317E-01</totfact>
</mgrwt>
</event>
<event>
 4    1  0.1033139E-008  0.2986095E+03  0.7818608E-02  0.1085938E+00
         -2   -1    0    0    0  501 -0.00000000000E+00  0.00000000000E+00  0.63985762475E+03  0.63985762475E+03  0.25500000000E-02 0.  1.
          2   -1    0    0  501    0  0.00000000000E+00 -0.00000000000E+00 -0.56704512640E+03  0.56704512641E+03  0.25500000000E-02 0. -1.
    8880022    1    1    2    0    0  0.25421385743E+03 -0.33931140025E+02  0.56048655954E+03  0.63506916475E+03  0.15294330000E+03 0.  0.
    8880022    1    1    2    0    0 -0.25421385743E+03  0.33931140025E+02 -0.48767406120E+03  0.57183358641E+03  0.15294330000E+03 0.  0.
<mgrwt>
<rscale>  0 0.29860955E+03</rscale>
<asrwt>0</asrwt>
<pdfrwt beam="1">  1        2 0.87237712E-01 0.29860955E+03</pdfrwt>
<pdfrwt beam="2">  1       -2 0.98439634E-01 0.29860955E+03</pdfrwt>
<totfact> 0.48343034E+01</totfact>
</mgrwt>
</event>
<event>
 4    1  0.1119833E-008  0.1549255E+04  0.7818608E-02  0.8852344E-01
          2   -1    0    0  501    0  0.00000000000E+00  0.00000000000E+00  0.21328396644E+04  0.21328396644E+04  0.25500000000E-02 0. -1.
         -2   -1    0    0    0  501 -0.00000000000E+00 -0.00000000000E+00 -0.19882425872E+04  0.19882425872E+04  0.25500000000E-02 0.  1.
    8880022    1    1    2    0    0 -0.10644027580E+04 -0.11152785247E+04  0.14297520812E+04  0.21081703170E+04  0.15294330000E+03 0.  0.
    8880022    1    1    2    0    0  0.10644027580E+04  0.11152785247E+04 -0.12851550039E+04  0.20129119345E+04  0.15294330000E+03 0.  0.
<mgrwt>
<rscale>  0 0.15492550E+04</rscale>
<asrwt>0</asrwt>
<pdfrwt beam="1">  1        2 0.32812918E+00 0.15492550E+04</pdfrwt>
<pdfrwt beam="2">  1       -2 0.30588348E+00 0.15492550E+04</pdfrwt>
<totfact> 0.15358581E-01</totfact>
</mgrwt>
</event>
<event>
 4    1  0.1033139E-008  0.9403704E+03  0.7818608E-02  0.9376477E-01
          2   -1    0    0  501    0  0.00000000000E+00  0.00000000000E+00  0.17825451355E+04  0.17825451355E+04  0.25500000000E-02 0. -1.
         -2   -1    0    0    0  501 -0.00000000000E+00 -0.00000000000E+00 -0.86103384673E+03  0.86103384673E+03  0.25500000000E-02 0.  1.
    8880022    1    1    2    0    0 -0.52118832271E+02 -0.92638458105E+03 -0.39977698309E+03  0.10218209500E+04  0.15294330000E+03 0.  0.
    8880022    1    1    2    0    0  0.52118832271E+02  0.92638458105E+03  0.13212882719E+04  0.16217580322E+04  0.15294330000E+03 0.  0.
<mgrwt>
<rscale>  0 0.94037036E+03</rscale>
<asrwt>0</asrwt>
<pdfrwt beam="1">  1        2 0.27423771E+00 0.94037036E+03</pdfrwt>
<pdfrwt beam="2">  1       -2 0.13246675E+00 0.94037036E+03</pdfrwt>
<totfact> 0.36654349E+00</totfact>
</mgrwt>
</event>
<event>
 4    1  0.1033139E-008  0.2013007E+04  0.7818608E-02  0.8600563E-01
         -2   -1    0    0    0  501 -0.00000000000E+00  0.00000000000E+00  0.31799692913E+04  0.31799692913E+04  0.25500000000E-02 0.  1.
          2   -1    0    0  501    0  0.00000000000E+00 -0.00000000000E+00 -0.17133552174E+04  0.17133552174E+04  0.25500000000E-02 0. -1.
    8880022    1    1    2    0    0  0.20041926638E+04  0.10963140107E+03 -0.50524847586E+03  0.20754457239E+04  0.15294330000E+03 0.  0.
    8880022    1    1    2    0    0 -0.20041926638E+04 -0.10963140107E+03  0.19718625498E+04  0.28178787848E+04  0.15294330000E+03 0.  0.
<mgrwt>
<rscale>  0 0.20130074E+04</rscale>
<asrwt>0</asrwt>
<pdfrwt beam="1">  1        2 0.26359311E+00 0.20130074E+04</pdfrwt>
<pdfrwt beam="2">  1       -2 0.48922604E+00 0.20130074E+04</pdfrwt>
<totfact> 0.16368017E-02</totfact>
</mgrwt>
</event>
<event>
 4    1  0.1033139E-008  0.7033329E+03  0.7818608E-02  0.9711549E-01
          2   -1    0    0  501    0  0.00000000000E+00  0.00000000000E+00  0.34689594542E+04  0.34689594542E+04  0.25500000000E-02 0. -1.
         -2   -1    0    0    0  501 -0.00000000000E+00 -0.00000000000E+00 -0.14649689652E+03  0.14649689654E+03  0.25500000000E-02 0.  1.
    8880022    1    1    2    0    0  0.56892586218E+03  0.38419893759E+03  0.13664348615E+04  0.15368218322E+04  0.15294330000E+03 0.  0.
    8880022    1    1    2    0    0 -0.56892586218E+03 -0.38419893759E+03  0.19560276962E+04  0.20786345185E+04  0.15294330000E+03 0.  0.
<mgrwt>
<rscale>  0 0.70333286E+03</rscale>
<asrwt>0</asrwt>
<pdfrwt beam="1">  1        2 0.53368602E+00 0.70333286E+03</pdfrwt>
<pdfrwt beam="2">  1       -2 0.22537986E-01 0.70333286E+03</pdfrwt>
<totfact> 0.16026722E+01</totfact>
</mgrwt>
</event>
<event>
 4    1  0.1033139E-008  0.1046575E+04  0.7818608E-02  0.9258887E-01
         -2   -1    0    0    0  501 -0.00000000000E+00  0.00000000000E+00  0.17455837398E+04  0.17455837398E+04  0.25500000000E-02 0.  1.
          2   -1    0    0  501    0  0.00000000000E+00 -0.00000000000E+00 -0.14069414693E+04  0.14069414694E+04  0.25500000000E-02 0. -1.
    8880022    1    1    2    0    0  0.87666405575E+02  0.10316211263E+04  0.13425637599E+04  0.17022915876E+04  0.15294330000E+03 0.  0.
    8880022    1    1    2    0    0 -0.87666405575E+02 -0.10316211263E+04 -0.10039214895E+04  0.14502336215E+04  0.15294330000E+03 0.  0.
<mgrwt>
<rscale>  0 0.10465750E+04</rscale>
<asrwt>0</asrwt>
<pdfrwt beam="1">  1        2 0.21645254E+00 0.10465750E+04</pdfrwt>
<pdfrwt beam="2">  1       -2 0.26855134E+00 0.10465750E+04</pdfrwt>
<totfact> 0.70445220E-01</totfact>
</mgrwt>
</event>
<event>
 4    1  0.1033139E-008  0.1181397E+04  0.7818608E-02  0.9129297E-01
         -2   -1    0    0    0  501 -0.00000000000E+00  0.00000000000E+00  0.76143417544E+03  0.76143417544E+03  0.25500000000E-02 0.  1.
          2   -1    0    0  501    0  0.00000000000E+00 -0.00000000000E+00 -0.25138848452E+04  0.25138848452E+04  0.25500000000E-02 0. -1.
    8880022    1    1    2    0    0  0.30983569136E+03  0.11297384761E+04 -0.23926394606E+02  0.11816392450E+04  0.15294330000E+03 0.  0.
    8880022    1    1    2    0    0 -0.30983569136E+03 -0.11297384761E+04 -0.17285242752E+04  0.20936797756E+04  0.15294330000E+03 0.  0.
<mgrwt>
<rscale>  0 0.11813970E+04</rscale>
<asrwt>0</asrwt>
<pdfrwt beam="1">  1        2 0.38675151E+00 0.11813970E+04</pdfrwt>
<pdfrwt beam="2">  1       -2 0.11714372E+00 0.11813970E+04</pdfrwt>
<totfact> 0.18940095E+00</totfact>
</mgrwt>
</event>
<event>
 4    1  0.1033139E-008  0.2620057E+03  0.7818608E-02  0.1105944E+00
         -2   -1    0    0    0  501 -0.00000000000E+00  0.00000000000E+00  0.17582856555E+03  0.17582856557E+03  0.25500000000E-02 0.  1.
          2   -1    0    0  501    0  0.00000000000E+00 -0.00000000000E+00 -0.97469515402E+03  0.97469515403E+03  0.25500000000E-02 0. -1.
    8880022    1    1    2    0    0 -0.10042195618E+03 -0.18753865004E+03  0.45956161557E+02  0.26600551938E+03  0.15294330000E+03 0.  0.
    8880022    1    1    2    0    0  0.10042195618E+03  0.18753865004E+03 -0.84482275003E+03  0.88451820022E+03  0.15294330000E+03 0.  0.
<mgrwt>
<rscale>  0 0.26200566E+03</rscale>
<asrwt>0</asrwt>
<pdfrwt beam="1">  1        2 0.14995310E+00 0.26200566E+03</pdfrwt>
<pdfrwt beam="2">  1       -2 0.27050549E-01 0.26200566E+03</pdfrwt>
<totfact> 0.33883217E+02</totfact>
</mgrwt>
</event>
<event>
 4    1  0.1033139E-008  0.4306401E+03  0.7818608E-02  0.1033658E+00
         -2   -1    0    0    0  501 -0.00000000000E+00  0.00000000000E+00  0.25557421041E+03  0.25557421043E+03  0.25500000000E-02 0.  1.
          2   -1    0    0  501    0  0.00000000000E+00 -0.00000000000E+00 -0.95941607732E+03  0.95941607732E+03  0.25500000000E-02 0. -1.
    8880022    1    1    2    0    0 -0.36960983414E+03  0.15952376590E+03 -0.52036636993E+02  0.43377266625E+03  0.15294330000E+03 0.  0.
    8880022    1    1    2    0    0  0.36960983414E+03 -0.15952376590E+03 -0.65180522992E+03  0.78121762150E+03  0.15294330000E+03 0.  0.
<mgrwt>
<rscale>  0 0.43064012E+03</rscale>
<asrwt>0</asrwt>
<pdfrwt beam="1">  1        2 0.14760247E+00 0.43064012E+03</pdfrwt>
<pdfrwt beam="2">  1       -2 0.39319110E-01 0.43064012E+03</pdfrwt>
<totfact> 0.16973405E+02</totfact>
</mgrwt>
</event>
<event>
 4    1  0.1033139E-008  0.4215438E+03  0.7818608E-02  0.1036565E+00
         -2   -1    0    0    0  501 -0.00000000000E+00  0.00000000000E+00  0.63759347332E+03  0.63759347332E+03  0.25500000000E-02 0.  1.
          2   -1    0    0  501    0  0.00000000000E+00 -0.00000000000E+00 -0.32179985952E+04  0.32179985952E+04  0.25500000000E-02 0. -1.
    8880022    1    1    2    0    0  0.18559102715E+03  0.34621308461E+03  0.55222233315E+03  0.69472921887E+03  0.15294330000E+03 0.  0.
    8880022    1    1    2    0    0 -0.18559102715E+03 -0.34621308461E+03 -0.31326274550E+04  0.31608628497E+04  0.15294330000E+03 0. -1.
<mgrwt>
<rscale>  0 0.42154381E+03</rscale>
<asrwt>0</asrwt>
<pdfrwt beam="1">  1        2 0.49507670E+00 0.42154381E+03</pdfrwt>
<pdfrwt beam="2">  1       -2 0.98091306E-01 0.42154381E+03</pdfrwt>
<totfact> 0.12981814E+00</totfact>
</mgrwt>
</event>
<event>
 4    1  0.1033139E-008  0.6133018E+03  0.7818608E-02  0.9878187E-01
          2   -1    0    0  501    0  0.00000000000E+00  0.00000000000E+00  0.18075773377E+04  0.18075773377E+04  0.25500000000E-02 0. -1.
         -2   -1    0    0    0  501 -0.00000000000E+00 -0.00000000000E+00 -0.82303624621E+03  0.82303624622E+03  0.25500000000E-02 0.  1.
    8880022    1    1    2    0    0 -0.28746289201E+03 -0.51972350904E+03 -0.64466565721E+03  0.88979374168E+03  0.15294330000E+03 0.  0.
    8880022    1    1    2    0    0  0.28746289201E+03  0.51972350904E+03  0.16292067487E+04  0.17408198423E+04  0.15294330000E+03 0.  0.
<mgrwt>
<rscale>  0 0.61330180E+03</rscale>
<asrwt>0</asrwt>
<pdfrwt beam="1">  1        2 0.27808882E+00 0.61330180E+03</pdfrwt>
<pdfrwt beam="2">  1       -2 0.12662096E+00 0.61330180E+03</pdfrwt>
<totfact> 0.41965854E+00</totfact>
</mgrwt>
</event>
<event>
 4    1  0.1033139E-008  0.1650083E+04  0.7818608E-02  0.8790357E-01
         -2   -1    0    0    0  501 -0.00000000000E+00  0.00000000000E+00  0.16222331640E+04  0.16222331640E+04  0.25500000000E-02 0.  1.
          2   -1    0    0  501    0  0.00000000000E+00 -0.00000000000E+00 -0.24241729141E+04  0.24241729141E+04  0.25500000000E-02 0. -1.
    8880022    1    1    2    0    0  0.18919320005E+03 -0.16320501963E+04 -0.15231377912E+04  0.22456006533E+04  0.15294330000E+03 0.  0.
    8880022    1    1    2    0    0 -0.18919320005E+03  0.16320501963E+04  0.72119804110E+03  0.18008054247E+04  0.15294330000E+03 0.  0.
<mgrwt>
<rscale>  0 0.16500829E+04</rscale>
<asrwt>0</asrwt>
<pdfrwt beam="1">  1        2 0.37294968E+00 0.16500829E+04</pdfrwt>
<pdfrwt beam="2">  1       -2 0.24957433E+00 0.16500829E+04</pdfrwt>
<totfact> 0.22944586E-01</totfact>
</mgrwt>
</event>
<event>
 4    1  0.1033139E-008  0.1083509E+04  0.7818608E-02  0.9221416E-01
         -2   -1    0    0    0  501 -0.00000000000E+00  0.00000000000E+00  0.17914921354E+04  0.17914921354E+04  0.25500000000E-02 0.  1.
          2   -1    0    0  501    0  0.00000000000E+00 -0.00000000000E+00 -0.13751709049E+04  0.13751709049E+04  0.25500000000E-02 0. -1.
    8880022    1    1    2    0    0  0.97044672708E+02  0.10682617233E+04  0.13537162275E+04  0.17339377312E+04  0.15294330000E+03 0.  0.
    8880022    1    1    2    0    0 -0.97044672708E+02 -0.10682617233E+04 -0.93739499695E+03  0.14327253091E+04  0.15294330000E+03 0.  0.
<mgrwt>
<rscale>  0 0.10835093E+04</rscale>
<asrwt>0</asrwt>
<pdfrwt beam="1">  1        2 0.21156475E+00 0.10835093E+04</pdfrwt>
<pdfrwt beam="2">  1       -2 0.27561418E+00 0.10835093E+04</pdfrwt>
<totfact> 0.66227862E-01</totfact>
</mgrwt>
</event>
<event>
 4    1  0.1033139E-008  0.3259223E+03  0.7818608E-02  0.1072956E+00
         -2   -1    0    0    0  501 -0.00000000000E+00  0.00000000000E+00  0.23208068865E+03  0.23208068867E+03  0.25500000000E-02 0.  1.
          2   -1    0    0  501    0  0.00000000000E+00 -0.00000000000E+00 -0.98200056551E+03  0.98200056552E+03  0.25500000000E-02 0. -1.
    8880022    1    1    2    0    0  0.26104851457E+03  0.12119149530E+03  0.68596036784E+02  0.33306271897E+03  0.15294330000E+03 0.  0.
    8880022    1    1    2    0    0 -0.26104851457E+03 -0.12119149530E+03 -0.81851591364E+03  0.88101853522E+03  0.15294330000E+03 0. -1.
<mgrwt>
<rscale>  0 0.32592232E+03</rscale>
<asrwt>0</asrwt>
<pdfrwt beam="1">  1        2 0.15107701E+00 0.32592232E+03</pdfrwt>
<pdfrwt beam="2">  1       -2 0.35704722E-01 0.32592232E+03</pdfrwt>
<totfact> 0.19976874E+02</totfact>
</mgrwt>
</event>
<event>
 4    1  0.1033139E-008  0.5219533E+03  0.7818608E-02  0.1008202E+00
          2   -1    0    0  501    0  0.00000000000E+00  0.00000000000E+00  0.91478520835E+03  0.91478520836E+03  0.25500000000E-02 0. -1.
         -2   -1    0    0    0  501 -0.00000000000E+00 -0.00000000000E+00 -0.89789623229E+03  0.89789623229E+03  0.25500000000E-02 0.  1.
    8880022    1    1    2    0    0 -0.27440478826E+03  0.41682808393E+03 -0.73249718113E+03  0.89943727561E+03  0.15294330000E+03 0.  0.
    8880022    1    1    2    0    0  0.27440478826E+03 -0.41682808393E+03  0.74938615720E+03  0.91324416504E+03  0.15294330000E+03 0. -1.
<mgrwt>
<rscale>  0 0.52195334E+03</rscale>
<asrwt>0</asrwt>
<pdfrwt beam="1">  1        2 0.14073619E+00 0.52195334E+03</pdfrwt>
<pdfrwt beam="2">  1       -2 0.13813788E+00 0.52195334E+03</pdfrwt>
<totfact> 0.11178551E+01</totfact>
</mgrwt>
</event>
<event>
 4    1  0.1033139E-008  0.4829216E+03  0.7818608E-02  0.1018335E+00
         -2   -1    0    0    0  501 -0.00000000000E+00  0.00000000000E+00  0.59492023451E+03  0.59492023451E+03  0.25500000000E-02 0.  1.
          2   -1    0    0  501    0  0.00000000000E+00 -0.00000000000E+00 -0.75898290896E+03  0.75898290896E+03  0.25500000000E-02 0. -1.
    8880022    1    1    2    0    0 -0.42833495433E+03  0.16232935116E+03  0.38868576157E+03  0.61991122398E+03  0.15294330000E+03 0.  0.
    8880022    1    1    2    0    0  0.42833495433E+03 -0.16232935116E+03 -0.55274843602E+03  0.73399191950E+03  0.15294330000E+03 0.  0.
<mgrwt>
<rscale>  0 0.48292163E+03</rscale>
<asrwt>0</asrwt>
<pdfrwt beam="1">  1        2 0.11676660E+00 0.48292163E+03</pdfrwt>
<pdfrwt beam="2">  1       -2 0.91526190E-01 0.48292163E+03</pdfrwt>
<totfact> 0.39093564E+01</totfact>
</mgrwt>
</event>
<event>
 4    1  0.1033139E-008  0.8030796E+03  0.7818608E-02  0.9555570E-01
         -2   -1    0    0    0  501 -0.00000000000E+00  0.00000000000E+00  0.11911068748E+04  0.11911068748E+04  0.25500000000E-02 0.  1.
          2   -1    0    0  501    0  0.00000000000E+00 -0.00000000000E+00 -0.75705953143E+03  0.75705953144E+03  0.25500000000E-02 0. -1.
    8880022    1    1    2    0    0 -0.28403404881E+03 -0.73543856511E+03  0.73684586747E+03  0.10898984858E+04  0.15294330000E+03 0.  0.
    8880022    1    1    2    0    0  0.28403404881E+03  0.73543856511E+03 -0.30279852415E+03  0.85826792039E+03  0.15294330000E+03 0.  0.
<mgrwt>
<rscale>  0 0.80307962E+03</rscale>
<asrwt>0</asrwt>
<pdfrwt beam="1">  1        2 0.11647070E+00 0.80307962E+03</pdfrwt>
<pdfrwt beam="2">  1       -2 0.18324721E+00 0.80307962E+03</pdfrwt>
<totfact> 0.64612815E+00</totfact>
</mgrwt>
</event>
<event>
 4    1  0.1033139E-008  0.7744968E+03  0.7818608E-02  0.9597684E-01
         -2   -1    0    0    0  501 -0.00000000000E+00  0.00000000000E+00  0.22265093309E+04  0.22265093309E+04  0.25500000000E-02 0.  1.
          2   -1    0    0  501    0  0.00000000000E+00 -0.00000000000E+00 -0.49368030367E+03  0.49368030368E+03  0.25500000000E-02 0. -1.
    8880022    1    1    2    0    0  0.69253219260E+03 -0.31121177423E+03  0.17831236731E+04  0.19440615455E+04  0.15294330000E+03 0.  0.
    8880022    1    1    2    0    0 -0.69253219260E+03  0.31121177423E+03 -0.50294645860E+02  0.77612808906E+03  0.15294330000E+03 0.  0.
<mgrwt>
<rscale>  0 0.77449678E+03</rscale>
<asrwt>0</asrwt>
<pdfrwt beam="1">  1        2 0.75950817E-01 0.77449678E+03</pdfrwt>
<pdfrwt beam="2">  1       -2 0.34253989E+00 0.77449678E+03</pdfrwt>
<totfact> 0.11351447E+00</totfact>
</mgrwt>
</event>
<event>
 4    1  0.1033139E-008  0.8449695E+03  0.7818608E-02  0.9497114E-01
         -2   -1    0    0    0  501 -0.00000000000E+00  0.00000000000E+00  0.14014106900E+04  0.14014106900E+04  0.25500000000E-02 0.  1.
          2   -1    0    0  501    0  0.00000000000E+00 -0.00000000000E+00 -0.18532676433E+04  0.18532676433E+04  0.25500000000E-02 0. -1.
    8880022    1    1    2    0    0  0.67297207011E+03 -0.48753505425E+03  0.11597941670E+04  0.14349550513E+04  0.15294330000E+03 0.  0.
    8880022    1    1    2    0    0 -0.67297207011E+03  0.48753505425E+03 -0.16116511203E+04  0.18197232820E+04  0.15294330000E+03 0.  0.
<mgrwt>
<rscale>  0 0.84496952E+03</rscale>
<asrwt>0</asrwt>
<pdfrwt beam="1">  1        2 0.28511810E+00 0.84496952E+03</pdfrwt>
<pdfrwt beam="2">  1       -2 0.21560164E+00 0.84496952E+03</pdfrwt>
<totfact> 0.87001652E-01</totfact>
</mgrwt>
</event>
<event>
 4    1  0.1033139E-008  0.1066122E+04  0.7818608E-02  0.9238855E-01
          2   -1    0    0  501    0  0.00000000000E+00  0.00000000000E+00  0.22634145948E+04  0.22634145948E+04  0.25500000000E-02 0. -1.
         -2   -1    0    0    0  501 -0.00000000000E+00 -0.00000000000E+00 -0.86968960563E+03  0.86968960564E+03  0.25500000000E-02 0.  1.
    8880022    1    1    2    0    0 -0.56574670904E+03 -0.89059268077E+03 -0.32150290711E+03  0.11135440872E+04  0.15294330000E+03 0.  0.
    8880022    1    1    2    0    0  0.56574670904E+03  0.89059268077E+03  0.17152278963E+04  0.20195601133E+04  0.15294330000E+03 0.  0.
<mgrwt>
<rscale>  0 0.10661221E+04</rscale>
<asrwt>0</asrwt>
<pdfrwt beam="1">  1        2 0.34821762E+00 0.10661221E+04</pdfrwt>
<pdfrwt beam="2">  1       -2 0.13379840E+00 0.10661221E+04</pdfrwt>
<totfact> 0.19061514E+00</totfact>
</mgrwt>
</event>
<event>
 4    1  0.1033139E-008  0.8555059E+03  0.7818608E-02  0.9482977E-01
          2   -1    0    0  501    0  0.00000000000E+00  0.00000000000E+00  0.34938386808E+04  0.34938386808E+04  0.25500000000E-02 0. -1.
         -2   -1    0    0    0  501 -0.00000000000E+00 -0.00000000000E+00 -0.45293454975E+03  0.45293454976E+03  0.25500000000E-02 0.  1.
    8880022    1    1    2    0    0  0.82254023134E+03 -0.17867923643E+03  0.73669926927E+02  0.85867200539E+03  0.15294330000E+03 0.  0.
    8880022    1    1    2    0    0 -0.82254023134E+03  0.17867923643E+03  0.29672342041E+04  0.30881012252E+04  0.15294330000E+03 0.  0.
<mgrwt>
<rscale>  0 0.85550591E+03</rscale>
<asrwt>0</asrwt>
<pdfrwt beam="1">  1        2 0.53751366E+00 0.85550591E+03</pdfrwt>
<pdfrwt beam="2">  1       -2 0.69682236E-01 0.85550591E+03</pdfrwt>
<totfact> 0.16393078E+00</totfact>
</mgrwt>
</event>
<event>
 4    1  0.1033139E-008  0.9679785E+03  0.7818608E-02  0.9344380E-01
          2   -1    0    0  501    0  0.00000000000E+00  0.00000000000E+00  0.12377381440E+04  0.12377381440E+04  0.25500000000E-02 0. -1.
         -2   -1    0    0    0  501 -0.00000000000E+00 -0.00000000000E+00 -0.12411594998E+04  0.12411594998E+04  0.25500000000E-02 0.  1.
    8880022    1    1    2    0    0  0.64915130984E+03  0.70156483997E+03 -0.77582261845E+03  0.12405172454E+04  0.15294330000E+03 0.  0.
    8880022    1    1    2    0    0 -0.64915130984E+03 -0.70156483997E+03  0.77240126258E+03  0.12383803984E+04  0.15294330000E+03 0.  0.
<mgrwt>
<rscale>  0 0.96797846E+03</rscale>
<asrwt>0</asrwt>
<pdfrwt beam="1">  1        2 0.19042125E+00 0.96797846E+03</pdfrwt>
<pdfrwt beam="2">  1       -2 0.19094761E+00 0.96797846E+03</pdfrwt>
<totfact> 0.27355434E+00</totfact>
</mgrwt>
</event>
<event>
 4    1  0.1033139E-008  0.9721197E+03  0.7818608E-02  0.9339663E-01
         -2   -1    0    0    0  501 -0.00000000000E+00  0.00000000000E+00  0.64666439742E+03  0.64666439743E+03  0.25500000000E-02 0.  1.
          2   -1    0    0  501    0  0.00000000000E+00 -0.00000000000E+00 -0.33200005723E+04  0.33200005723E+04  0.25500000000E-02 0. -1.
    8880022    1    1    2    0    0 -0.24158835503E+02 -0.95970901105E+03 -0.28206303295E+04  0.29834497053E+04  0.15294330000E+03 0.  0.
    8880022    1    1    2    0    0  0.24158835503E+02  0.95970901105E+03  0.14729415463E+03  0.98321526444E+03  0.15294330000E+03 0.  0.
<mgrwt>
<rscale>  0 0.97211969E+03</rscale>
<asrwt>0</asrwt>
<pdfrwt beam="1">  1        2 0.51076931E+00 0.97211969E+03</pdfrwt>
<pdfrwt beam="2">  1       -2 0.99486832E-01 0.97211969E+03</pdfrwt>
<totfact> 0.93304303E-01</totfact>
</mgrwt>
</event>
<event>
 4    1  0.1033139E-008  0.1746824E+04  0.7818608E-02  0.8735100E-01
          2   -1    0    0  501    0  0.00000000000E+00  0.00000000000E+00  0.32009392467E+04  0.32009392467E+04  0.25500000000E-02 0. -1.
         -2   -1    0    0    0  501 -0.00000000000E+00 -0.00000000000E+00 -0.10979836194E+04  0.10979836194E+04  0.25500000000E-02 0.  1.
    8880022    1    1    2    0    0  0.49171493493E+03  0.16691970989E+04  0.18317930762E+04  0.25311776032E+04  0.15294330000E+03 0.  0.
    8880022    1    1    2    0    0 -0.49171493493E+03 -0.16691970989E+04  0.27116255107E+03  0.17677452628E+04  0.15294330000E+03 0.  0.
<mgrwt>
<rscale>  0 0.17468240E+04</rscale>
<asrwt>0</asrwt>
<pdfrwt beam="1">  1        2 0.49245220E+00 0.17468240E+04</pdfrwt>
<pdfrwt beam="2">  1       -2 0.16892056E+00 0.17468240E+04</pdfrwt>
<totfact> 0.25879377E-01</totfact>
</mgrwt>
</event>
<event>
 4    1  0.1033139E-008  0.7159303E+03  0.7818608E-02  0.9690370E-01
         -2   -1    0    0    0  501 -0.00000000000E+00  0.00000000000E+00  0.83511556065E+03  0.83511556066E+03  0.25500000000E-02 0.  1.
          2   -1    0    0  501    0  0.00000000000E+00 -0.00000000000E+00 -0.10257474846E+04  0.10257474846E+04  0.25500000000E-02 0. -1.
    8880022    1    1    2    0    0 -0.24905221758E+03  0.65355764213E+03 -0.68498577422E+03  0.99083891857E+03  0.15294330000E+03 0.  0.
    8880022    1    1    2    0    0  0.24905221758E+03 -0.65355764213E+03  0.49435385029E+03  0.87002412667E+03  0.15294330000E+03 0.  0.
<mgrwt>
<rscale>  0 0.71593034E+03</rscale>
<asrwt>0</asrwt>
<pdfrwt beam="1">  1        2 0.15780730E+00 0.71593034E+03</pdfrwt>
<pdfrwt beam="2">  1       -2 0.12847932E+00 0.71593034E+03</pdfrwt>
<totfact> 0.11086834E+01</totfact>
</mgrwt>
</event>
<event>
 4    1  0.1033139E-008  0.8827628E+03  0.7818608E-02  0.9447389E-01
          2   -1    0    0  501    0  0.00000000000E+00  0.00000000000E+00  0.12705741741E+04  0.12705741741E+04  0.25500000000E-02 0. -1.
         -2   -1    0    0    0  501 -0.00000000000E+00 -0.00000000000E+00 -0.15652287578E+04  0.15652287578E+04  0.25500000000E-02 0.  1.
    8880022    1    1    2    0    0 -0.79747324153E+03  0.34628743061E+03  0.95841649090E+03  0.13030089710E+04  0.15294330000E+03 0.  0.
    8880022    1    1    2    0    0  0.79747324153E+03 -0.34628743061E+03 -0.12530710746E+04  0.15327939609E+04  0.15294330000E+03 0.  0.
<mgrwt>
<rscale>  0 0.88276283E+03</rscale>
<asrwt>0</asrwt>
<pdfrwt beam="1">  1        2 0.19547295E+00 0.88276283E+03</pdfrwt>
<pdfrwt beam="2">  1       -2 0.24080442E+00 0.88276283E+03</pdfrwt>
<totfact> 0.12760721E+00</totfact>
</mgrwt>
</event>
<event>
 4    1  0.1033139E-008  0.4497934E+03  0.7818608E-02  0.1027784E+00
         -2   -1    0    0    0  501 -0.00000000000E+00  0.00000000000E+00  0.44110309071E+03  0.44110309072E+03  0.25500000000E-02 0.  1.
          2   -1    0    0  501    0  0.00000000000E+00 -0.00000000000E+00 -0.58996598196E+03  0.58996598196E+03  0.25500000000E-02 0. -1.
    8880022    1    1    2    0    0  0.32357575390E+03 -0.27243564902E+03  0.16878611599E+03  0.48041945978E+03  0.15294330000E+03 0.  0.
    8880022    1    1    2    0    0 -0.32357575390E+03  0.27243564902E+03 -0.31764900723E+03  0.55064961290E+03  0.15294330000E+03 0.  0.
<mgrwt>
<rscale>  0 0.44979340E+03</rscale>
<asrwt>0</asrwt>
<pdfrwt beam="1">  1        2 0.90763997E-01 0.44979340E+03</pdfrwt>
<pdfrwt beam="2">  1       -2 0.67862014E-01 0.44979340E+03</pdfrwt>
<totfact> 0.10402378E+02</totfact>
</mgrwt>
</event>
<event>
 4    1  0.1033139E-008  0.7212103E+03  0.7818608E-02  0.9681632E-01
          2   -1    0    0  501    0  0.00000000000E+00  0.00000000000E+00  0.15071552086E+04  0.15071552086E+04  0.25500000000E-02 0. -1.
         -2   -1    0    0    0  501 -0.00000000000E+00 -0.00000000000E+00 -0.52118723210E+03  0.52118723211E+03  0.25500000000E-02 0.  1.
    8880022    1    1    2    0    0 -0.65262817685E+03 -0.26613737753E+03 -0.96480775509E+02  0.72763509674E+03  0.15294330000E+03 0.  0.
    8880022    1    1    2    0    0  0.65262817685E+03  0.26613737753E+03  0.10824487520E+04  0.13007073440E+04  0.15294330000E+03 0.  0.
<mgrwt>
<rscale>  0 0.72121030E+03</rscale>
<asrwt>0</asrwt>
<pdfrwt beam="1">  1        2 0.23187003E+00 0.72121030E+03</pdfrwt>
<pdfrwt beam="2">  1       -2 0.80182652E-01 0.72121030E+03</pdfrwt>
<totfact> 0.17778971E+01</totfact>
</mgrwt>
</event>
<event>
 4    1  0.1033139E-008  0.7890511E+03  0.7818608E-02  0.9576002E-01
         -2   -1    0    0    0  501 -0.00000000000E+00  0.00000000000E+00  0.42717224379E+03  0.42717224380E+03  0.25500000000E-02 0.  1.
          2   -1    0    0  501    0  0.00000000000E+00 -0.00000000000E+00 -0.15995181206E+04  0.15995181206E+04  0.25500000000E-02 0. -1.
    8880022    1    1    2    0    0 -0.67829651488E+03 -0.37299314857E+03 -0.88812729230E+03  0.11880116966E+04  0.15294330000E+03 0.  0.
    8880022    1    1    2    0    0  0.67829651488E+03  0.37299314857E+03 -0.28421858449E+03  0.83867866776E+03  0.15294330000E+03 0.  0.
<mgrwt>
<rscale>  0 0.78905114E+03</rscale>
<asrwt>0</asrwt>
<pdfrwt beam="1">  1        2 0.24607971E+00 0.78905114E+03</pdfrwt>
<pdfrwt beam="2">  1       -2 0.65718808E-01 0.78905114E+03</pdfrwt>
<totfact> 0.24283764E+01</totfact>
</mgrwt>
</event>
<event>
 4    1  0.1033139E-008  0.4256928E+03  0.7818608E-02  0.1035229E+00
         -2   -1    0    0    0  501 -0.00000000000E+00  0.00000000000E+00  0.98404642472E+02  0.98404642505E+02  0.25500000000E-02 0.  1.
          2   -1    0    0  501    0  0.00000000000E+00 -0.00000000000E+00 -0.44006976608E+04  0.44006976608E+04  0.25500000000E-02 0. -1.
    8880022    1    1    2    0    0 -0.18716006079E+03  0.35041946510E+03 -0.38666244194E+04  0.38899869850E+04  0.15294330000E+03 0.  0.
    8880022    1    1    2    0    0  0.18716006079E+03 -0.35041946510E+03 -0.43566859895E+03  0.60911531832E+03  0.15294330000E+03 0.  0.
<mgrwt>
<rscale>  0 0.42569278E+03</rscale>
<asrwt>0</asrwt>
<pdfrwt beam="1">  1        2 0.67703026E+00 0.42569278E+03</pdfrwt>
<pdfrwt beam="2">  1       -2 0.15139179E-01 0.42569278E+03</pdfrwt>
<totfact> 0.65472264E+00</totfact>
</mgrwt>
</event>
<event>
 4    1  0.1033139E-008  0.4588537E+03  0.7818608E-02  0.1025114E+00
         -2   -1    0    0    0  501 -0.00000000000E+00  0.00000000000E+00  0.10505247544E+04  0.10505247544E+04  0.25500000000E-02 0.  1.
          2   -1    0    0  501    0  0.00000000000E+00 -0.00000000000E+00 -0.64348519316E+03  0.64348519316E+03  0.25500000000E-02 0. -1.
    8880022    1    1    2    0    0 -0.35132953782E+03 -0.25243346824E+03  0.90634967713E+03  0.10158821242E+04  0.15294330000E+03 0.  0.
    8880022    1    1    2    0    0  0.35132953782E+03  0.25243346824E+03 -0.49931011586E+03  0.67812782339E+03  0.15294330000E+03 0.  0.
<mgrwt>
<rscale>  0 0.45885374E+03</rscale>
<asrwt>0</asrwt>
<pdfrwt beam="1">  1        2 0.98997722E-01 0.45885374E+03</pdfrwt>
<pdfrwt beam="2">  1       -2 0.16161919E+00 0.45885374E+03</pdfrwt>
<totfact> 0.11782447E+01</totfact>
</mgrwt>
</event>
<event>
 4    1  0.1033139E-008  0.4606682E+03  0.7818608E-02  0.1024588E+00
          2   -1    0    0  501    0  0.00000000000E+00  0.00000000000E+00  0.19378224549E+04  0.19378224549E+04  0.25500000000E-02 0. -1.
         -2   -1    0    0    0  501 -0.00000000000E+00 -0.00000000000E+00 -0.13168160210E+03  0.13168160213E+03  0.25500000000E-02 0.  1.
    8880022    1    1    2    0    0 -0.37865559047E+03  0.21317479385E+03  0.13276418083E+04  0.14052928425E+04  0.15294330000E+03 0.  0.
    8880022    1    1    2    0    0  0.37865559047E+03 -0.21317479385E+03  0.47849904446E+03  0.66421121452E+03  0.15294330000E+03 0.  0.
<mgrwt>
<rscale>  0 0.46066821E+03</rscale>
<asrwt>0</asrwt>
<pdfrwt beam="1">  1        2 0.29812652E+00 0.46066821E+03</pdfrwt>
<pdfrwt beam="2">  1       -2 0.20258709E-01 0.46066821E+03</pdfrwt>
<totfact> 0.15982625E+02</totfact>
</mgrwt>
</event>
<event>
 4    1  0.1033139E-008  0.9042226E+03  0.7818608E-02  0.9420318E-01
          2   -1    0    0  501    0  0.00000000000E+00  0.00000000000E+00  0.23328949112E+04  0.23328949112E+04  0.25500000000E-02 0. -1.
         -2   -1    0    0    0  501 -0.00000000000E+00 -0.00000000000E+00 -0.40588038910E+03  0.40588038911E+03  0.25500000000E-02 0.  1.
    8880022    1    1    2    0    0 -0.76018078120E+03  0.46513654376E+03  0.14694579518E+04  0.17253768138E+04  0.15294330000E+03 0.  0.
    8880022    1    1    2    0    0  0.76018078120E+03 -0.46513654376E+03  0.45755657029E+03  0.10133984865E+04  0.15294330000E+03 0.  0.
<mgrwt>
<rscale>  0 0.90422258E+03</rscale>
<asrwt>0</asrwt>
<pdfrwt beam="1">  1        2 0.35890691E+00 0.90422258E+03</pdfrwt>
<pdfrwt beam="2">  1       -2 0.62443137E-01 0.90422258E+03</pdfrwt>
<totfact> 0.10545657E+01</totfact>
</mgrwt>
</event>
<event>
 4    1  0.1033139E-008  0.8492029E+03  0.7818608E-02  0.9491407E-01
          2   -1    0    0  501    0  0.00000000000E+00  0.00000000000E+00  0.92349014768E+03  0.92349014768E+03  0.25500000000E-02 0. -1.
         -2   -1    0    0    0  501 -0.00000000000E+00 -0.00000000000E+00 -0.15479359120E+04  0.15479359120E+04  0.25500000000E-02 0.  1.
    8880022    1    1    2    0    0 -0.53741365941E+03 -0.63948458778E+03  0.55764117356E+03  0.10159278079E+04  0.15294330000E+03 0.  0.
    8880022    1    1    2    0    0  0.53741365941E+03  0.63948458778E+03 -0.11820869379E+04  0.14554982519E+04  0.15294330000E+03 0.  0.
<mgrwt>
<rscale>  0 0.84920294E+03</rscale>
<asrwt>0</asrwt>
<pdfrwt beam="1">  1        2 0.14207541E+00 0.84920294E+03</pdfrwt>
<pdfrwt beam="2">  1       -2 0.23814399E+00 0.84920294E+03</pdfrwt>
<totfact> 0.21832368E+00</totfact>
</mgrwt>
</event>
<event>
 4    1  0.1033139E-008  0.1891768E+03  0.7818608E-02  0.1159206E+00
         -2   -1    0    0    0  501 -0.00000000000E+00  0.00000000000E+00  0.35151332265E+03  0.35151332266E+03  0.25500000000E-02 0.  1.
          2   -1    0    0  501    0  0.00000000000E+00 -0.00000000000E+00 -0.65365401823E+03  0.65365401823E+03  0.25500000000E-02 0. -1.
    8880022    1    1    2    0    0  0.10754680479E+03 -0.28807978892E+02  0.31071722760E+03  0.36377611716E+03  0.15294330000E+03 0.  0.
    8880022    1    1    2    0    0 -0.10754680479E+03  0.28807978892E+02 -0.61285792318E+03  0.64139122374E+03  0.15294330000E+03 0. -1.
<mgrwt>
<rscale>  0 0.18917682E+03</rscale>
<asrwt>0</asrwt>
<pdfrwt beam="1">  1        2 0.10056216E+00 0.18917682E+03</pdfrwt>
<pdfrwt beam="2">  1       -2 0.54078973E-01 0.18917682E+03</pdfrwt>
<totfact> 0.15284801E+02</totfact>
</mgrwt>
</event>
<event>
 4    1  0.1033139E-008  0.8727781E+03  0.7818608E-02  0.9460265E-01
         -2   -1    0    0    0  501 -0.00000000000E+00  0.00000000000E+00  0.55851752902E+03  0.55851752903E+03  0.25500000000E-02 0.  1.
          2   -1    0    0  501    0  0.00000000000E+00 -0.00000000000E+00 -0.31453960351E+04  0.31453960351E+04  0.25500000000E-02 0. -1.
    8880022    1    1    2    0    0 -0.73936958514E+03  0.43781568204E+03 -0.26872059177E+04  0.28253879825E+04  0.15294330000E+03 0.  0.
    8880022    1    1    2    0    0  0.73936958514E+03 -0.43781568204E+03  0.10032741165E+03  0.87852558153E+03  0.15294330000E+03 0.  0.
<mgrwt>
<rscale>  0 0.87277810E+03</rscale>
<asrwt>0</asrwt>
<pdfrwt beam="1">  1        2 0.48390707E+00 0.87277810E+03</pdfrwt>
<pdfrwt beam="2">  1       -2 0.85925776E-01 0.87277810E+03</pdfrwt>
<totfact> 0.17317585E+00</totfact>
</mgrwt>
</event>
<event>
 4    1  0.1033139E-008  0.1809475E+04  0.7818608E-02  0.8701277E-01
         -2   -1    0    0    0  501 -0.00000000000E+00  0.00000000000E+00  0.16038038141E+04  0.16038038141E+04  0.25500000000E-02 0.  1.
          2   -1    0    0  501    0  0.00000000000E+00 -0.00000000000E+00 -0.25621953948E+04  0.25621953948E+04  0.25500000000E-02 0. -1.
    8880022    1    1    2    0    0 -0.14197704558E+04  0.11113325383E+04  0.45980510671E+03  0.18669816676E+04  0.15294330000E+03 0.  0.
    8880022    1    1    2    0    0  0.14197704558E+04 -0.11113325383E+04 -0.14181966874E+04  0.22990175413E+04  0.15294330000E+03 0.  0.
<mgrwt>
<rscale>  0 0.18094750E+04</rscale>
<asrwt>0</asrwt>
<pdfrwt beam="1">  1        2 0.39418390E+00 0.18094750E+04</pdfrwt>
<pdfrwt beam="2">  1       -2 0.24673905E+00 0.18094750E+04</pdfrwt>
<totfact> 0.19535372E-01</totfact>
</mgrwt>
</event>
<event>
 4    1  0.1033139E-008  0.4085223E+03  0.7818608E-02  0.1040868E+00
         -2   -1    0    0    0  501 -0.00000000000E+00  0.00000000000E+00  0.42523022143E+03  0.42523022144E+03  0.25500000000E-02 0.  1.
          2   -1    0    0  501    0  0.00000000000E+00 -0.00000000000E+00 -0.13945771880E+04  0.13945771880E+04  0.25500000000E-02 0. -1.
    8880022    1    1    2    0    0 -0.13635246266E+03 -0.35342157456E+03  0.28664025057E+03  0.49905219136E+03  0.15294330000E+03 0.  0.
    8880022    1    1    2    0    0  0.13635246266E+03  0.35342157456E+03 -0.12559872171E+04  0.13207552181E+04  0.15294330000E+03 0.  0.
<mgrwt>
<rscale>  0 0.40852228E+03</rscale>
<asrwt>0</asrwt>
<pdfrwt beam="1">  1        2 0.21455034E+00 0.40852228E+03</pdfrwt>
<pdfrwt beam="2">  1       -2 0.65420034E-01 0.40852228E+03</pdfrwt>
<totfact> 0.33704709E+01</totfact>
</mgrwt>
</event>
<event>
 4    1  0.1033139E-008  0.6966951E+03  0.7818608E-02  0.9722901E-01
         -2   -1    0    0    0  501 -0.00000000000E+00  0.00000000000E+00  0.10221187142E+04  0.10221187143E+04  0.25500000000E-02 0.  1.
          2   -1    0    0  501    0  0.00000000000E+00 -0.00000000000E+00 -0.34944340210E+04  0.34944340210E+04  0.25500000000E-02 0. -1.
    8880022    1    1    2    0    0 -0.27788952726E+03 -0.62029818620E+03  0.86307244578E+03  0.11091790337E+04  0.15294330000E+03 0.  0.
    8880022    1    1    2    0    0  0.27788952726E+03  0.62029818620E+03 -0.33353877525E+04  0.34073737015E+04  0.15294330000E+03 0. -1.
<mgrwt>
<rscale>  0 0.69669511E+03</rscale>
<asrwt>0</asrwt>
<pdfrwt beam="1">  1        2 0.53760523E+00 0.69669511E+03</pdfrwt>
<pdfrwt beam="2">  1       -2 0.15724903E+00 0.69669511E+03</pdfrwt>
<totfact> 0.23991080E-01</totfact>
</mgrwt>
</event>
<event>
 4    1  0.1033139E-008  0.4498036E+03  0.7818608E-02  0.1027781E+00
          2   -1    0    0  501    0  0.00000000000E+00  0.00000000000E+00  0.11402873487E+04  0.11402873487E+04  0.25500000000E-02 0. -1.
         -2   -1    0    0    0  501 -0.00000000000E+00 -0.00000000000E+00 -0.70341513844E+03  0.70341513845E+03  0.25500000000E-02 0.  1.
    8880022    1    1    2    0    0 -0.40935213390E+03  0.10659486057E+03  0.10155877858E+04  0.11107393202E+04  0.15294330000E+03 0.  0.
    8880022    1    1    2    0    0  0.40935213390E+03 -0.10659486057E+03 -0.57871557548E+03  0.73296316698E+03  0.15294330000E+03 0.  0.
<mgrwt>
<rscale>  0 0.44980361E+03</rscale>
<asrwt>0</asrwt>
<pdfrwt beam="1">  1        2 0.17542882E+00 0.44980361E+03</pdfrwt>
<pdfrwt beam="2">  1       -2 0.10821772E+00 0.44980361E+03</pdfrwt>
<totfact> 0.14987456E+01</totfact>
</mgrwt>
</event>
<event>
 4    1  0.1033139E-008  0.2619966E+03  0.7818608E-02  0.1105950E+00
         -2   -1    0    0    0  501 -0.00000000000E+00  0.00000000000E+00  0.15311167153E+04  0.15311167153E+04  0.25500000000E-02 0.  1.
          2   -1    0    0  501    0  0.00000000000E+00 -0.00000000000E+00 -0.54609540751E+03  0.54609540751E+03  0.25500000000E-02 0. -1.
    8880022    1    1    2    0    0  0.94118663145E+02 -0.19076744698E+03  0.14875719324E+04  0.15104676258E+04  0.15294330000E+03 0.  0.
    8880022    1    1    2    0    0 -0.94118663145E+02  0.19076744698E+03 -0.50255062460E+03  0.56674449700E+03  0.15294330000E+03 0. -1.
<mgrwt>
<rscale>  0 0.26199655E+03</rscale>
<asrwt>0</asrwt>
<pdfrwt beam="1">  1        2 0.84014677E-01 0.26199655E+03</pdfrwt>
<pdfrwt beam="2">  1       -2 0.23555642E+00 0.26199655E+03</pdfrwt>
<totfact> 0.49948792E+00</totfact>
</mgrwt>
</event>
<event>
 4    1  0.1033139E-008  0.1594471E+04  0.7818608E-02  0.8823952E-01
         -2   -1    0    0    0  501 -0.00000000000E+00  0.00000000000E+00  0.17183992056E+04  0.17183992056E+04  0.25500000000E-02 0.  1.
          2   -1    0    0  501    0  0.00000000000E+00 -0.00000000000E+00 -0.19607652286E+04  0.19607652286E+04  0.25500000000E-02 0. -1.
    8880022    1    1    2    0    0  0.15528074133E+04  0.32823044073E+03  0.79021388281E+03  0.17795436827E+04  0.15294330000E+03 0.  0.
    8880022    1    1    2    0    0 -0.15528074133E+04 -0.32823044073E+03 -0.10325799058E+04  0.18996207516E+04  0.15294330000E+03 0.  0.
<mgrwt>
<rscale>  0 0.15944710E+04</rscale>
<asrwt>0</asrwt>
<pdfrwt beam="1">  1        2 0.30165619E+00 0.15944710E+04</pdfrwt>
<pdfrwt beam="2">  1       -2 0.26436911E+00 0.15944710E+04</pdfrwt>
<totfact> 0.34208615E-01</totfact>
</mgrwt>
</event>
<event>
 4    1  0.1033139E-008  0.5423663E+03  0.7818608E-02  0.1003276E+00
          2   -1    0    0  501    0  0.00000000000E+00  0.00000000000E+00  0.66946907684E+03  0.66946907684E+03  0.25500000000E-02 0. -1.
         -2   -1    0    0    0  501 -0.00000000000E+00 -0.00000000000E+00 -0.89159983521E+03  0.89159983522E+03  0.25500000000E-02 0.  1.
    8880022    1    1    2    0    0 -0.51847316429E+03  0.44217047996E+02 -0.66693737170E+03  0.85963171195E+03  0.15294330000E+03 0.  0.
    8880022    1    1    2    0    0  0.51847316429E+03 -0.44217047996E+02  0.44480661332E+03  0.70143720010E+03  0.15294330000E+03 0.  0.
<mgrwt>
<rscale>  0 0.54236632E+03</rscale>
<asrwt>0</asrwt>
<pdfrwt beam="1">  1        2 0.10299524E+00 0.54236632E+03</pdfrwt>
<pdfrwt beam="2">  1       -2 0.13716921E+00 0.54236632E+03</pdfrwt>
<totfact> 0.17042379E+01</totfact>
</mgrwt>
</event>
<event>
 4    1  0.1033139E-008  0.4600489E+03  0.7818608E-02  0.1024767E+00
          2   -1    0    0  501    0  0.00000000000E+00  0.00000000000E+00  0.29094098010E+04  0.29094098010E+04  0.25500000000E-02 0. -1.
         -2   -1    0    0    0  501 -0.00000000000E+00 -0.00000000000E+00 -0.41168115752E+03  0.41168115753E+03  0.25500000000E-02 0.  1.
    8880022    1    1    2    0    0 -0.27846808347E+03 -0.33272935761E+03 -0.25784419981E+03  0.52737897505E+03  0.15294330000E+03 0.  1.
    8880022    1    1    2    0    0  0.27846808347E+03  0.33272935761E+03  0.27555728433E+04  0.27937119834E+04  0.15294330000E+03 0.  0.
<mgrwt>
<rscale>  0 0.46004886E+03</rscale>
<asrwt>0</asrwt>
<pdfrwt beam="1">  1        2 0.44760151E+00 0.46004886E+03</pdfrwt>
<pdfrwt beam="2">  1       -2 0.63335563E-01 0.46004886E+03</pdfrwt>
<totfact> 0.52237018E+00</totfact>
</mgrwt>
</event>
<event>
 4    1  0.1033139E-008  0.6288268E+03  0.7818608E-02  0.9847341E-01
         -2   -1    0    0    0  501 -0.00000000000E+00  0.00000000000E+00  0.32823478899E+03  0.32823478900E+03  0.25500000000E-02 0.  1.
          2   -1    0    0  501    0  0.00000000000E+00 -0.00000000000E+00 -0.18953034916E+04  0.18953034916E+04  0.25500000000E-02 0. -1.
    8880022    1    1    2    0    0 -0.39841568491E+02 -0.60864122839E+03 -0.11242874689E+03  0.63879838104E+03  0.15294330000E+03 0.  0.
    8880022    1    1    2    0    0  0.39841568491E+02  0.60864122839E+03 -0.14546399557E+04  0.15847398995E+04  0.15294330000E+03 0.  0.
<mgrwt>
<rscale>  0 0.62882680E+03</rscale>
<asrwt>0</asrwt>
<pdfrwt beam="1">  1        2 0.29158515E+00 0.62882680E+03</pdfrwt>
<pdfrwt beam="2">  1       -2 0.50497661E-01 0.62882680E+03</pdfrwt>
<totfact> 0.29693513E+01</totfact>
</mgrwt>
</event>
<event>
 4    1  0.1033139E-008  0.4811376E+03  0.7818608E-02  0.1018823E+00
          2   -1    0    0  501    0  0.00000000000E+00  0.00000000000E+00  0.11772657482E+04  0.11772657482E+04  0.25500000000E-02 0. -1.
         -2   -1    0    0    0  501 -0.00000000000E+00 -0.00000000000E+00 -0.11229913026E+04  0.11229913026E+04  0.25500000000E-02 0.  1.
    8880022    1    1    2    0    0 -0.25379439871E+03  0.37906479461E+03 -0.10174551893E+04  0.11254814217E+04  0.15294330000E+03 0.  0.
    8880022    1    1    2    0    0  0.25379439871E+03 -0.37906479461E+03  0.10717296349E+04  0.11747756291E+04  0.15294330000E+03 0.  0.
<mgrwt>
<rscale>  0 0.48113758E+03</rscale>
<asrwt>0</asrwt>
<pdfrwt beam="1">  1        2 0.18111781E+00 0.48113758E+03</pdfrwt>
<pdfrwt beam="2">  1       -2 0.17276789E+00 0.48113758E+03</pdfrwt>
<totfact> 0.42799559E+00</totfact>
</mgrwt>
</event>
<event>
 4    1  0.1033139E-008  0.1391460E+04  0.7818608E-02  0.8960023E-01
          2   -1    0    0  501    0  0.00000000000E+00  0.00000000000E+00  0.26271006866E+04  0.26271006866E+04  0.25500000000E-02 0. -1.
         -2   -1    0    0    0  501 -0.00000000000E+00 -0.00000000000E+00 -0.14670246256E+04  0.14670246256E+04  0.25500000000E-02 0.  1.
    8880022    1    1    2    0    0  0.13540534220E+04  0.28161903371E+03  0.20240889338E+04  0.24562364737E+04  0.15294330000E+03 0.  0.
    8880022    1    1    2    0    0 -0.13540534220E+04 -0.28161903371E+03 -0.86401287288E+03  0.16378888385E+04  0.15294330000E+03 0.  0.
<mgrwt>
<rscale>  0 0.13914602E+04</rscale>
<asrwt>0</asrwt>
<pdfrwt beam="1">  1        2 0.40416933E+00 0.13914602E+04</pdfrwt>
<pdfrwt beam="2">  1       -2 0.22569610E+00 0.13914602E+04</pdfrwt>
<totfact> 0.25402140E-01</totfact>
</mgrwt>
</event>
<event>
 4    1  0.1033139E-008  0.8288043E+03  0.7818608E-02  0.9519235E-01
         -2   -1    0    0    0  501 -0.00000000000E+00  0.00000000000E+00  0.54342240999E+03  0.54342241000E+03  0.25500000000E-02 0.  1.
          2   -1    0    0  501    0  0.00000000000E+00 -0.00000000000E+00 -0.16624070384E+04  0.16624070384E+04  0.25500000000E-02 0. -1.
    8880022    1    1    2    0    0  0.78191290701E+03 -0.22833558122E+03 -0.19601424126E+02  0.82903606715E+03  0.15294330000E+03 0.  0.
    8880022    1    1    2    0    0 -0.78191290701E+03  0.22833558122E+03 -0.10993832043E+04  0.13767933813E+04  0.15294330000E+03 0.  0.
<mgrwt>
<rscale>  0 0.82880431E+03</rscale>
<asrwt>0</asrwt>
<pdfrwt beam="1">  1        2 0.25575493E+00 0.82880431E+03</pdfrwt>
<pdfrwt beam="2">  1       -2 0.83603449E-01 0.82880431E+03</pdfrwt>
<totfact> 0.13097987E+01</totfact>
</mgrwt>
</event>
<event>
 4    1  0.1033139E-008  0.8082385E+03  0.7818608E-02  0.9548168E-01
         -2   -1    0    0    0  501 -0.00000000000E+00  0.00000000000E+00  0.63504891635E+03  0.63504891636E+03  0.25500000000E-02 0.  1.
          2   -1    0    0  501    0  0.00000000000E+00 -0.00000000000E+00 -0.14395720741E+04  0.14395720741E+04  0.25500000000E-02 0. -1.
    8880022    1    1    2    0    0 -0.74388472352E+03 -0.27657438013E+03  0.15193830421E+03  0.82239575080E+03  0.15294330000E+03 0.  0.
    8880022    1    1    2    0    0  0.74388472352E+03  0.27657438013E+03 -0.95646146200E+03  0.12522252397E+04  0.15294330000E+03 0.  0.
<mgrwt>
<rscale>  0 0.80823853E+03</rscale>
<asrwt>0</asrwt>
<pdfrwt beam="1">  1        2 0.22147263E+00 0.80823853E+03</pdfrwt>
<pdfrwt beam="2">  1       -2 0.97699833E-01 0.80823853E+03</pdfrwt>
<totfact> 0.12179354E+01</totfact>
</mgrwt>
</event>
<event>
 4    1  0.1033139E-008  0.1581910E+04  0.7818608E-02  0.8831739E-01
         -2   -1    0    0    0  501 -0.00000000000E+00  0.00000000000E+00  0.11980689681E+04  0.11980689681E+04  0.25500000000E-02 0.  1.
          2   -1    0    0  501    0  0.00000000000E+00 -0.00000000000E+00 -0.26607763091E+04  0.26607763091E+04  0.25500000000E-02 0. -1.
    8880022    1    1    2    0    0 -0.99332139663E+03 -0.12216222706E+04 -0.16259757177E+04  0.22685319166E+04  0.15294330000E+03 0.  0.
    8880022    1    1    2    0    0  0.99332139663E+03  0.12216222706E+04  0.16326837666E+03  0.15903133606E+04  0.15294330000E+03 0.  0.
<mgrwt>
<rscale>  0 0.15819102E+04</rscale>
<asrwt>0</asrwt>
<pdfrwt beam="1">  1        2 0.40935020E+00 0.15819102E+04</pdfrwt>
<pdfrwt beam="2">  1       -2 0.18431830E+00 0.15819102E+04</pdfrwt>
<totfact> 0.44283446E-01</totfact>
</mgrwt>
</event>
<event>
 4    1  0.1033139E-008  0.5622403E+03  0.7818608E-02  0.9986998E-01
         -2   -1    0    0    0  501 -0.00000000000E+00  0.00000000000E+00  0.18129383292E+03  0.18129383294E+03  0.25500000000E-02 0.  1.
          2   -1    0    0  501    0  0.00000000000E+00 -0.00000000000E+00 -0.32946630148E+04  0.32946630148E+04  0.25500000000E-02 0. -1.
    8880022    1    1    2    0    0 -0.54093429045E+03  0.10608597887E+02 -0.27491498739E+04  0.28060540143E+04  0.15294330000E+03 0.  0.
    8880022    1    1    2    0    0  0.54093429045E+03 -0.10608597887E+02 -0.36421930795E+03  0.66990283342E+03  0.15294330000E+03 0.  0.
<mgrwt>
<rscale>  0 0.56224025E+03</rscale>
<asrwt>0</asrwt>
<pdfrwt beam="1">  1        2 0.50687119E+00 0.56224025E+03</pdfrwt>
<pdfrwt beam="2">  1       -2 0.27891361E-01 0.56224025E+03</pdfrwt>
<totfact> 0.14673190E+01</totfact>
</mgrwt>
</event>
<event>
 4    1  0.1033139E-008  0.6670808E+03  0.7818608E-02  0.9775246E-01
         -2   -1    0    0    0  501 -0.00000000000E+00  0.00000000000E+00  0.11323664705E+04  0.11323664705E+04  0.25500000000E-02 0.  1.
          2   -1    0    0  501    0  0.00000000000E+00 -0.00000000000E+00 -0.31472452760E+04  0.31472452760E+04  0.25500000000E-02 0. -1.
    8880022    1    1    2    0    0 -0.20748197259E+03 -0.61526930812E+03  0.99432060058E+03  0.11973596787E+04  0.15294330000E+03 0.  0.
    8880022    1    1    2    0    0  0.20748197259E+03  0.61526930812E+03 -0.30091994061E+04  0.30822520678E+04  0.15294330000E+03 0.  0.
<mgrwt>
<rscale>  0 0.66708076E+03</rscale>
<asrwt>0</asrwt>
<pdfrwt beam="1">  1        2 0.48419158E+00 0.66708076E+03</pdfrwt>
<pdfrwt beam="2">  1       -2 0.17421023E+00 0.66708076E+03</pdfrwt>
<totfact> 0.30796589E-01</totfact>
</mgrwt>
</event>
<event>
 4    1  0.1033139E-008  0.9260167E+03  0.7818608E-02  0.9393631E-01
          2   -1    0    0  501    0  0.00000000000E+00  0.00000000000E+00  0.19422421666E+04  0.19422421666E+04  0.25500000000E-02 0. -1.
         -2   -1    0    0    0  501 -0.00000000000E+00 -0.00000000000E+00 -0.66909179312E+03  0.66909179313E+03  0.25500000000E-02 0.  1.
    8880022    1    1    2    0    0 -0.27926280472E+03 -0.86955597292E+03 -0.12491517291E+03  0.93440395846E+03  0.15294330000E+03 0.  0.
    8880022    1    1    2    0    0  0.27926280472E+03  0.86955597292E+03  0.13980655464E+04  0.16769300013E+04  0.15294330000E+03 0.  0.
<mgrwt>
<rscale>  0 0.92601672E+03</rscale>
<asrwt>0</asrwt>
<pdfrwt beam="1">  1        2 0.29880648E+00 0.92601672E+03</pdfrwt>
<pdfrwt beam="2">  1       -2 0.10293720E+00 0.92601672E+03</pdfrwt>
<totfact> 0.55944078E+00</totfact>
</mgrwt>
</event>
<event>
 4    1  0.1033139E-008  0.4774566E+03  0.7818608E-02  0.1019837E+00
         -2   -1    0    0    0  501 -0.00000000000E+00  0.00000000000E+00  0.22105627609E+04  0.22105627609E+04  0.25500000000E-02 0.  1.
          2   -1    0    0  501    0  0.00000000000E+00 -0.00000000000E+00 -0.23867841208E+03  0.23867841209E+03  0.25500000000E-02 0. -1.
    8880022    1    1    2    0    0  0.49569501373E+02 -0.44957313204E+03  0.19088319765E+04  0.19676392719E+04  0.15294330000E+03 0.  0.
    8880022    1    1    2    0    0 -0.49569501373E+02  0.44957313204E+03  0.63052372299E+02  0.48160190114E+03  0.15294330000E+03 0.  0.
<mgrwt>
<rscale>  0 0.47745658E+03</rscale>
<asrwt>0</asrwt>
<pdfrwt beam="1">  1        2 0.36719757E-01 0.47745658E+03</pdfrwt>
<pdfrwt beam="2">  1       -2 0.34008657E+00 0.47745658E+03</pdfrwt>
<totfact> 0.28066317E+00</totfact>
</mgrwt>
</event>
<event>
 4    1  0.1033139E-008  0.6118431E+03  0.7818608E-02  0.9881135E-01
          2   -1    0    0  501    0  0.00000000000E+00  0.00000000000E+00  0.96622836547E+03  0.96622836547E+03  0.25500000000E-02 0. -1.
         -2   -1    0    0    0  501 -0.00000000000E+00 -0.00000000000E+00 -0.87501058420E+03  0.87501058420E+03  0.25500000000E-02 0.  1.
    8880022    1    1    2    0    0  0.45479654585E+03  0.37963200312E+03  0.73282585229E+03  0.95466524956E+03  0.15294330000E+03 0.  0.
    8880022    1    1    2    0    0 -0.45479654585E+03 -0.37963200312E+03 -0.64160807103E+03  0.88657370011E+03  0.15294330000E+03 0.  0.
<mgrwt>
<rscale>  0 0.61184312E+03</rscale>
<asrwt>0</asrwt>
<pdfrwt beam="1">  1        2 0.14865052E+00 0.61184312E+03</pdfrwt>
<pdfrwt beam="2">  1       -2 0.13461701E+00 0.61184312E+03</pdfrwt>
<totfact> 0.10900656E+01</totfact>
</mgrwt>
</event>
<event>
 4    1  0.1033139E-008  0.3719390E+03  0.7818608E-02  0.1053954E+00
         -2   -1    0    0    0  501 -0.00000000000E+00  0.00000000000E+00  0.75296665774E+03  0.75296665774E+03  0.25500000000E-02 0.  1.
          2   -1    0    0  501    0  0.00000000000E+00 -0.00000000000E+00 -0.19768458711E+04  0.19768458711E+04  0.25500000000E-02 0. -1.
    8880022    1    1    2    0    0 -0.28005245454E+03 -0.19109568848E+03 -0.19118734125E+04  0.19477162365E+04  0.15294330000E+03 0. -1.
    8880022    1    1    2    0    0  0.28005245454E+03  0.19109568848E+03  0.68799419914E+03  0.78209629235E+03  0.15294330000E+03 0.  0.
<mgrwt>
<rscale>  0 0.37193896E+03</rscale>
<asrwt>0</asrwt>
<pdfrwt beam="1">  1        2 0.30413013E+00 0.37193896E+03</pdfrwt>
<pdfrwt beam="2">  1       -2 0.11584103E+00 0.37193896E+03</pdfrwt>
<totfact> 0.45193362E+00</totfact>
</mgrwt>
</event>
<event>
 4    1  0.1033139E-008  0.2936373E+03  0.7818608E-02  0.1088465E+00
         -2   -1    0    0    0  501 -0.00000000000E+00  0.00000000000E+00  0.52485348932E+03  0.52485348932E+03  0.25500000000E-02 0.  1.
          2   -1    0    0  501    0  0.00000000000E+00 -0.00000000000E+00 -0.19169196206E+03  0.19169196208E+03  0.25500000000E-02 0. -1.
    8880022    1    1    2    0    0  0.12035864960E+03  0.21987499979E+03  0.31098409203E+02  0.29527950172E+03  0.15294330000E+03 0.  0.
    8880022    1    1    2    0    0 -0.12035864960E+03 -0.21987499979E+03  0.30206311805E+03  0.42126594969E+03  0.15294330000E+03 0.  0.
<mgrwt>
<rscale>  0 0.29363732E+03</rscale>
<asrwt>0</asrwt>
<pdfrwt beam="1">  1        2 0.29491072E-01 0.29363732E+03</pdfrwt>
<pdfrwt beam="2">  1       -2 0.80746690E-01 0.29363732E+03</pdfrwt>
<totfact> 0.25051851E+02</totfact>
</mgrwt>
</event>
<event>
 4    1  0.1033139E-008  0.9778011E+03  0.7818608E-02  0.9333233E-01
          2   -1    0    0  501    0  0.00000000000E+00  0.00000000000E+00  0.78552315371E+03  0.78552315371E+03  0.25500000000E-02 0. -1.
         -2   -1    0    0    0  501 -0.00000000000E+00 -0.00000000000E+00 -0.17146738019E+04  0.17146738019E+04  0.25500000000E-02 0.  1.
    8880022    1    1    2    0    0  0.43834732681E+03 -0.86055503391E+03  0.20880885142E+03  0.99984805583E+03  0.15294330000E+03 0.  0.
    8880022    1    1    2    0    0 -0.43834732681E+03  0.86055503391E+03 -0.11379594996E+04  0.15003488998E+04  0.15294330000E+03 0.  0.
<mgrwt>
<rscale>  0 0.97780110E+03</rscale>
<asrwt>0</asrwt>
<pdfrwt beam="1">  1        2 0.12084972E+00 0.97780110E+03</pdfrwt>
<pdfrwt beam="2">  1       -2 0.26379597E+00 0.97780110E+03</pdfrwt>
<totfact> 0.18704364E+00</totfact>
</mgrwt>
</event>
<event>
 4    1  0.1033139E-008  0.4985760E+03  0.7818608E-02  0.1014151E+00
         -2   -1    0    0    0  501 -0.00000000000E+00  0.00000000000E+00  0.42556049955E+03  0.42556049956E+03  0.25500000000E-02 0.  1.
          2   -1    0    0  501    0  0.00000000000E+00 -0.00000000000E+00 -0.18197926578E+04  0.18197926578E+04  0.25500000000E-02 0. -1.
    8880022    1    1    2    0    0  0.14653980079E+03 -0.45134517334E+03  0.22799861336E+03  0.54823480319E+03  0.15294330000E+03 0.  0.
    8880022    1    1    2    0    0 -0.14653980079E+03  0.45134517334E+03 -0.16222307716E+04  0.16971183542E+04  0.15294330000E+03 0.  0.
<mgrwt>
<rscale>  0 0.49857600E+03</rscale>
<asrwt>0</asrwt>
<pdfrwt beam="1">  1        2 0.27996810E+00 0.49857600E+03</pdfrwt>
<pdfrwt beam="2">  1       -2 0.65470847E-01 0.49857600E+03</pdfrwt>
<totfact> 0.19419517E+01</totfact>
</mgrwt>
</event>
<event>
 4    1  0.1033139E-008  0.1362440E+04  0.7818608E-02  0.8981464E-01
          2   -1    0    0  501    0  0.00000000000E+00  0.00000000000E+00  0.35332653061E+04  0.35332653061E+04  0.25500000000E-02 0. -1.
         -2   -1    0    0    0  501 -0.00000000000E+00 -0.00000000000E+00 -0.68140292256E+03  0.68140292256E+03  0.25500000000E-02 0.  1.
    8880022    1    1    2    0    0 -0.48000972623E+03  0.12658759121E+04  0.24343730367E+04  0.27896979939E+04  0.15294330000E+03 0.  0.
    8880022    1    1    2    0    0  0.48000972623E+03 -0.12658759121E+04  0.41748934681E+03  0.14249702348E+04  0.15294330000E+03 0.  0.
<mgrwt>
<rscale>  0 0.13624400E+04</rscale>
<asrwt>0</asrwt>
<pdfrwt beam="1">  1        2 0.54357927E+00 0.13624400E+04</pdfrwt>
<pdfrwt beam="2">  1       -2 0.10483122E+00 0.13624400E+04</pdfrwt>
<totfact> 0.55599406E-01</totfact>
</mgrwt>
</event>
<event>
 4    1  0.1033139E-008  0.9675925E+03  0.7818608E-02  0.9344821E-01
         -2   -1    0    0    0  501 -0.00000000000E+00  0.00000000000E+00  0.53934267598E+03  0.53934267598E+03  0.25500000000E-02 0.  1.
          2   -1    0    0  501    0  0.00000000000E+00 -0.00000000000E+00 -0.33919766445E+04  0.33919766445E+04  0.25500000000E-02 0. -1.
    8880022    1    1    2    0    0  0.40010556884E+03 -0.86761694874E+03 -0.27998037011E+04  0.29622856131E+04  0.15294330000E+03 0.  0.
    8880022    1    1    2    0    0 -0.40010556884E+03  0.86761694874E+03 -0.52830267490E+02  0.96903370744E+03  0.15294330000E+03 0.  0.
<mgrwt>
<rscale>  0 0.96759252E+03</rscale>
<asrwt>0</asrwt>
<pdfrwt beam="1">  1        2 0.52184255E+00 0.96759252E+03</pdfrwt>
<pdfrwt beam="2">  1       -2 0.82975798E-01 0.96759252E+03</pdfrwt>
<totfact> 0.12748865E+00</totfact>
</mgrwt>
</event>
<event>
 4    1  0.1049931E-008  0.8110320E+03  0.7818608E-02  0.9544185E-01
         -2   -1    0    0    0  501 -0.00000000000E+00  0.00000000000E+00  0.13686808098E+04  0.13686808098E+04  0.25500000000E-02 0.  1.
          2   -1    0    0  501    0  0.00000000000E+00 -0.00000000000E+00 -0.17752644755E+04  0.17752644755E+04  0.25500000000E-02 0. -1.
    8880022    1    1    2    0    0  0.18107389851E+03  0.77562460225E+03  0.11391451687E+04  0.13983649912E+04  0.15294330000E+03 0.  0.
    8880022    1    1    2    0    0 -0.18107389851E+03 -0.77562460225E+03 -0.15457288344E+04  0.17455802940E+04  0.15294330000E+03 0.  0.
<mgrwt>
<rscale>  0 0.81103202E+03</rscale>
<asrwt>0</asrwt>
<pdfrwt beam="1">  1        2 0.27311761E+00 0.81103202E+03</pdfrwt>
<pdfrwt beam="2">  1       -2 0.21056628E+00 0.81103202E+03</pdfrwt>
<totfact> 0.10396632E+00</totfact>
</mgrwt>
</event>
<event>
 4    1  0.1033139E-008  0.3044138E+03  0.7818608E-02  0.1083055E+00
          2   -1    0    0  501    0  0.00000000000E+00  0.00000000000E+00  0.20079447438E+04  0.20079447438E+04  0.25500000000E-02 0. -1.
         -2   -1    0    0    0  501 -0.00000000000E+00 -0.00000000000E+00 -0.22980426323E+03  0.22980426325E+03  0.25500000000E-02 0.  1.
    8880022    1    1    2    0    0 -0.86681193969E+02 -0.24852060580E+03 -0.11116507027E+03  0.32407629774E+03  0.15294330000E+03 0.  0.
    8880022    1    1    2    0    0  0.86681193969E+02  0.24852060580E+03  0.18893055509E+04  0.19136727093E+04  0.15294330000E+03 0.  0.
<mgrwt>
<rscale>  0 0.30441382E+03</rscale>
<asrwt>0</asrwt>
<pdfrwt beam="1">  1        2 0.30891459E+00 0.30441382E+03</pdfrwt>
<pdfrwt beam="2">  1       -2 0.35354501E-01 0.30441382E+03</pdfrwt>
<totfact> 0.55544579E+01</totfact>
</mgrwt>
</event>
<event>
 4    1  0.1033139E-008  0.5607276E+03  0.7818608E-02  0.9990410E-01
          2   -1    0    0  501    0  0.00000000000E+00  0.00000000000E+00  0.15654248564E+04  0.15654248564E+04  0.25500000000E-02 0. -1.
         -2   -1    0    0    0  501 -0.00000000000E+00 -0.00000000000E+00 -0.43691761841E+03  0.43691761842E+03  0.25500000000E-02 0.  1.
    8880022    1    1    2    0    0  0.29692383110E+03  0.45039986887E+03  0.13001672866E+04  0.14159274097E+04  0.15294330000E+03 0.  0.
    8880022    1    1    2    0    0 -0.29692383110E+03 -0.45039986887E+03 -0.17166004858E+03  0.58641506516E+03  0.15294330000E+03 0.  0.
<mgrwt>
<rscale>  0 0.56072761E+03</rscale>
<asrwt>0</asrwt>
<pdfrwt beam="1">  1        2 0.24083459E+00 0.56072761E+03</pdfrwt>
<pdfrwt beam="2">  1       -2 0.67218096E-01 0.56072761E+03</pdfrwt>
<totfact> 0.24916976E+01</totfact>
</mgrwt>
</event>
<event>
 4    1  0.1033139E-008  0.8187391E+03  0.7818608E-02  0.9533282E-01
          2   -1    0    0  501    0  0.00000000000E+00  0.00000000000E+00  0.34790210438E+04  0.34790210438E+04  0.25500000000E-02 0. -1.
         -2   -1    0    0    0  501 -0.00000000000E+00 -0.00000000000E+00 -0.42558994227E+03  0.42558994228E+03  0.25500000000E-02 0.  1.
    8880022    1    1    2    0    0 -0.70313988575E+03  0.39055908104E+03  0.82449538133E+02  0.82288010917E+03  0.15294330000E+03 0.  0.
    8880022    1    1    2    0    0  0.70313988575E+03 -0.39055908104E+03  0.29709815634E+04  0.30817308769E+04  0.15294330000E+03 0.  0.
<mgrwt>
<rscale>  0 0.81873912E+03</rscale>
<asrwt>0</asrwt>
<pdfrwt beam="1">  1        2 0.53523403E+00 0.81873912E+03</pdfrwt>
<pdfrwt beam="2">  1       -2 0.65475373E-01 0.81873912E+03</pdfrwt>
<totfact> 0.19350135E+00</totfact>
</mgrwt>
</event>
<event>
 4    1  0.1033139E-008  0.1382679E+04  0.7818608E-02  0.8966452E-01
          2   -1    0    0  501    0  0.00000000000E+00  0.00000000000E+00  0.20078569650E+04  0.20078569650E+04  0.25500000000E-02 0. -1.
         -2   -1    0    0    0  501 -0.00000000000E+00 -0.00000000000E+00 -0.10197839288E+04  0.10197839288E+04  0.25500000000E-02 0.  1.
    8880022    1    1    2    0    0 -0.13294707805E+04  0.34773261021E+03  0.10421236702E+03  0.13866010222E+04  0.15294330000E+03 0.  0.
    8880022    1    1    2    0    0  0.13294707805E+04 -0.34773261021E+03  0.88386066926E+03  0.16410398716E+04  0.15294330000E+03 0.  0.
<mgrwt>
<rscale>  0 0.13826793E+04</rscale>
<asrwt>0</asrwt>
<pdfrwt beam="1">  1        2 0.30890107E+00 0.13826793E+04</pdfrwt>
<pdfrwt beam="2">  1       -2 0.15688984E+00 0.13826793E+04</pdfrwt>
<totfact> 0.16768612E+00</totfact>
</mgrwt>
</event>
<event>
 4    1  0.1033139E-008  0.1188662E+04  0.7818608E-02  0.9122839E-01
          2   -1    0    0  501    0  0.00000000000E+00  0.00000000000E+00  0.17786286419E+04  0.17786286419E+04  0.25500000000E-02 0. -1.
         -2   -1    0    0    0  501 -0.00000000000E+00 -0.00000000000E+00 -0.94921279863E+03  0.94921279864E+03  0.25500000000E-02 0.  1.
    8880022    1    1    2    0    0 -0.11596399278E+04  0.21156795495E+03  0.96555445461E+03  0.15314087696E+04  0.15294330000E+03 0.  0.
    8880022    1    1    2    0    0  0.11596399278E+04 -0.21156795495E+03 -0.13613861131E+03  0.11964326710E+04  0.15294330000E+03 0.  0.
<mgrwt>
<rscale>  0 0.11886620E+04</rscale>
<asrwt>0</asrwt>
<pdfrwt beam="1">  1        2 0.27363517E+00 0.11886620E+04</pdfrwt>
<pdfrwt beam="2">  1       -2 0.14603274E+00 0.11886620E+04</pdfrwt>
<totfact> 0.27774263E+00</totfact>
</mgrwt>
</event>
<event>
 4    1  0.1033139E-008  0.7947705E+03  0.7818608E-02  0.9567618E-01
         -2   -1    0    0    0  501 -0.00000000000E+00  0.00000000000E+00  0.10103957396E+04  0.10103957396E+04  0.25500000000E-02 0.  1.
          2   -1    0    0  501    0  0.00000000000E+00 -0.00000000000E+00 -0.14135523812E+04  0.14135523813E+04  0.25500000000E-02 0. -1.
    8880022    1    1    2    0    0  0.62930940686E+03 -0.46069314641E+03  0.70354606437E+03  0.10614316852E+04  0.15294330000E+03 0.  0.
    8880022    1    1    2    0    0 -0.62930940686E+03  0.46069314641E+03 -0.11067027060E+04  0.13625164356E+04  0.15294330000E+03 0.  0.
<mgrwt>
<rscale>  0 0.79477051E+03</rscale>
<asrwt>0</asrwt>
<pdfrwt beam="1">  1        2 0.21746960E+00 0.79477051E+03</pdfrwt>
<pdfrwt beam="2">  1       -2 0.15544550E+00 0.79477051E+03</pdfrwt>
<totfact> 0.39439934E+00</totfact>
</mgrwt>
</event>
<event>
 4    1  0.1033139E-008  0.5361339E+03  0.7818608E-02  0.1004755E+00
          2   -1    0    0  501    0  0.00000000000E+00  0.00000000000E+00  0.32348487124E+04  0.32348487124E+04  0.25500000000E-02 0. -1.
         -2   -1    0    0    0  501 -0.00000000000E+00 -0.00000000000E+00 -0.24937612597E+03  0.24937612599E+03  0.25500000000E-02 0.  1.
    8880022    1    1    2    0    0 -0.44501417399E+03 -0.25692469324E+03  0.28904295702E+04  0.29397317337E+04  0.15294330000E+03 0.  0.
    8880022    1    1    2    0    0  0.44501417399E+03  0.25692469324E+03  0.95043016204E+02  0.54449310463E+03  0.15294330000E+03 0.  0.
<mgrwt>
<rscale>  0 0.53613391E+03</rscale>
<asrwt>0</asrwt>
<pdfrwt beam="1">  1        2 0.49766907E+00 0.53613391E+03</pdfrwt>
<pdfrwt beam="2">  1       -2 0.38365555E-01 0.53613391E+03</pdfrwt>
<totfact> 0.88759624E+00</totfact>
</mgrwt>
</event>
<event>
 4    1  0.1033139E-008  0.9033734E+03  0.7818608E-02  0.9421374E-01
         -2   -1    0    0    0  501 -0.00000000000E+00  0.00000000000E+00  0.11041597632E+04  0.11041597632E+04  0.25500000000E-02 0.  1.
          2   -1    0    0  501    0  0.00000000000E+00 -0.00000000000E+00 -0.92008028469E+03  0.92008028470E+03  0.25500000000E-02 0. -1.
    8880022    1    1    2    0    0  0.63141363478E+03  0.62770107434E+03  0.54092555963E+03  0.10529406113E+04  0.15294330000E+03 0.  0.
    8880022    1    1    2    0    0 -0.63141363478E+03 -0.62770107434E+03 -0.35684608110E+03  0.97129943659E+03  0.15294330000E+03 0.  0.
<mgrwt>
<rscale>  0 0.90337338E+03</rscale>
<asrwt>0</asrwt>
<pdfrwt beam="1">  1        2 0.14155081E+00 0.90337338E+03</pdfrwt>
<pdfrwt beam="2">  1       -2 0.16987073E+00 0.90337338E+03</pdfrwt>
<totfact> 0.60770867E+00</totfact>
</mgrwt>
</event>
<event>
 4    1  0.1033139E-008  0.7607546E+03  0.7818608E-02  0.9618628E-01
         -2   -1    0    0    0  501 -0.00000000000E+00  0.00000000000E+00  0.15427456825E+04  0.15427456825E+04  0.25500000000E-02 0.  1.
          2   -1    0    0  501    0  0.00000000000E+00 -0.00000000000E+00 -0.63299908461E+03  0.63299908462E+03  0.25500000000E-02 0. -1.
    8880022    1    1    2    0    0  0.54962889835E+03  0.50325341800E+03  0.11492042994E+04  0.13781937829E+04  0.15294330000E+03 0.  0.
    8880022    1    1    2    0    0 -0.54962889835E+03 -0.50325341800E+03 -0.23945770145E+03  0.79755098422E+03  0.15294330000E+03 0.  0.
<mgrwt>
<rscale>  0 0.76075461E+03</rscale>
<asrwt>0</asrwt>
<pdfrwt beam="1">  1        2 0.97384474E-01 0.76075461E+03</pdfrwt>
<pdfrwt beam="2">  1       -2 0.23734549E+00 0.76075461E+03</pdfrwt>
<totfact> 0.36669856E+00</totfact>
</mgrwt>
</event>
<event>
 4    1  0.1033139E-008  0.1505566E+04  0.7818608E-02  0.8880760E-01
         -2   -1    0    0    0  501 -0.00000000000E+00  0.00000000000E+00  0.10290465682E+04  0.10290465682E+04  0.25500000000E-02 0.  1.
          2   -1    0    0  501    0  0.00000000000E+00 -0.00000000000E+00 -0.37129386486E+04  0.37129386486E+04  0.25500000000E-02 0. -1.
    8880022    1    1    2    0    0 -0.14843532541E+04  0.20008458469E+03  0.17017734131E+03  0.15151535911E+04  0.15294330000E+03 0.  0.
    8880022    1    1    2    0    0  0.14843532541E+04 -0.20008458469E+03 -0.28540694217E+04  0.32268316257E+04  0.15294330000E+03 0.  0.
<mgrwt>
<rscale>  0 0.15055664E+04</rscale>
<asrwt>0</asrwt>
<pdfrwt beam="1">  1        2 0.57122132E+00 0.15055664E+04</pdfrwt>
<pdfrwt beam="2">  1       -2 0.15831486E+00 0.15055664E+04</pdfrwt>
<totfact> 0.14126168E-01</totfact>
</mgrwt>
</event>
<event>
 4    1  0.1033139E-008  0.6539608E+03  0.7818608E-02  0.9799375E-01
          2   -1    0    0  501    0  0.00000000000E+00  0.00000000000E+00  0.24820948862E+04  0.24820948862E+04  0.25500000000E-02 0. -1.
         -2   -1    0    0    0  501 -0.00000000000E+00 -0.00000000000E+00 -0.53225576733E+03  0.53225576734E+03  0.25500000000E-02 0.  1.
    8880022    1    1    2    0    0 -0.61401229944E+03  0.16511181649E+03  0.22143673114E+04  0.23089147361E+04  0.15294330000E+03 0.  0.
    8880022    1    1    2    0    0  0.61401229944E+03 -0.16511181649E+03 -0.26452819261E+03  0.70543591736E+03  0.15294330000E+03 0.  0.
<mgrwt>
<rscale>  0 0.65396075E+03</rscale>
<asrwt>0</asrwt>
<pdfrwt beam="1">  1        2 0.38186075E+00 0.65396075E+03</pdfrwt>
<pdfrwt beam="2">  1       -2 0.81885502E-01 0.65396075E+03</pdfrwt>
<totfact> 0.49983870E+00</totfact>
</mgrwt>
</event>
<event>
 4    1  0.1033139E-008  0.9442664E+03  0.7818608E-02  0.9371877E-01
         -2   -1    0    0    0  501 -0.00000000000E+00  0.00000000000E+00  0.76287232393E+03  0.76287232393E+03  0.25500000000E-02 0.  1.
          2   -1    0    0  501    0  0.00000000000E+00 -0.00000000000E+00 -0.33398484012E+04  0.33398484012E+04  0.25500000000E-02 0. -1.
    8880022    1    1    2    0    0  0.19692490306E+03  0.91075130097E+03 -0.29424066877E+04  0.30902097208E+04  0.15294330000E+03 0.  0.
    8880022    1    1    2    0    0 -0.19692490306E+03 -0.91075130097E+03  0.36543061049E+03  0.10125110043E+04  0.15294330000E+03 0.  0.
<mgrwt>
<rscale>  0 0.94426638E+03</rscale>
<asrwt>0</asrwt>
<pdfrwt beam="1">  1        2 0.51382282E+00 0.94426638E+03</pdfrwt>
<pdfrwt beam="2">  1       -2 0.11736497E+00 0.94426638E+03</pdfrwt>
<totfact> 0.60986272E-01</totfact>
</mgrwt>
</event>
<event>
 4    1  0.1033139E-008  0.7951021E+03  0.7818608E-02  0.9567134E-01
          2   -1    0    0  501    0  0.00000000000E+00  0.00000000000E+00  0.14327990773E+04  0.14327990773E+04  0.25500000000E-02 0. -1.
         -2   -1    0    0    0  501 -0.00000000000E+00 -0.00000000000E+00 -0.86185613547E+03  0.86185613547E+03  0.25500000000E-02 0.  1.
    8880022    1    1    2    0    0 -0.13247087693E+03  0.76892595056E+03  0.10870029283E+04  0.13467600639E+04  0.15294330000E+03 0.  0.
    8880022    1    1    2    0    0  0.13247087693E+03 -0.76892595056E+03 -0.51605998642E+03  0.94789514888E+03  0.15294330000E+03 0.  0.
<mgrwt>
<rscale>  0 0.79510207E+03</rscale>
<asrwt>0</asrwt>
<pdfrwt beam="1">  1        2 0.22043063E+00 0.79510207E+03</pdfrwt>
<pdfrwt beam="2">  1       -2 0.13259325E+00 0.79510207E+03</pdfrwt>
<totfact> 0.58265277E+00</totfact>
</mgrwt>
</event>
<event>
 4    1  0.1033139E-008  0.1582056E+04  0.7818608E-02  0.8831648E-01
         -2   -1    0    0    0  501 -0.00000000000E+00  0.00000000000E+00  0.19314375181E+04  0.19314375181E+04  0.25500000000E-02 0.  1.
          2   -1    0    0  501    0  0.00000000000E+00 -0.00000000000E+00 -0.14446024825E+04  0.14446024825E+04  0.25500000000E-02 0. -1.
    8880022    1    1    2    0    0  0.10636549898E+04  0.11610976031E+04 -0.29820822124E+03  0.16099159536E+04  0.15294330000E+03 0.  0.
    8880022    1    1    2    0    0 -0.10636549898E+04 -0.11610976031E+04  0.78504325680E+03  0.17661240470E+04  0.15294330000E+03 0.  0.
<mgrwt>
<rscale>  0 0.15820560E+04</rscale>
<asrwt>0</asrwt>
<pdfrwt beam="1">  1        2 0.22224654E+00 0.15820560E+04</pdfrwt>
<pdfrwt beam="2">  1       -2 0.29714423E+00 0.15820560E+04</pdfrwt>
<totfact> 0.42153714E-01</totfact>
</mgrwt>
</event>
<event>
 4    1  0.1033139E-008  0.1932178E+03  0.7818608E-02  0.1155591E+00
          2   -1    0    0  501    0  0.00000000000E+00  0.00000000000E+00  0.19305011936E+04  0.19305011936E+04  0.25500000000E-02 0. -1.
         -2   -1    0    0    0  501 -0.00000000000E+00 -0.00000000000E+00 -0.95440410119E+02  0.95440410153E+02  0.25500000000E-02 0.  1.
    8880022    1    1    2    0    0  0.24716368985E+01  0.11804811394E+03  0.18220716431E+04  0.18322876935E+04  0.15294330000E+03 0.  0.
    8880022    1    1    2    0    0 -0.24716368985E+01 -0.11804811394E+03  0.12989140450E+02  0.19365391031E+03  0.15294330000E+03 0.  1.
<mgrwt>
<rscale>  0 0.19321780E+03</rscale>
<asrwt>0</asrwt>
<pdfrwt beam="1">  1        2 0.29700015E+00 0.19321780E+03</pdfrwt>
<pdfrwt beam="2">  1       -2 0.14683142E-01 0.19321780E+03</pdfrwt>
<totfact> 0.29355848E+02</totfact>
</mgrwt>
</event>
<event>
 4    1  0.1033139E-008  0.8169897E+03  0.7818608E-02  0.9535746E-01
          2   -1    0    0  501    0  0.00000000000E+00  0.00000000000E+00  0.75262250821E+03  0.75262250821E+03  0.25500000000E-02 0. -1.
         -2   -1    0    0    0  501 -0.00000000000E+00 -0.00000000000E+00 -0.12317486983E+04  0.12317486983E+04  0.25500000000E-02 0.  1.
    8880022    1    1    2    0    0  0.52542564797E+03 -0.60663690022E+03  0.28545015344E+03  0.86542121731E+03  0.15294330000E+03 0.  0.
    8880022    1    1    2    0    0 -0.52542564797E+03  0.60663690022E+03 -0.76457634354E+03  0.11189499892E+04  0.15294330000E+03 0.  0.
<mgrwt>
<rscale>  0 0.81698965E+03</rscale>
<asrwt>0</asrwt>
<pdfrwt beam="1">  1        2 0.11578808E+00 0.81698965E+03</pdfrwt>
<pdfrwt beam="2">  1       -2 0.18949980E+00 0.81698965E+03</pdfrwt>
<totfact> 0.58992631E+00</totfact>
</mgrwt>
</event>
<event>
 4    1  0.1033139E-008  0.4822829E+03  0.7818608E-02  0.1018510E+00
          2   -1    0    0  501    0  0.00000000000E+00  0.00000000000E+00  0.22451440677E+04  0.22451440677E+04  0.25500000000E-02 0. -1.
         -2   -1    0    0    0  501 -0.00000000000E+00 -0.00000000000E+00 -0.20235244512E+03  0.20235244513E+03  0.25500000000E-02 0.  1.
    8880022    1    1    2    0    0 -0.43962046534E+03  0.12624962127E+03  0.16650246799E+03  0.51021548906E+03  0.15294330000E+03 0.  1.
    8880022    1    1    2    0    0  0.43962046534E+03 -0.12624962127E+03  0.18762891546E+04  0.19372810238E+04  0.15294330000E+03 0.  0.
<mgrwt>
<rscale>  0 0.48228288E+03</rscale>
<asrwt>0</asrwt>
<pdfrwt beam="1">  1        2 0.34540675E+00 0.48228288E+03</pdfrwt>
<pdfrwt beam="2">  1       -2 0.31131148E-01 0.48228288E+03</pdfrwt>
<totfact> 0.50302532E+01</totfact>
</mgrwt>
</event>
<event>
 4    1  0.1033139E-008  0.1205675E+04  0.7818608E-02  0.9107904E-01
         -2   -1    0    0    0  501 -0.00000000000E+00  0.00000000000E+00  0.58258222206E+03  0.58258222207E+03  0.25500000000E-02 0.  1.
          2   -1    0    0  501    0  0.00000000000E+00 -0.00000000000E+00 -0.34244016452E+04  0.34244016452E+04  0.25500000000E-02 0. -1.
    8880022    1    1    2    0    0  0.26367618600E+03 -0.11665052324E+04 -0.37726323475E+03  0.12633205411E+04  0.15294330000E+03 0.  0.
    8880022    1    1    2    0    0 -0.26367618600E+03  0.11665052324E+04 -0.24645561884E+04  0.27436633261E+04  0.15294330000E+03 0.  0.
<mgrwt>
<rscale>  0 0.12056746E+04</rscale>
<asrwt>0</asrwt>
<pdfrwt beam="1">  1        2 0.52683101E+00 0.12056746E+04</pdfrwt>
<pdfrwt beam="2">  1       -2 0.89628036E-01 0.12056746E+04</pdfrwt>
<totfact> 0.97832122E-01</totfact>
</mgrwt>
</event>
<event>
 4    1  0.1033139E-008  0.9667648E+03  0.7818608E-02  0.9345767E-01
         -2   -1    0    0    0  501 -0.00000000000E+00  0.00000000000E+00  0.10291537916E+04  0.10291537916E+04  0.25500000000E-02 0.  1.
          2   -1    0    0  501    0  0.00000000000E+00 -0.00000000000E+00 -0.12377100015E+04  0.12377100015E+04  0.25500000000E-02 0. -1.
    8880022    1    1    2    0    0 -0.29686810051E+03 -0.90725511996E+03  0.48057662212E+03  0.10796240385E+04  0.15294330000E+03 0.  0.
    8880022    1    1    2    0    0  0.29686810051E+03  0.90725511996E+03 -0.68913283204E+03  0.11872397546E+04  0.15294330000E+03 0.  0.
<mgrwt>
<rscale>  0 0.96676480E+03</rscale>
<asrwt>0</asrwt>
<pdfrwt beam="1">  1        2 0.19041692E+00 0.96676480E+03</pdfrwt>
<pdfrwt beam="2">  1       -2 0.15833135E+00 0.96676480E+03</pdfrwt>
<totfact> 0.46381708E+00</totfact>
</mgrwt>
</event>
<event>
 4    1  0.1033139E-008  0.3518586E+03  0.7818608E-02  0.1061855E+00
          2   -1    0    0  501    0  0.00000000000E+00  0.00000000000E+00  0.42429299185E+04  0.42429299185E+04  0.25500000000E-02 0. -1.
         -2   -1    0    0    0  501 -0.00000000000E+00 -0.00000000000E+00 -0.14227322342E+03  0.14227322345E+03  0.25500000000E-02 0.  1.
    8880022    1    1    2    0    0 -0.28858854140E+03 -0.13087959415E+03  0.95456286271E+02  0.36457697403E+03  0.15294330000E+03 0.  0.
    8880022    1    1    2    0    0  0.28858854140E+03  0.13087959415E+03  0.40052004088E+04  0.40206261679E+04  0.15294330000E+03 0. -1.
<mgrwt>
<rscale>  0 0.35185859E+03</rscale>
<asrwt>0</asrwt>
<pdfrwt beam="1">  1        2 0.65275846E+00 0.35185859E+03</pdfrwt>
<pdfrwt beam="2">  1       -2 0.21888188E-01 0.35185859E+03</pdfrwt>
<totfact> 0.49450892E+00</totfact>
</mgrwt>
</event>
<event>
 4    1  0.1033139E-008  0.1014168E+04  0.7818608E-02  0.9293140E-01
         -2   -1    0    0    0  501 -0.00000000000E+00  0.00000000000E+00  0.15771123378E+04  0.15771123378E+04  0.25500000000E-02 0.  1.
          2   -1    0    0  501    0  0.00000000000E+00 -0.00000000000E+00 -0.14332895244E+04  0.14332895244E+04  0.25500000000E-02 0. -1.
    8880022    1    1    2    0    0 -0.94037004620E+03  0.34763494821E+03  0.11830996554E+04  0.15582882688E+04  0.15294330000E+03 0.  0.
    8880022    1    1    2    0    0  0.94037004620E+03 -0.34763494821E+03 -0.10392768419E+04  0.14521135934E+04  0.15294330000E+03 0.  0.
<mgrwt>
<rscale>  0 0.10141684E+04</rscale>
<asrwt>0</asrwt>
<pdfrwt beam="1">  1        2 0.22050608E+00 0.10141684E+04</pdfrwt>
<pdfrwt beam="2">  1       -2 0.24263267E+00 0.10141684E+04</pdfrwt>
<totfact> 0.98319653E-01</totfact>
</mgrwt>
</event>
<event>
 4    1  0.1033139E-008  0.5425709E+03  0.7818608E-02  0.1003228E+00
          2   -1    0    0  501    0  0.00000000000E+00  0.00000000000E+00  0.14302511080E+04  0.14302511080E+04  0.25500000000E-02 0. -1.
         -2   -1    0    0    0  501 -0.00000000000E+00 -0.00000000000E+00 -0.38288593388E+03  0.38288593388E+03  0.25500000000E-02 0.  1.
    8880022    1    1    2    0    0  0.50667730740E+03  0.11945559229E+03  0.11401722553E+04  0.12626860089E+04  0.15294330000E+03 0.  0.
    8880022    1    1    2    0    0 -0.50667730740E+03 -0.11945559229E+03 -0.92807081170E+02  0.55045103296E+03  0.15294330000E+03 0.  0.
<mgrwt>
<rscale>  0 0.54257090E+03</rscale>
<asrwt>0</asrwt>
<pdfrwt beam="1">  1        2 0.22003863E+00 0.54257090E+03</pdfrwt>
<pdfrwt beam="2">  1       -2 0.58905528E-01 0.54257090E+03</pdfrwt>
<totfact> 0.39265666E+01</totfact>
</mgrwt>
</event>
<event>
 4    1  0.1033139E-008  0.6586895E+03  0.7818608E-02  0.9790609E-01
         -2   -1    0    0    0  501 -0.00000000000E+00  0.00000000000E+00  0.38050524057E+03  0.38050524058E+03  0.25500000000E-02 0.  1.
          2   -1    0    0  501    0  0.00000000000E+00 -0.00000000000E+00 -0.33592980664E+04  0.33592980664E+04  0.25500000000E-02 0. -1.
    8880022    1    1    2    0    0  0.64065560128E+03  0.63704138163E+01 -0.30091656930E+04  0.30804139337E+04  0.15294330000E+03 0.  0.
    8880022    1    1    2    0    0 -0.64065560128E+03 -0.63704138163E+01  0.30372867162E+02  0.65938937336E+03  0.15294330000E+03 0.  0.
<mgrwt>
<rscale>  0 0.65868948E+03</rscale>
<asrwt>0</asrwt>
<pdfrwt beam="1">  1        2 0.51681507E+00 0.65868948E+03</pdfrwt>
<pdfrwt beam="2">  1       -2 0.58539270E-01 0.65868948E+03</pdfrwt>
<totfact> 0.30591029E+00</totfact>
</mgrwt>
</event>
<event>
 4    1  0.1033139E-008  0.4419536E+03  0.7818608E-02  0.1030149E+00
          2   -1    0    0  501    0  0.00000000000E+00  0.00000000000E+00  0.14138345903E+04  0.14138345903E+04  0.25500000000E-02 0. -1.
         -2   -1    0    0    0  501 -0.00000000000E+00 -0.00000000000E+00 -0.36428736592E+03  0.36428736593E+03  0.25500000000E-02 0.  1.
    8880022    1    1    2    0    0 -0.35357764736E+03 -0.21659683648E+03 -0.17570434370E+03  0.47559963382E+03  0.15294330000E+03 0.  0.
    8880022    1    1    2    0    0  0.35357764736E+03  0.21659683648E+03  0.12252515681E+04  0.13025223225E+04  0.15294330000E+03 0.  0.
<mgrwt>
<rscale>  0 0.44195361E+03</rscale>
<asrwt>0</asrwt>
<pdfrwt beam="1">  1        2 0.21751301E+00 0.44195361E+03</pdfrwt>
<pdfrwt beam="2">  1       -2 0.56044211E-01 0.44195361E+03</pdfrwt>
<totfact> 0.45209653E+01</totfact>
</mgrwt>
</event>
<event>
 4    1  0.1033139E-008  0.1602480E+04  0.7818608E-02  0.8819026E-01
         -2   -1    0    0    0  501 -0.00000000000E+00  0.00000000000E+00  0.10878007006E+04  0.10878007006E+04  0.25500000000E-02 0.  1.
          2   -1    0    0  501    0  0.00000000000E+00 -0.00000000000E+00 -0.26477576435E+04  0.26477576435E+04  0.25500000000E-02 0. -1.
    8880022    1    1    2    0    0 -0.62997433137E+03 -0.14654974800E+04 -0.16495584471E+03  0.16109477353E+04  0.15294330000E+03 0.  0.
    8880022    1    1    2    0    0  0.62997433137E+03  0.14654974800E+04 -0.13950010981E+04  0.21246106088E+04  0.15294330000E+03 0.  0.
<mgrwt>
<rscale>  0 0.16024800E+04</rscale>
<asrwt>0</asrwt>
<pdfrwt beam="1">  1        2 0.40734733E+00 0.16024800E+04</pdfrwt>
<pdfrwt beam="2">  1       -2 0.16735395E+00 0.16024800E+04</pdfrwt>
<totfact> 0.59257069E-01</totfact>
</mgrwt>
</event>
<event>
 4    1  0.1033139E-008  0.1428455E+04  0.7818608E-02  0.8933475E-01
          2   -1    0    0  501    0  0.00000000000E+00  0.00000000000E+00  0.41160974311E+04  0.41160974311E+04  0.25500000000E-02 0. -1.
         -2   -1    0    0    0  501 -0.00000000000E+00 -0.00000000000E+00 -0.11769372857E+04  0.11769372857E+04  0.25500000000E-02 0.  1.
    8880022    1    1    2    0    0 -0.64345390393E+03 -0.12661202536E+04  0.34830112597E+04  0.37645520997E+04  0.15294330000E+03 0.  0.
    8880022    1    1    2    0    0  0.64345390393E+03  0.12661202536E+04 -0.54385111431E+03  0.15284826171E+04  0.15294330000E+03 0.  0.
<mgrwt>
<rscale>  0 0.14284555E+04</rscale>
<asrwt>0</asrwt>
<pdfrwt beam="1">  1        2 0.63324575E+00 0.14284555E+04</pdfrwt>
<pdfrwt beam="2">  1       -2 0.18106728E+00 0.14284555E+04</pdfrwt>
<totfact> 0.47452445E-02</totfact>
</mgrwt>
</event>
<event>
 4    1  0.1033139E-008  0.2539626E+03  0.7818608E-02  0.1110826E+00
         -2   -1    0    0    0  501 -0.00000000000E+00  0.00000000000E+00  0.67208491152E+03  0.67208491153E+03  0.25500000000E-02 0.  1.
          2   -1    0    0  501    0  0.00000000000E+00 -0.00000000000E+00 -0.23250949592E+04  0.23250949592E+04  0.25500000000E-02 0. -1.
    8880022    1    1    2    0    0  0.17425389793E+03  0.10363846997E+03 -0.22938428182E+04  0.23078587220E+04  0.15294330000E+03 0. -1.
    8880022    1    1    2    0    0 -0.17425389793E+03 -0.10363846997E+03  0.64083277045E+03  0.68932114874E+03  0.15294330000E+03 0.  0.
<mgrwt>
<rscale>  0 0.25396261E+03</rscale>
<asrwt>0</asrwt>
<pdfrwt beam="1">  1        2 0.35770691E+00 0.25396261E+03</pdfrwt>
<pdfrwt beam="2">  1       -2 0.10339768E+00 0.25396261E+03</pdfrwt>
<totfact> 0.40724115E+00</totfact>
</mgrwt>
</event>
<event>
 4    1  0.1033139E-008  0.4329829E+03  0.7818608E-02  0.1032922E+00
         -2   -1    0    0    0  501 -0.00000000000E+00  0.00000000000E+00  0.32580984406E+03  0.32580984407E+03  0.25500000000E-02 0.  1.
          2   -1    0    0  501    0  0.00000000000E+00 -0.00000000000E+00 -0.10773358266E+04  0.10773358266E+04  0.25500000000E-02 0. -1.
    8880022    1    1    2    0    0  0.33158922195E+03  0.23266100718E+03 -0.85463232808E+03  0.95805564848E+03  0.15294330000E+03 0.  0.
    8880022    1    1    2    0    0 -0.33158922195E+03 -0.23266100718E+03  0.10310634552E+03  0.44509002221E+03  0.15294330000E+03 0.  0.
<mgrwt>
<rscale>  0 0.43298292E+03</rscale>
<asrwt>0</asrwt>
<pdfrwt beam="1">  1        2 0.16574397E+00 0.43298292E+03</pdfrwt>
<pdfrwt beam="2">  1       -2 0.50124592E-01 0.43298292E+03</pdfrwt>
<totfact> 0.88811412E+01</totfact>
</mgrwt>
</event>
<event>
 4    1  0.1033139E-008  0.7871604E+03  0.7818608E-02  0.9578790E-01
          2   -1    0    0  501    0  0.00000000000E+00  0.00000000000E+00  0.17315091472E+04  0.17315091472E+04  0.25500000000E-02 0. -1.
         -2   -1    0    0    0  501 -0.00000000000E+00 -0.00000000000E+00 -0.46262232196E+03  0.46262232197E+03  0.25500000000E-02 0.  1.
    8880022    1    1    2    0    0  0.25566564883E+03 -0.72860481201E+03  0.11565286884E+04  0.13989925505E+04  0.15294330000E+03 0.  0.
    8880022    1    1    2    0    0 -0.25566564883E+03  0.72860481201E+03  0.11235813679E+03  0.79513891868E+03  0.15294330000E+03 0.  0.
<mgrwt>
<rscale>  0 0.78716043E+03</rscale>
<asrwt>0</asrwt>
<pdfrwt beam="1">  1        2 0.26638602E+00 0.78716043E+03</pdfrwt>
<pdfrwt beam="2">  1       -2 0.71172664E-01 0.78716043E+03</pdfrwt>
<totfact> 0.17283479E+01</totfact>
</mgrwt>
</event>
<event>
 4    1  0.1033139E-008  0.9003505E+03  0.7818608E-02  0.9425143E-01
          2   -1    0    0  501    0  0.00000000000E+00  0.00000000000E+00  0.17026687375E+04  0.17026687375E+04  0.25500000000E-02 0. -1.
         -2   -1    0    0    0  501 -0.00000000000E+00 -0.00000000000E+00 -0.90626326763E+03  0.90626326764E+03  0.25500000000E-02 0.  1.
    8880022    1    1    2    0    0 -0.36621034090E+03 -0.80816415502E+03  0.12969241465E+04  0.15788106948E+04  0.15294330000E+03 0.  0.
    8880022    1    1    2    0    0  0.36621034090E+03  0.80816415502E+03 -0.50051867666E+03  0.10301213103E+04  0.15294330000E+03 0.  0.
<mgrwt>
<rscale>  0 0.90035047E+03</rscale>
<asrwt>0</asrwt>
<pdfrwt beam="1">  1        2 0.26194904E+00 0.90035047E+03</pdfrwt>
<pdfrwt beam="2">  1       -2 0.13942512E+00 0.90035047E+03</pdfrwt>
<totfact> 0.35742453E+00</totfact>
</mgrwt>
</event>
<event>
 4    1  0.1033139E-008  0.4666274E+03  0.7818608E-02  0.1022876E+00
          2   -1    0    0  501    0  0.00000000000E+00  0.00000000000E+00  0.29275964980E+04  0.29275964980E+04  0.25500000000E-02 0. -1.
         -2   -1    0    0    0  501 -0.00000000000E+00 -0.00000000000E+00 -0.18944918870E+03  0.18944918872E+03  0.25500000000E-02 0.  1.
    8880022    1    1    2    0    0  0.15043128415E+03  0.41439101030E+03  0.25837344676E+04  0.26255332664E+04  0.15294330000E+03 0. -1.
    8880022    1    1    2    0    0 -0.15043128415E+03 -0.41439101030E+03  0.15441284169E+03  0.49151242036E+03  0.15294330000E+03 0.  0.
<mgrwt>
<rscale>  0 0.46662740E+03</rscale>
<asrwt>0</asrwt>
<pdfrwt beam="1">  1        2 0.45039948E+00 0.46662740E+03</pdfrwt>
<pdfrwt beam="2">  1       -2 0.29146028E-01 0.46662740E+03</pdfrwt>
<totfact> 0.23400057E+01</totfact>
</mgrwt>
</event>
<event>
 4    1  0.1033139E-008  0.9135463E+03  0.7818608E-02  0.9408805E-01
         -2   -1    0    0    0  501 -0.00000000000E+00  0.00000000000E+00  0.78578295606E+03  0.78578295606E+03  0.25500000000E-02 0.  1.
          2   -1    0    0  501    0  0.00000000000E+00 -0.00000000000E+00 -0.20778694349E+04  0.20778694349E+04  0.25500000000E-02 0. -1.
    8880022    1    1    2    0    0  0.66508371149E+03  0.60732100562E+03  0.35506804955E+03  0.98012250254E+03  0.15294330000E+03 0.  0.
    8880022    1    1    2    0    0 -0.66508371149E+03 -0.60732100562E+03 -0.16471545284E+04  0.18835298884E+04  0.15294330000E+03 0.  0.
<mgrwt>
<rscale>  0 0.91354628E+03</rscale>
<asrwt>0</asrwt>
<pdfrwt beam="1">  1        2 0.31967222E+00 0.91354628E+03</pdfrwt>
<pdfrwt beam="2">  1       -2 0.12088969E+00 0.91354628E+03</pdfrwt>
<totfact> 0.31892914E+00</totfact>
</mgrwt>
</event>
<event>
 4    1  0.1033139E-008  0.6595053E+03  0.7818608E-02  0.9789105E-01
          2   -1    0    0  501    0  0.00000000000E+00  0.00000000000E+00  0.16997479579E+04  0.16997479579E+04  0.25500000000E-02 0. -1.
         -2   -1    0    0    0  501 -0.00000000000E+00 -0.00000000000E+00 -0.57008565163E+03  0.57008565163E+03  0.25500000000E-02 0.  1.
    8880022    1    1    2    0    0  0.63992132914E+03 -0.45345783624E+02  0.14073790269E+04  0.15542403051E+04  0.15294330000E+03 0.  0.
    8880022    1    1    2    0    0 -0.63992132914E+03  0.45345783624E+02 -0.27771672056E+03  0.71559330452E+03  0.15294330000E+03 0.  0.
<mgrwt>
<rscale>  0 0.65950527E+03</rscale>
<asrwt>0</asrwt>
<pdfrwt beam="1">  1        2 0.26149968E+00 0.65950527E+03</pdfrwt>
<pdfrwt beam="2">  1       -2 0.87705486E-01 0.65950527E+03</pdfrwt>
<totfact> 0.11470307E+01</totfact>
</mgrwt>
</event>
<event>
 4    1  0.1033139E-008  0.3134709E+03  0.7818608E-02  0.1078694E+00
         -2   -1    0    0    0  501 -0.00000000000E+00  0.00000000000E+00  0.29230460813E+03  0.29230460814E+03  0.25500000000E-02 0.  1.
          2   -1    0    0  501    0  0.00000000000E+00 -0.00000000000E+00 -0.13293542968E+04  0.13293542968E+04  0.25500000000E-02 0. -1.
    8880022    1    1    2    0    0  0.19681456185E+02 -0.27291936772E+03 -0.12193732672E+04  0.12590215084E+04  0.15294330000E+03 0.  0.
    8880022    1    1    2    0    0 -0.19681456185E+02  0.27291936772E+03  0.18232357855E+03  0.36263739645E+03  0.15294330000E+03 0.  0.
<mgrwt>
<rscale>  0 0.31347088E+03</rscale>
<asrwt>0</asrwt>
<pdfrwt beam="1">  1        2 0.20451604E+00 0.31347088E+03</pdfrwt>
<pdfrwt beam="2">  1       -2 0.44969940E-01 0.31347088E+03</pdfrwt>
<totfact> 0.80475929E+01</totfact>
</mgrwt>
</event>
<event>
 4    1  0.1033139E-008  0.9114256E+03  0.7818608E-02  0.9411411E-01
         -2   -1    0    0    0  501 -0.00000000000E+00  0.00000000000E+00  0.41966240857E+03  0.41966240858E+03  0.25500000000E-02 0.  1.
          2   -1    0    0  501    0  0.00000000000E+00 -0.00000000000E+00 -0.20658673625E+04  0.20658673625E+04  0.25500000000E-02 0. -1.
    8880022    1    1    2    0    0  0.74803608373E+03 -0.49774188643E+03 -0.10772951388E+04  0.14111206317E+04  0.15294330000E+03 0.  0.
    8880022    1    1    2    0    0 -0.74803608373E+03  0.49774188643E+03 -0.56890981514E+03  0.10744091394E+04  0.15294330000E+03 0.  0.
<mgrwt>
<rscale>  0 0.91142560E+03</rscale>
<asrwt>0</asrwt>
<pdfrwt beam="1">  1        2 0.31782574E+00 0.91142560E+03</pdfrwt>
<pdfrwt beam="2">  1       -2 0.64563449E-01 0.91142560E+03</pdfrwt>
<totfact> 0.13796175E+01</totfact>
</mgrwt>
</event>
<event>
 4    1  0.1033139E-008  0.1691316E+03  0.7818608E-02  0.1178756E+00
          2   -1    0    0  501    0  0.00000000000E+00  0.00000000000E+00  0.22453079381E+04  0.22453079381E+04  0.25500000000E-02 0. -1.
         -2   -1    0    0    0  501 -0.00000000000E+00 -0.00000000000E+00 -0.15382017645E+02  0.15382017857E+02  0.25500000000E-02 0.  1.
    8880022    1    1    2    0    0 -0.16264379102E+02 -0.70351455841E+02  0.64651461884E+03  0.66827139902E+03  0.15294330000E+03 0.  0.
    8880022    1    1    2    0    0  0.16264379102E+02  0.70351455841E+02  0.15834113016E+04  0.15924185569E+04  0.15294330000E+03 0. -1.
<mgrwt>
<rscale>  0 0.16913164E+03</rscale>
<asrwt>0</asrwt>
<pdfrwt beam="1">  1        2 0.34543212E+00 0.16913164E+03</pdfrwt>
<pdfrwt beam="2">  1       -2 0.23664634E-02 0.16913164E+03</pdfrwt>
<totfact> 0.33302001E+03</totfact>
</mgrwt>
</event>
<event>
 4    1  0.1033139E-008  0.3240506E+03  0.7818608E-02  0.1073800E+00
          2   -1    0    0  501    0  0.00000000000E+00  0.00000000000E+00  0.98372509220E+03  0.98372509220E+03  0.25500000000E-02 0. -1.
         -2   -1    0    0    0  501 -0.00000000000E+00 -0.00000000000E+00 -0.60428590717E+03  0.60428590717E+03  0.25500000000E-02 0.  1.
    8880022    1    1    2    0    0  0.14849229713E+03  0.24406392860E+03 -0.53075089329E+03  0.62185635583E+03  0.15294330000E+03 0.  1.
    8880022    1    1    2    0    0 -0.14849229713E+03 -0.24406392860E+03  0.91019007832E+03  0.96615464354E+03  0.15294330000E+03 0.  0.
<mgrwt>
<rscale>  0 0.32405064E+03</rscale>
<asrwt>0</asrwt>
<pdfrwt beam="1">  1        2 0.15134232E+00 0.32405064E+03</pdfrwt>
<pdfrwt beam="2">  1       -2 0.92967063E-01 0.32405064E+03</pdfrwt>
<totfact> 0.27362623E+01</totfact>
</mgrwt>
</event>
<event>
 4    1  0.1033139E-008  0.2311472E+03  0.7818608E-02  0.1125835E+00
          2   -1    0    0  501    0  0.00000000000E+00  0.00000000000E+00  0.93680262262E+03  0.93680262262E+03  0.25500000000E-02 0. -1.
         -2   -1    0    0    0  501 -0.00000000000E+00 -0.00000000000E+00 -0.16966369509E+03  0.16966369511E+03  0.25500000000E-02 0.  1.
    8880022    1    1    2    0    0 -0.17185357779E+03  0.22443839001E+02  0.83432531011E+03  0.86575270962E+03  0.15294330000E+03 0. -1.
    8880022    1    1    2    0    0  0.17185357779E+03 -0.22443839001E+02 -0.67186382586E+02  0.24071360811E+03  0.15294330000E+03 0.  0.
<mgrwt>
<rscale>  0 0.23114721E+03</rscale>
<asrwt>0</asrwt>
<pdfrwt beam="1">  1        2 0.14412348E+00 0.23114721E+03</pdfrwt>
<pdfrwt beam="2">  1       -2 0.26102107E-01 0.23114721E+03</pdfrwt>
<totfact> 0.38276696E+02</totfact>
</mgrwt>
</event>
<event>
 4    1  0.1033139E-008  0.6130799E+03  0.7818608E-02  0.9878635E-01
          2   -1    0    0  501    0  0.00000000000E+00  0.00000000000E+00  0.14722516691E+04  0.14722516691E+04  0.25500000000E-02 0. -1.
         -2   -1    0    0    0  501 -0.00000000000E+00 -0.00000000000E+00 -0.18924239644E+04  0.18924239644E+04  0.25500000000E-02 0.  1.
    8880022    1    1    2    0    0 -0.58126193982E+03 -0.12087133248E+03  0.13546628052E+04  0.14869358730E+04  0.15294330000E+03 0.  0.
    8880022    1    1    2    0    0  0.58126193982E+03  0.12087133248E+03 -0.17748351004E+04  0.18777397605E+04  0.15294330000E+03 0.  1.
<mgrwt>
<rscale>  0 0.61307991E+03</rscale>
<asrwt>0</asrwt>
<pdfrwt beam="1">  1        2 0.22650026E+00 0.61307991E+03</pdfrwt>
<pdfrwt beam="2">  1       -2 0.29114215E+00 0.61307991E+03</pdfrwt>
<totfact> 0.51542327E-01</totfact>
</mgrwt>
</event>
<event>
 4    1  0.1033139E-008  0.6200110E+03  0.7818608E-02  0.9864738E-01
          2   -1    0    0  501    0  0.00000000000E+00  0.00000000000E+00  0.10023066331E+04  0.10023066331E+04  0.25500000000E-02 0. -1.
         -2   -1    0    0    0  501 -0.00000000000E+00 -0.00000000000E+00 -0.66300381601E+03  0.66300381602E+03  0.25500000000E-02 0.  1.
    8880022    1    1    2    0    0 -0.41290245017E+03 -0.43650151169E+03  0.71025451937E+03  0.94280174923E+03  0.15294330000E+03 0.  0.
    8880022    1    1    2    0    0  0.41290245017E+03  0.43650151169E+03 -0.37095170224E+03  0.72250869993E+03  0.15294330000E+03 0.  0.
<mgrwt>
<rscale>  0 0.62001101E+03</rscale>
<asrwt>0</asrwt>
<pdfrwt beam="1">  1        2 0.15420102E+00 0.62001101E+03</pdfrwt>
<pdfrwt beam="2">  1       -2 0.10200059E+00 0.62001101E+03</pdfrwt>
<totfact> 0.20409381E+01</totfact>
</mgrwt>
</event>
<event>
 4    1  0.1033139E-008  0.2037818E+03  0.7818608E-02  0.1146587E+00
          2   -1    0    0  501    0  0.00000000000E+00  0.00000000000E+00  0.15188390012E+04  0.15188390012E+04  0.25500000000E-02 0. -1.
         -2   -1    0    0    0  501 -0.00000000000E+00 -0.00000000000E+00 -0.26004667403E+03  0.26004667404E+03  0.25500000000E-02 0.  1.
    8880022    1    1    2    0    0  0.85506363730E+02  0.10403862858E+03 -0.21199045390E+03  0.29405268241E+03  0.15294330000E+03 0.  0.
    8880022    1    1    2    0    0 -0.85506363730E+02 -0.10403862858E+03  0.14707827811E+04  0.14848329929E+04  0.15294330000E+03 0. -1.
<mgrwt>
<rscale>  0 0.20378181E+03</rscale>
<asrwt>0</asrwt>
<pdfrwt beam="1">  1        2 0.23366753E+00 0.20378181E+03</pdfrwt>
<pdfrwt beam="2">  1       -2 0.40007181E-01 0.20378181E+03</pdfrwt>
<totfact> 0.82145350E+01</totfact>
</mgrwt>
</event>
<event>
 4    1  0.1033139E-008  0.7984403E+03  0.7818608E-02  0.9562277E-01
         -2   -1    0    0    0  501 -0.00000000000E+00  0.00000000000E+00  0.61419271071E+03  0.61419271071E+03  0.25500000000E-02 0.  1.
          2   -1    0    0  501    0  0.00000000000E+00 -0.00000000000E+00 -0.15830813530E+04  0.15830813530E+04  0.25500000000E-02 0. -1.
    8880022    1    1    2    0    0 -0.75813573744E+03  0.19835684812E+03 -0.11291323243E+04  0.13829123958E+04  0.15294330000E+03 0.  0.
    8880022    1    1    2    0    0  0.75813573744E+03 -0.19835684812E+03  0.16024368201E+03  0.81436166795E+03  0.15294330000E+03 0.  0.
<mgrwt>
<rscale>  0 0.79844028E+03</rscale>
<asrwt>0</asrwt>
<pdfrwt beam="1">  1        2 0.24355098E+00 0.79844028E+03</pdfrwt>
<pdfrwt beam="2">  1       -2 0.94491187E-01 0.79844028E+03</pdfrwt>
<totfact> 0.10968290E+01</totfact>
</mgrwt>
</event>
<event>
 4    1  0.1033139E-008  0.5429267E+03  0.7818608E-02  0.1003145E+00
         -2   -1    0    0    0  501 -0.00000000000E+00  0.00000000000E+00  0.61375881380E+03  0.61375881380E+03  0.25500000000E-02 0.  1.
          2   -1    0    0  501    0  0.00000000000E+00 -0.00000000000E+00 -0.12596081548E+04  0.12596081548E+04  0.25500000000E-02 0. -1.
    8880022    1    1    2    0    0  0.51290032202E+03 -0.91164511644E+02 -0.10597055819E+04  0.11906910942E+04  0.15294330000E+03 0.  0.
    8880022    1    1    2    0    0 -0.51290032202E+03  0.91164511644E+02  0.41385624082E+03  0.68267587447E+03  0.15294330000E+03 0.  0.
<mgrwt>
<rscale>  0 0.54292666E+03</rscale>
<asrwt>0</asrwt>
<pdfrwt beam="1">  1        2 0.19378587E+00 0.54292666E+03</pdfrwt>
<pdfrwt beam="2">  1       -2 0.94424433E-01 0.54292666E+03</pdfrwt>
<totfact> 0.17324540E+01</totfact>
</mgrwt>
</event>
<event>
 4    1  0.1033139E-008  0.4267196E+03  0.7818608E-02  0.1034901E+00
          2   -1    0    0  501    0  0.00000000000E+00  0.00000000000E+00  0.13648229905E+04  0.13648229905E+04  0.25500000000E-02 0. -1.
         -2   -1    0    0    0  501 -0.00000000000E+00 -0.00000000000E+00 -0.19566745355E+03  0.19566745356E+03  0.25500000000E-02 0.  1.
    8880022    1    1    2    0    0  0.37548143124E+03  0.13308528583E+03  0.14448373856E+03  0.45051659485E+03  0.15294330000E+03 0.  1.
    8880022    1    1    2    0    0 -0.37548143124E+03 -0.13308528583E+03  0.10246717983E+04  0.11099738492E+04  0.15294330000E+03 0. -1.
<mgrwt>
<rscale>  0 0.42671964E+03</rscale>
<asrwt>0</asrwt>
<pdfrwt beam="1">  1        2 0.20997276E+00 0.42671964E+03</pdfrwt>
<pdfrwt beam="2">  1       -2 0.30102686E-01 0.42671964E+03</pdfrwt>
<totfact> 0.16173955E+02</totfact>
</mgrwt>
</event>
<event>
 4    1  0.1033139E-008  0.4444963E+03  0.7818608E-02  0.1029376E+00
         -2   -1    0    0    0  501 -0.00000000000E+00  0.00000000000E+00  0.32847318831E+03  0.32847318832E+03  0.25500000000E-02 0.  1.
          2   -1    0    0  501    0  0.00000000000E+00 -0.00000000000E+00 -0.63929513678E+03  0.63929513678E+03  0.25500000000E-02 0. -1.
    8880022    1    1    2    0    0  0.36147325752E+03 -0.20862020826E+03 -0.27306390934E+03  0.52167121714E+03  0.15294330000E+03 0.  0.
    8880022    1    1    2    0    0 -0.36147325752E+03  0.20862020826E+03 -0.37758039123E+02  0.44609710796E+03  0.15294330000E+03 0.  0.
<mgrwt>
<rscale>  0 0.44449630E+03</rscale>
<asrwt>0</asrwt>
<pdfrwt beam="1">  1        2 0.98353098E-01 0.44449630E+03</pdfrwt>
<pdfrwt beam="2">  1       -2 0.50534337E-01 0.44449630E+03</pdfrwt>
<totfact> 0.17487966E+02</totfact>
</mgrwt>
</event>
<event>
 4    1  0.1033139E-008  0.9164193E+03  0.7818608E-02  0.9405286E-01
         -2   -1    0    0    0  501 -0.00000000000E+00  0.00000000000E+00  0.12977309148E+04  0.12977309148E+04  0.25500000000E-02 0.  1.
          2   -1    0    0  501    0  0.00000000000E+00 -0.00000000000E+00 -0.14046877391E+04  0.14046877391E+04  0.25500000000E-02 0. -1.
    8880022    1    1    2    0    0 -0.58972219027E+03 -0.68458779307E+03 -0.10457609787E+04  0.13904820695E+04  0.15294330000E+03 0.  0.
    8880022    1    1    2    0    0  0.58972219027E+03  0.68458779307E+03  0.93880415433E+03  0.13119365843E+04  0.15294330000E+03 0.  0.
<mgrwt>
<rscale>  0 0.91641932E+03</rscale>
<asrwt>0</asrwt>
<pdfrwt beam="1">  1        2 0.21610581E+00 0.91641932E+03</pdfrwt>
<pdfrwt beam="2">  1       -2 0.19965091E+00 0.91641932E+03</pdfrwt>
<totfact> 0.19309298E+00</totfact>
</mgrwt>
</event>
<event>
 4    1  0.1033139E-008  0.1657132E+04  0.7818608E-02  0.8786199E-01
          2   -1    0    0  501    0  0.00000000000E+00  0.00000000000E+00  0.17995533781E+04  0.17995533781E+04  0.25500000000E-02 0. -1.
         -2   -1    0    0    0  501 -0.00000000000E+00 -0.00000000000E+00 -0.17703256798E+04  0.17703256798E+04  0.25500000000E-02 0.  1.
    8880022    1    1    2    0    0  0.92191626933E+03 -0.13684895641E+04 -0.64851516267E+03  0.17795102877E+04  0.15294330000E+03 0.  0.
    8880022    1    1    2    0    0 -0.92191626933E+03  0.13684895641E+04  0.67774286098E+03  0.17903687702E+04  0.15294330000E+03 0.  0.
<mgrwt>
<rscale>  0 0.16571315E+04</rscale>
<asrwt>0</asrwt>
<pdfrwt beam="1">  1        2 0.27685436E+00 0.16571315E+04</pdfrwt>
<pdfrwt beam="2">  1       -2 0.27235780E+00 0.16571315E+04</pdfrwt>
<totfact> 0.37370748E-01</totfact>
</mgrwt>
</event>
<event>
 4    1  0.1033139E-008  0.1311557E+04  0.7818608E-02  0.9020450E-01
          2   -1    0    0  501    0  0.00000000000E+00  0.00000000000E+00  0.25522649625E+04  0.25522649625E+04  0.25500000000E-02 0. -1.
         -2   -1    0    0    0  501 -0.00000000000E+00 -0.00000000000E+00 -0.13909531916E+04  0.13909531916E+04  0.25500000000E-02 0.  1.
    8880022    1    1    2    0    0 -0.12660103761E+04 -0.30660906125E+03  0.19961729835E+04  0.23884910764E+04  0.15294330000E+03 0.  0.
    8880022    1    1    2    0    0  0.12660103761E+04  0.30660906125E+03 -0.83486121256E+03  0.15547270777E+04  0.15294330000E+03 0.  0.
<mgrwt>
<rscale>  0 0.13115575E+04</rscale>
<asrwt>0</asrwt>
<pdfrwt beam="1">  1        2 0.39265615E+00 0.13115575E+04</pdfrwt>
<pdfrwt beam="2">  1       -2 0.21399280E+00 0.13115575E+04</pdfrwt>
<totfact> 0.33679595E-01</totfact>
</mgrwt>
</event>
<event>
 4    1  0.1033139E-008  0.8734728E+03  0.7818608E-02  0.9459363E-01
          2   -1    0    0  501    0  0.00000000000E+00  0.00000000000E+00  0.22002503890E+04  0.22002503890E+04  0.25500000000E-02 0. -1.
         -2   -1    0    0    0  501 -0.00000000000E+00 -0.00000000000E+00 -0.78341752545E+03  0.78341752546E+03  0.25500000000E-02 0.  1.
    8880022    1    1    2    0    0  0.79519800155E+03 -0.32744958121E+03 -0.40535287195E+03  0.96294636077E+03  0.15294330000E+03 0.  0.
    8880022    1    1    2    0    0 -0.79519800155E+03  0.32744958121E+03  0.18221857355E+04  0.20207215537E+04  0.15294330000E+03 0.  0.
<mgrwt>
<rscale>  0 0.87347281E+03</rscale>
<asrwt>0</asrwt>
<pdfrwt beam="1">  1        2 0.33850005E+00 0.87347281E+03</pdfrwt>
<pdfrwt beam="2">  1       -2 0.12052578E+00 0.87347281E+03</pdfrwt>
<totfact> 0.27666308E+00</totfact>
</mgrwt>
</event>
<event>
 4    1  0.1033139E-008  0.4881399E+03  0.7818608E-02  0.1016922E+00
          2   -1    0    0  501    0  0.00000000000E+00  0.00000000000E+00  0.12743693097E+04  0.12743693097E+04  0.25500000000E-02 0. -1.
         -2   -1    0    0    0  501 -0.00000000000E+00 -0.00000000000E+00 -0.35674483343E+03  0.35674483344E+03  0.25500000000E-02 0.  1.
    8880022    1    1    2    0    0  0.21784958680E+03 -0.40918266730E+03 -0.10378863801E+03  0.49905173287E+03  0.15294330000E+03 0.  0.
    8880022    1    1    2    0    0 -0.21784958680E+03  0.40918266730E+03  0.10214131142E+04  0.11320624102E+04  0.15294330000E+03 0.  0.
<mgrwt>
<rscale>  0 0.48813989E+03</rscale>
<asrwt>0</asrwt>
<pdfrwt beam="1">  1        2 0.19605682E+00 0.48813989E+03</pdfrwt>
<pdfrwt beam="2">  1       -2 0.54883821E-01 0.48813989E+03</pdfrwt>
<totfact> 0.56116601E+01</totfact>
</mgrwt>
</event>
<event>
 4    1  0.1033139E-008  0.1115522E+04  0.7818608E-02  0.9190194E-01
          2   -1    0    0  501    0  0.00000000000E+00  0.00000000000E+00  0.12267168034E+04  0.12267168034E+04  0.25500000000E-02 0. -1.
         -2   -1    0    0    0  501 -0.00000000000E+00 -0.00000000000E+00 -0.10759517333E+04  0.10759517333E+04  0.25500000000E-02 0.  1.
    8880022    1    1    2    0    0  0.64380103905E+03 -0.89806302564E+03  0.35074500613E+03  0.11693633688E+04  0.15294330000E+03 0.  0.
    8880022    1    1    2    0    0 -0.64380103905E+03  0.89806302564E+03 -0.19997993605E+03  0.11333051680E+04  0.15294330000E+03 0.  0.
<mgrwt>
<rscale>  0 0.11155217E+04</rscale>
<asrwt>0</asrwt>
<pdfrwt beam="1">  1        2 0.18872566E+00 0.11155217E+04</pdfrwt>
<pdfrwt beam="2">  1       -2 0.16553104E+00 0.11155217E+04</pdfrwt>
<totfact> 0.41043725E+00</totfact>
</mgrwt>
</event>
<event>
 4    1  0.1033139E-008  0.1330317E+04  0.7818608E-02  0.9005863E-01
         -2   -1    0    0    0  501 -0.00000000000E+00  0.00000000000E+00  0.31113090793E+04  0.31113090793E+04  0.25500000000E-02 0.  1.
          2   -1    0    0  501    0  0.00000000000E+00 -0.00000000000E+00 -0.11779638195E+04  0.11779638195E+04  0.25500000000E-02 0. -1.
    8880022    1    1    2    0    0 -0.13157715369E+04 -0.12287231425E+03  0.25089097820E+04  0.28397838457E+04  0.15294330000E+03 0.  0.
    8880022    1    1    2    0    0  0.13157715369E+04  0.12287231425E+03 -0.57556452218E+03  0.14494890532E+04  0.15294330000E+03 0.  0.
<mgrwt>
<rscale>  0 0.13303173E+04</rscale>
<asrwt>0</asrwt>
<pdfrwt beam="1">  1        2 0.18122520E+00 0.13303173E+04</pdfrwt>
<pdfrwt beam="2">  1       -2 0.47866293E+00 0.13303173E+04</pdfrwt>
<totfact> 0.42317543E-02</totfact>
</mgrwt>
</event>
<event>
 4    1  0.1033139E-008  0.1355586E+04  0.7818608E-02  0.8986610E-01
          2   -1    0    0  501    0  0.00000000000E+00  0.00000000000E+00  0.17487358825E+04  0.17487358825E+04  0.25500000000E-02 0. -1.
         -2   -1    0    0    0  501 -0.00000000000E+00 -0.00000000000E+00 -0.15588265153E+04  0.15588265153E+04  0.25500000000E-02 0.  1.
    8880022    1    1    2    0    0 -0.12546012860E+04 -0.49009888944E+03 -0.84913283074E+03  0.15995747952E+04  0.15294330000E+03 0.  0.
    8880022    1    1    2    0    0  0.12546012860E+04  0.49009888944E+03  0.10390421980E+04  0.17079876026E+04  0.15294330000E+03 0.  0.
<mgrwt>
<rscale>  0 0.13555858E+04</rscale>
<asrwt>0</asrwt>
<pdfrwt beam="1">  1        2 0.26903629E+00 0.13555858E+04</pdfrwt>
<pdfrwt beam="2">  1       -2 0.23981946E+00 0.13555858E+04</pdfrwt>
<totfact> 0.65234351E-01</totfact>
</mgrwt>
</event>
<event>
 4    1  0.1033139E-008  0.1525564E+04  0.7818608E-02  0.8867629E-01
          2   -1    0    0  501    0  0.00000000000E+00  0.00000000000E+00  0.23218058428E+04  0.23218058428E+04  0.25500000000E-02 0. -1.
         -2   -1    0    0    0  501 -0.00000000000E+00 -0.00000000000E+00 -0.17533010024E+04  0.17533010024E+04  0.25500000000E-02 0.  1.
    8880022    1    1    2    0    0 -0.13743068250E+04  0.64438653679E+03 -0.10491960856E+04  0.18515283787E+04  0.15294330000E+03 0.  0.
    8880022    1    1    2    0    0  0.13743068250E+04 -0.64438653679E+03  0.16177009259E+04  0.22235784665E+04  0.15294330000E+03 0.  0.
<mgrwt>
<rscale>  0 0.15255638E+04</rscale>
<asrwt>0</asrwt>
<pdfrwt beam="1">  1        2 0.35720090E+00 0.15255638E+04</pdfrwt>
<pdfrwt beam="2">  1       -2 0.26973862E+00 0.15255638E+04</pdfrwt>
<totfact> 0.20028193E-01</totfact>
</mgrwt>
</event>
<event>
 4    1  0.1033139E-008  0.8396905E+03  0.7818608E-02  0.9504279E-01
          2   -1    0    0  501    0  0.00000000000E+00  0.00000000000E+00  0.18238909635E+04  0.18238909635E+04  0.25500000000E-02 0. -1.
         -2   -1    0    0    0  501 -0.00000000000E+00 -0.00000000000E+00 -0.85445720373E+03  0.85445720373E+03  0.25500000000E-02 0.  1.
    8880022    1    1    2    0    0 -0.63307795500E+03 -0.53000072328E+03 -0.50624678905E+03  0.98049269666E+03  0.15294330000E+03 0.  0.
    8880022    1    1    2    0    0  0.63307795500E+03  0.53000072328E+03  0.14756805489E+04  0.16978554706E+04  0.15294330000E+03 0.  0.
<mgrwt>
<rscale>  0 0.83969049E+03</rscale>
<asrwt>0</asrwt>
<pdfrwt beam="1">  1        2 0.28059861E+00 0.83969049E+03</pdfrwt>
<pdfrwt beam="2">  1       -2 0.13145496E+00 0.83969049E+03</pdfrwt>
<totfact> 0.35973990E+00</totfact>
</mgrwt>
</event>
<event>
 4    1  0.1033139E-008  0.9893582E+03  0.7818608E-02  0.9320294E-01
          2   -1    0    0  501    0  0.00000000000E+00  0.00000000000E+00  0.18459624546E+04  0.18459624546E+04  0.25500000000E-02 0. -1.
         -2   -1    0    0    0  501 -0.00000000000E+00 -0.00000000000E+00 -0.88605990188E+03  0.88605990188E+03  0.25500000000E-02 0.  1.
    8880022    1    1    2    0    0 -0.84643541523E+03 -0.48886094717E+03  0.13455748636E+04  0.16701500844E+04  0.15294330000E+03 0.  0.
    8880022    1    1    2    0    0  0.84643541523E+03  0.48886094717E+03 -0.38567231089E+03  0.10618722721E+04  0.15294330000E+03 0.  0.
<mgrwt>
<rscale>  0 0.98935817E+03</rscale>
<asrwt>0</asrwt>
<pdfrwt beam="1">  1        2 0.28399422E+00 0.98935817E+03</pdfrwt>
<pdfrwt beam="2">  1       -2 0.13631691E+00 0.98935817E+03</pdfrwt>
<totfact> 0.31236834E+00</totfact>
</mgrwt>
</event>
<event>
 4    1  0.1033139E-008  0.1266304E+04  0.7818608E-02  0.9056721E-01
          2   -1    0    0  501    0  0.00000000000E+00  0.00000000000E+00  0.20953264451E+04  0.20953264451E+04  0.25500000000E-02 0. -1.
         -2   -1    0    0    0  501 -0.00000000000E+00 -0.00000000000E+00 -0.13326442876E+04  0.13326442876E+04  0.25500000000E-02 0.  1.
    8880022    1    1    2    0    0  0.12401715243E+04  0.20520559743E+03 -0.73701023105E+03  0.14651656837E+04  0.15294330000E+03 0.  0.
    8880022    1    1    2    0    0 -0.12401715243E+04 -0.20520559743E+03  0.14996923886E+04  0.19628050490E+04  0.15294330000E+03 0.  0.
<mgrwt>
<rscale>  0 0.12663042E+04</rscale>
<asrwt>0</asrwt>
<pdfrwt beam="1">  1        2 0.32235791E+00 0.12663042E+04</pdfrwt>
<pdfrwt beam="2">  1       -2 0.20502220E+00 0.12663042E+04</pdfrwt>
<totfact> 0.70260452E-01</totfact>
</mgrwt>
</event>
<event>
 4    1  0.1033139E-008  0.8833126E+03  0.7818608E-02  0.9446685E-01
          2   -1    0    0  501    0  0.00000000000E+00  0.00000000000E+00  0.21397786315E+04  0.21397786315E+04  0.25500000000E-02 0. -1.
         -2   -1    0    0    0  501 -0.00000000000E+00 -0.00000000000E+00 -0.55535138521E+03  0.55535138522E+03  0.25500000000E-02 0.  1.
    8880022    1    1    2    0    0  0.21317655611E+03  0.84344842611E+03  0.25207435959E+01  0.88331619409E+03  0.15294330000E+03 0.  0.
    8880022    1    1    2    0    0 -0.21317655611E+03 -0.84344842611E+03  0.15819065027E+04  0.18118138226E+04  0.15294330000E+03 0.  0.
<mgrwt>
<rscale>  0 0.88331260E+03</rscale>
<asrwt>0</asrwt>
<pdfrwt beam="1">  1        2 0.32919672E+00 0.88331260E+03</pdfrwt>
<pdfrwt beam="2">  1       -2 0.85438674E-01 0.88331260E+03</pdfrwt>
<totfact> 0.67724335E+00</totfact>
</mgrwt>
</event>
<event>
 4    1  0.1033139E-008  0.5133687E+03  0.7818608E-02  0.1010347E+00
          2   -1    0    0  501    0  0.00000000000E+00  0.00000000000E+00  0.25386960870E+04  0.25386960870E+04  0.25500000000E-02 0. -1.
         -2   -1    0    0    0  501 -0.00000000000E+00 -0.00000000000E+00 -0.47375713203E+03  0.47375713204E+03  0.25500000000E-02 0.  1.
    8880022    1    1    2    0    0 -0.46898892920E+03 -0.14214485999E+03 -0.29853961310E+03  0.59386305705E+03  0.15294330000E+03 0.  0.
    8880022    1    1    2    0    0  0.46898892920E+03  0.14214485999E+03  0.23634785681E+04  0.24185901620E+04  0.15294330000E+03 0.  0.
<mgrwt>
<rscale>  0 0.51336871E+03</rscale>
<asrwt>0</asrwt>
<pdfrwt beam="1">  1        2 0.39056863E+00 0.51336871E+03</pdfrwt>
<pdfrwt beam="2">  1       -2 0.72885713E-01 0.51336871E+03</pdfrwt>
<totfact> 0.62177611E+00</totfact>
</mgrwt>
</event>
<event>
 4    1  0.1033139E-008  0.1108217E+04  0.7818608E-02  0.9197220E-01
          2   -1    0    0  501    0  0.00000000000E+00  0.00000000000E+00  0.26689970436E+04  0.26689970436E+04  0.25500000000E-02 0. -1.
         -2   -1    0    0    0  501 -0.00000000000E+00 -0.00000000000E+00 -0.11507456568E+04  0.11507456568E+04  0.25500000000E-02 0.  1.
    8880022    1    1    2    0    0  0.98136249408E+03  0.49161030950E+03  0.22386622187E+04  0.24979498041E+04  0.15294330000E+03 0.  0.
    8880022    1    1    2    0    0 -0.98136249408E+03 -0.49161030950E+03 -0.72041083193E+03  0.13217928964E+04  0.15294330000E+03 0.  0.
<mgrwt>
<rscale>  0 0.11082169E+04</rscale>
<asrwt>0</asrwt>
<pdfrwt beam="1">  1        2 0.41061493E+00 0.11082169E+04</pdfrwt>
<pdfrwt beam="2">  1       -2 0.17703779E+00 0.11082169E+04</pdfrwt>
<totfact> 0.52237982E-01</totfact>
</mgrwt>
</event>
<event>
 4    1  0.1033139E-008  0.9121253E+03  0.7818608E-02  0.9410550E-01
          2   -1    0    0  501    0  0.00000000000E+00  0.00000000000E+00  0.96566628647E+03  0.96566628648E+03  0.25500000000E-02 0. -1.
         -2   -1    0    0    0  501 -0.00000000000E+00 -0.00000000000E+00 -0.20448006316E+04  0.20448006316E+04  0.25500000000E-02 0.  1.
    8880022    1    1    2    0    0  0.24617964049E+03  0.86485635648E+03  0.60546112351E+03  0.10947857132E+04  0.15294330000E+03 0.  0.
    8880022    1    1    2    0    0 -0.24617964049E+03 -0.86485635648E+03 -0.16845954687E+04  0.19156812049E+04  0.15294330000E+03 0.  0.
<mgrwt>
<rscale>  0 0.91212531E+03</rscale>
<asrwt>0</asrwt>
<pdfrwt beam="1">  1        2 0.14856404E+00 0.91212531E+03</pdfrwt>
<pdfrwt beam="2">  1       -2 0.31458471E+00 0.91212531E+03</pdfrwt>
<totfact> 0.69922280E-01</totfact>
</mgrwt>
</event>
<event>
 4    1  0.1033139E-008  0.3553591E+03  0.7818608E-02  0.1060437E+00
         -2   -1    0    0    0  501 -0.00000000000E+00  0.00000000000E+00  0.91138609513E+03  0.91138609513E+03  0.25500000000E-02 0.  1.
          2   -1    0    0  501    0  0.00000000000E+00 -0.00000000000E+00 -0.15813058988E+04  0.15813058988E+04  0.25500000000E-02 0. -1.
    8880022    1    1    2    0    0 -0.27486553178E+03  0.16534012376E+03  0.85553040592E+03  0.92639750948E+03  0.15294330000E+03 0.  0.
    8880022    1    1    2    0    0  0.27486553178E+03 -0.16534012376E+03 -0.15254502096E+04  0.15662944845E+04  0.15294330000E+03 0.  0.
<mgrwt>
<rscale>  0 0.35535907E+03</rscale>
<asrwt>0</asrwt>
<pdfrwt beam="1">  1        2 0.24327783E+00 0.35535907E+03</pdfrwt>
<pdfrwt beam="2">  1       -2 0.14021325E+00 0.35535907E+03</pdfrwt>
<totfact> 0.45929309E+00</totfact>
</mgrwt>
</event>
<event>
 4    1  0.1033139E-008  0.9751879E+03  0.7818608E-02  0.9336185E-01
         -2   -1    0    0    0  501 -0.00000000000E+00  0.00000000000E+00  0.10621037320E+04  0.10621037320E+04  0.25500000000E-02 0.  1.
          2   -1    0    0  501    0  0.00000000000E+00 -0.00000000000E+00 -0.12378031550E+04  0.12378031550E+04  0.25500000000E-02 0. -1.
    8880022    1    1    2    0    0  0.96306398838E+03  0.10371405056E+02  0.51697987463E+03  0.11037480036E+04  0.15294330000E+03 0.  0.
    8880022    1    1    2    0    0 -0.96306398838E+03 -0.10371405056E+02 -0.69267929761E+03  0.11961588833E+04  0.15294330000E+03 0.  0.
<mgrwt>
<rscale>  0 0.97518791E+03</rscale>
<asrwt>0</asrwt>
<pdfrwt beam="1">  1        2 0.19043125E+00 0.97518791E+03</pdfrwt>
<pdfrwt beam="2">  1       -2 0.16340057E+00 0.97518791E+03</pdfrwt>
<totfact> 0.42512686E+00</totfact>
</mgrwt>
</event>
<event>
 4    1  0.1033139E-008  0.4144205E+03  0.7818608E-02  0.1038898E+00
          2   -1    0    0  501    0  0.00000000000E+00  0.00000000000E+00  0.10259516647E+04  0.10259516647E+04  0.25500000000E-02 0. -1.
         -2   -1    0    0    0  501 -0.00000000000E+00 -0.00000000000E+00 -0.86533588655E+03  0.86533588656E+03  0.25500000000E-02 0.  1.
    8880022    1    1    2    0    0  0.25191375225E+03  0.29136258141E+03 -0.76895659906E+03  0.87352080495E+03  0.15294330000E+03 0.  0.
    8880022    1    1    2    0    0 -0.25191375225E+03 -0.29136258141E+03  0.92957237719E+03  0.10177667463E+04  0.15294330000E+03 0.  0.
<mgrwt>
<rscale>  0 0.41442049E+03</rscale>
<asrwt>0</asrwt>
<pdfrwt beam="1">  1        2 0.15783872E+00 0.41442049E+03</pdfrwt>
<pdfrwt beam="2">  1       -2 0.13312860E+00 0.41442049E+03</pdfrwt>
<totfact> 0.10645575E+01</totfact>
</mgrwt>
</event>
<event>
 4    1  0.1033139E-008  0.3724962E+03  0.7818608E-02  0.1053743E+00
          2   -1    0    0  501    0  0.00000000000E+00  0.00000000000E+00  0.82711991934E+03  0.82711991935E+03  0.25500000000E-02 0. -1.
         -2   -1    0    0    0  501 -0.00000000000E+00 -0.00000000000E+00 -0.24242448803E+03  0.24242448805E+03  0.25500000000E-02 0.  1.
    8880022    1    1    2    0    0  0.32182413363E+03  0.10858628594E+03 -0.44444968030E+01  0.37252269870E+03  0.15294330000E+03 0.  0.
    8880022    1    1    2    0    0 -0.32182413363E+03 -0.10858628594E+03  0.58913992811E+03  0.69702170869E+03  0.15294330000E+03 0.  0.
<mgrwt>
<rscale>  0 0.37249618E+03</rscale>
<asrwt>0</asrwt>
<pdfrwt beam="1">  1        2 0.12724922E+00 0.37249618E+03</pdfrwt>
<pdfrwt beam="2">  1       -2 0.37296075E-01 0.37249618E+03</pdfrwt>
<totfact> 0.23109058E+02</totfact>
</mgrwt>
</event>
<event>
 4    1  0.1033139E-008  0.1212696E+04  0.7818608E-02  0.9101815E-01
          2   -1    0    0  501    0  0.00000000000E+00  0.00000000000E+00  0.25334014813E+04  0.25334014813E+04  0.25500000000E-02 0. -1.
         -2   -1    0    0    0  501 -0.00000000000E+00 -0.00000000000E+00 -0.11347672924E+04  0.11347672924E+04  0.25500000000E-02 0.  1.
    8880022    1    1    2    0    0  0.94125002373E+03 -0.74919259054E+03 -0.58250153879E+03  0.13453404181E+04  0.15294330000E+03 0.  0.
    8880022    1    1    2    0    0 -0.94125002373E+03  0.74919259054E+03  0.19811357277E+04  0.23228283556E+04  0.15294330000E+03 0.  0.
<mgrwt>
<rscale>  0 0.12126965E+04</rscale>
<asrwt>0</asrwt>
<pdfrwt beam="1">  1        2 0.38975407E+00 0.12126965E+04</pdfrwt>
<pdfrwt beam="2">  1       -2 0.17457958E+00 0.12126965E+04</pdfrwt>
<totfact> 0.64207770E-01</totfact>
</mgrwt>
</event>
<event>
 4    1  0.1033139E-008  0.1602368E+03  0.7818608E-02  0.1188430E+00
         -2   -1    0    0    0  501 -0.00000000000E+00  0.00000000000E+00  0.24809050414E+03  0.24809050415E+03  0.25500000000E-02 0.  1.
          2   -1    0    0  501    0  0.00000000000E+00 -0.00000000000E+00 -0.18045286165E+04  0.18045286165E+04  0.25500000000E-02 0. -1.
    8880022    1    1    2    0    0  0.12286858072E+02  0.46186656141E+02  0.21822538810E+03  0.27073630549E+03  0.15294330000E+03 0.  0.
    8880022    1    1    2    0    0 -0.12286858072E+02 -0.46186656141E+02 -0.17746635004E+04  0.17818828151E+04  0.15294330000E+03 0. -1.
<mgrwt>
<rscale>  0 0.16023678E+03</rscale>
<asrwt>0</asrwt>
<pdfrwt beam="1">  1        2 0.27761978E+00 0.16023678E+03</pdfrwt>
<pdfrwt beam="2">  1       -2 0.38167771E-01 0.16023678E+03</pdfrwt>
<totfact> 0.64992564E+01</totfact>
</mgrwt>
</event>
<event>
 4    1  0.1033139E-008  0.2552937E+03  0.7818608E-02  0.1110004E+00
         -2   -1    0    0    0  501 -0.00000000000E+00  0.00000000000E+00  0.13400680605E+03  0.13400680607E+03  0.25500000000E-02 0.  1.
          2   -1    0    0  501    0  0.00000000000E+00 -0.00000000000E+00 -0.22740126981E+04  0.22740126981E+04  0.25500000000E-02 0. -1.
    8880022    1    1    2    0    0  0.20422662077E+03 -0.86429201629E+01 -0.24835940436E+01  0.25530576561E+03  0.15294330000E+03 0.  0.
    8880022    1    1    2    0    0 -0.20422662077E+03  0.86429201629E+01 -0.21375222980E+04  0.21527137385E+04  0.15294330000E+03 0. -1.
<mgrwt>
<rscale>  0 0.25529369E+03</rscale>
<asrwt>0</asrwt>
<pdfrwt beam="1">  1        2 0.34984808E+00 0.25529369E+03</pdfrwt>
<pdfrwt beam="2">  1       -2 0.20616433E-01 0.25529369E+03</pdfrwt>
<totfact> 0.10735521E+02</totfact>
</mgrwt>
</event>
<event>
 4    1  0.1033139E-008  0.1239558E+04  0.7818608E-02  0.9078919E-01
          2   -1    0    0  501    0  0.00000000000E+00  0.00000000000E+00  0.80198080653E+03  0.80198080654E+03  0.25500000000E-02 0. -1.
         -2   -1    0    0    0  501 -0.00000000000E+00 -0.00000000000E+00 -0.22246923326E+04  0.22246923326E+04  0.25500000000E-02 0.  1.
    8880022    1    1    2    0    0 -0.12242977250E+04 -0.11919376460E+03 -0.12751799616E+04  0.17783665709E+04  0.15294330000E+03 0.  0.
    8880022    1    1    2    0    0  0.12242977250E+04  0.11919376460E+03 -0.14753156443E+03  0.12483065683E+04  0.15294330000E+03 0.  0.
<mgrwt>
<rscale>  0 0.12395579E+04</rscale>
<asrwt>0</asrwt>
<pdfrwt beam="1">  1        2 0.12338166E+00 0.12395579E+04</pdfrwt>
<pdfrwt beam="2">  1       -2 0.34226036E+00 0.12395579E+04</pdfrwt>
<totfact> 0.58548409E-01</totfact>
</mgrwt>
</event>
<event>
 4    1  0.1033139E-008  0.1004043E+04  0.7818608E-02  0.9304121E-01
         -2   -1    0    0    0  501 -0.00000000000E+00  0.00000000000E+00  0.10249468472E+04  0.10249468472E+04  0.25500000000E-02 0.  1.
          2   -1    0    0  501    0  0.00000000000E+00 -0.00000000000E+00 -0.22325455829E+04  0.22325455829E+04  0.25500000000E-02 0. -1.
    8880022    1    1    2    0    0  0.98988724675E+03  0.69533211854E+02  0.61443501270E+03  0.11771294180E+04  0.15294330000E+03 0.  0.
    8880022    1    1    2    0    0 -0.98988724675E+03 -0.69533211854E+02 -0.18220337484E+04  0.20803630121E+04  0.15294330000E+03 0.  0.
<mgrwt>
<rscale>  0 0.10040435E+04</rscale>
<asrwt>0</asrwt>
<pdfrwt beam="1">  1        2 0.34346855E+00 0.10040435E+04</pdfrwt>
<pdfrwt beam="2">  1       -2 0.15768413E+00 0.10040435E+04</pdfrwt>
<totfact> 0.12978454E+00</totfact>
</mgrwt>
</event>
<event>
 4    1  0.1033139E-008  0.8593773E+03  0.7818608E-02  0.9477837E-01
          2   -1    0    0  501    0  0.00000000000E+00  0.00000000000E+00  0.26203563640E+04  0.26203563640E+04  0.25500000000E-02 0. -1.
         -2   -1    0    0    0  501 -0.00000000000E+00 -0.00000000000E+00 -0.56613009417E+03  0.56613009417E+03  0.25500000000E-02 0.  1.
    8880022    1    1    2    0    0  0.30687186977E+03  0.78801483560E+03  0.21561352563E+04  0.23210878100E+04  0.15294330000E+03 0.  0.
    8880022    1    1    2    0    0 -0.30687186977E+03 -0.78801483560E+03 -0.10190898647E+03  0.86539864810E+03  0.15294330000E+03 0.  0.
<mgrwt>
<rscale>  0 0.85937732E+03</rscale>
<asrwt>0</asrwt>
<pdfrwt beam="1">  1        2 0.40313174E+00 0.85937732E+03</pdfrwt>
<pdfrwt beam="2">  1       -2 0.87096939E-01 0.85937732E+03</pdfrwt>
<totfact> 0.34877190E+00</totfact>
</mgrwt>
</event>
<event>
 4    1  0.1033139E-008  0.5115370E+03  0.7818608E-02  0.1010811E+00
         -2   -1    0    0    0  501 -0.00000000000E+00  0.00000000000E+00  0.19719784980E+03  0.19719784982E+03  0.25500000000E-02 0.  1.
          2   -1    0    0  501    0  0.00000000000E+00 -0.00000000000E+00 -0.28005198372E+04  0.28005198372E+04  0.25500000000E-02 0. -1.
    8880022    1    1    2    0    0 -0.17340345501E+03  0.45629994543E+03 -0.21441456016E+03  0.55465633958E+03  0.15294330000E+03 0.  0.
    8880022    1    1    2    0    0  0.17340345501E+03 -0.45629994543E+03 -0.23889074273E+04  0.24430613475E+04  0.15294330000E+03 0.  0.
<mgrwt>
<rscale>  0 0.51153695E+03</rscale>
<asrwt>0</asrwt>
<pdfrwt beam="1">  1        2 0.43084918E+00 0.51153695E+03</pdfrwt>
<pdfrwt beam="2">  1       -2 0.30338133E-01 0.51153695E+03</pdfrwt>
<totfact> 0.25541886E+01</totfact>
</mgrwt>
</event>
<event>
 4    1  0.1033139E-008  0.4229453E+03  0.7818608E-02  0.1036112E+00
          2   -1    0    0  501    0  0.00000000000E+00  0.00000000000E+00  0.16715361194E+04  0.16715361194E+04  0.25500000000E-02 0. -1.
         -2   -1    0    0    0  501 -0.00000000000E+00 -0.00000000000E+00 -0.25497264627E+03  0.25497264628E+03  0.25500000000E-02 0.  1.
    8880022    1    1    2    0    0  0.19069236408E+03 -0.34514847936E+03  0.14420518817E+04  0.15027961715E+04  0.15294330000E+03 0.  0.
    8880022    1    1    2    0    0 -0.19069236408E+03  0.34514847936E+03 -0.25488408525E+02  0.42371259423E+03  0.15294330000E+03 0.  0.
<mgrwt>
<rscale>  0 0.42294527E+03</rscale>
<asrwt>0</asrwt>
<pdfrwt beam="1">  1        2 0.25715940E+00 0.42294527E+03</pdfrwt>
<pdfrwt beam="2">  1       -2 0.39226561E-01 0.42294527E+03</pdfrwt>
<totfact> 0.66905288E+01</totfact>
</mgrwt>
</event>
<event>
 4    1  0.1033139E-008  0.3755283E+03  0.7818608E-02  0.1052599E+00
          2   -1    0    0  501    0  0.00000000000E+00  0.00000000000E+00  0.19958955583E+04  0.19958955583E+04  0.25500000000E-02 0. -1.
         -2   -1    0    0    0  501 -0.00000000000E+00 -0.00000000000E+00 -0.27965634767E+03  0.27965634768E+03  0.25500000000E-02 0.  1.
    8880022    1    1    2    0    0  0.24717735681E+03  0.23776707033E+03 -0.12547963339E+03  0.39593764265E+03  0.15294330000E+03 0.  0.
    8880022    1    1    2    0    0 -0.24717735681E+03 -0.23776707033E+03  0.18417188440E+04  0.18796142633E+04  0.15294330000E+03 0.  0.
<mgrwt>
<rscale>  0 0.37552827E+03</rscale>
<asrwt>0</asrwt>
<pdfrwt beam="1">  1        2 0.30706087E+00 0.37552827E+03</pdfrwt>
<pdfrwt beam="2">  1       -2 0.43024052E-01 0.37552827E+03</pdfrwt>
<totfact> 0.37933824E+01</totfact>
</mgrwt>
</event>
<event>
 4    1  0.1033139E-008  0.1062990E+04  0.7818608E-02  0.9242034E-01
         -2   -1    0    0    0  501 -0.00000000000E+00  0.00000000000E+00  0.14208685953E+04  0.14208685953E+04  0.25500000000E-02 0.  1.
          2   -1    0    0  501    0  0.00000000000E+00 -0.00000000000E+00 -0.15440466501E+04  0.15440466501E+04  0.25500000000E-02 0. -1.
    8880022    1    1    2    0    0 -0.65008348519E+03  0.82701130533E+03  0.97077672427E+03  0.14395677609E+04  0.15294330000E+03 0.  0.
    8880022    1    1    2    0    0  0.65008348519E+03 -0.82701130533E+03 -0.10939547790E+04  0.15253474845E+04  0.15294330000E+03 0.  0.
<mgrwt>
<rscale>  0 0.10629901E+04</rscale>
<asrwt>0</asrwt>
<pdfrwt beam="1">  1        2 0.23754564E+00 0.10629901E+04</pdfrwt>
<pdfrwt beam="2">  1       -2 0.21859517E+00 0.10629901E+04</pdfrwt>
<totfact> 0.11934109E+00</totfact>
</mgrwt>
</event>
<event>
 4    1  0.1376833E-008  0.1340379E+04  0.7818608E-02  0.8998143E-01
          2   -1    0    0  501    0  0.00000000000E+00  0.00000000000E+00  0.25358878028E+04  0.25358878028E+04  0.25500000000E-02 0. -1.
         -2   -1    0    0    0  501 -0.00000000000E+00 -0.00000000000E+00 -0.16698205236E+04  0.16698205236E+04  0.25500000000E-02 0.  1.
    8880022    1    1    2    0    0 -0.12493091745E+04 -0.46092303946E+03  0.20285961849E+04  0.24314229571E+04  0.15294330000E+03 0.  0.
    8880022    1    1    2    0    0  0.12493091745E+04  0.46092303946E+03 -0.11625289058E+04  0.17742853693E+04  0.15294330000E+03 0.  0.
<mgrwt>
<rscale>  0 0.13403787E+04</rscale>
<asrwt>0</asrwt>
<pdfrwt beam="1">  1        2 0.39013658E+00 0.13403787E+04</pdfrwt>
<pdfrwt beam="2">  1       -2 0.25689547E+00 0.13403787E+04</pdfrwt>
<totfact> 0.18527408E-01</totfact>
</mgrwt>
</event>
<event>
 4    1  0.1033139E-008  0.5006710E+03  0.7818608E-02  0.1013604E+00
          2   -1    0    0  501    0  0.00000000000E+00  0.00000000000E+00  0.13186497644E+04  0.13186497644E+04  0.25500000000E-02 0. -1.
         -2   -1    0    0    0  501 -0.00000000000E+00 -0.00000000000E+00 -0.50645147014E+03  0.50645147015E+03  0.25500000000E-02 0.  1.
    8880022    1    1    2    0    0  0.15425807562E+03 -0.45109224579E+03  0.11273311734E+04  0.12335100306E+04  0.15294330000E+03 0.  0.
    8880022    1    1    2    0    0 -0.15425807562E+03  0.45109224579E+03 -0.31513287910E+03  0.59159120397E+03  0.15294330000E+03 0.  0.
<mgrwt>
<rscale>  0 0.50067097E+03</rscale>
<asrwt>0</asrwt>
<pdfrwt beam="1">  1        2 0.20286919E+00 0.50067097E+03</pdfrwt>
<pdfrwt beam="2">  1       -2 0.77915613E-01 0.50067097E+03</pdfrwt>
<totfact> 0.24976884E+01</totfact>
</mgrwt>
</event>
<event>
 4    1  0.1033139E-008  0.3527462E+03  0.7818608E-02  0.1061494E+00
          2   -1    0    0  501    0  0.00000000000E+00  0.00000000000E+00  0.16040709224E+04  0.16040709224E+04  0.25500000000E-02 0. -1.
         -2   -1    0    0    0  501 -0.00000000000E+00 -0.00000000000E+00 -0.95336326653E+03  0.95336326654E+03  0.25500000000E-02 0.  1.
    8880022    1    1    2    0    0  0.31260506060E+03 -0.57587247784E+02 -0.90023767766E+03  0.96688041883E+03  0.15294330000E+03 0.  0.
    8880022    1    1    2    0    0 -0.31260506060E+03  0.57587247784E+02  0.15509453336E+04  0.15905537702E+04  0.15294330000E+03 0. -1.
<mgrwt>
<rscale>  0 0.35274618E+03</rscale>
<asrwt>0</asrwt>
<pdfrwt beam="1">  1        2 0.24678014E+00 0.35274618E+03</pdfrwt>
<pdfrwt beam="2">  1       -2 0.14667127E+00 0.35274618E+03</pdfrwt>
<totfact> 0.39804508E+00</totfact>
</mgrwt>
</event>
<event>
 4    1  0.1033139E-008  0.2903318E+03  0.7818608E-02  0.1090176E+00
          2   -1    0    0  501    0  0.00000000000E+00  0.00000000000E+00  0.14425121580E+04  0.14425121580E+04  0.25500000000E-02 0. -1.
         -2   -1    0    0    0  501 -0.00000000000E+00 -0.00000000000E+00 -0.30358395371E+03  0.30358395372E+03  0.25500000000E-02 0.  1.
    8880022    1    1    2    0    0 -0.20706388679E+03  0.13425892398E+03 -0.21507420494E+03  0.36131631367E+03  0.15294330000E+03 0.  0.
    8880022    1    1    2    0    0  0.20706388679E+03 -0.13425892398E+03  0.13540024092E+04  0.13847797980E+04  0.15294330000E+03 0. -1.
<mgrwt>
<rscale>  0 0.29033182E+03</rscale>
<asrwt>0</asrwt>
<pdfrwt beam="1">  1        2 0.22192495E+00 0.29033182E+03</pdfrwt>
<pdfrwt beam="2">  1       -2 0.46705223E-01 0.29033182E+03</pdfrwt>
<totfact> 0.65098403E+01</totfact>
</mgrwt>
</event>
<event>
 4    1  0.1033139E-008  0.4085113E+03  0.7818608E-02  0.1040872E+00
         -2   -1    0    0    0  501 -0.00000000000E+00  0.00000000000E+00  0.31949630980E+03  0.31949630981E+03  0.25500000000E-02 0.  1.
          2   -1    0    0  501    0  0.00000000000E+00 -0.00000000000E+00 -0.12266883139E+04  0.12266883139E+04  0.25500000000E-02 0. -1.
    8880022    1    1    2    0    0  0.23694014436E+03 -0.29554901160E+03 -0.10394130851E+04  0.11168084279E+04  0.15294330000E+03 0.  0.
    8880022    1    1    2    0    0 -0.23694014436E+03  0.29554901160E+03  0.13222108095E+03  0.42937619581E+03  0.15294330000E+03 0.  0.
<mgrwt>
<rscale>  0 0.40851133E+03</rscale>
<asrwt>0</asrwt>
<pdfrwt beam="1">  1        2 0.18872128E+00 0.40851133E+03</pdfrwt>
<pdfrwt beam="2">  1       -2 0.49153279E-01 0.40851133E+03</pdfrwt>
<totfact> 0.75714772E+01</totfact>
</mgrwt>
</event>
<event>
 4    1  0.1033139E-008  0.8634843E+03  0.7818608E-02  0.9472415E-01
         -2   -1    0    0    0  501 -0.00000000000E+00  0.00000000000E+00  0.51311743643E+03  0.51311743643E+03  0.25500000000E-02 0.  1.
          2   -1    0    0  501    0  0.00000000000E+00 -0.00000000000E+00 -0.18759159551E+04  0.18759159551E+04  0.25500000000E-02 0. -1.
    8880022    1    1    2    0    0 -0.63539929134E+03 -0.56434134561E+03 -0.11428952167E+03  0.87101501800E+03  0.15294330000E+03 0.  0.
    8880022    1    1    2    0    0  0.63539929134E+03  0.56434134561E+03 -0.12485089970E+04  0.15180183736E+04  0.15294330000E+03 0.  0.
<mgrwt>
<rscale>  0 0.86348426E+03</rscale>
<asrwt>0</asrwt>
<pdfrwt beam="1">  1        2 0.28860245E+00 0.86348426E+03</pdfrwt>
<pdfrwt beam="2">  1       -2 0.78941145E-01 0.86348426E+03</pdfrwt>
<totfact> 0.11339062E+01</totfact>
</mgrwt>
</event>
<event>
 4    1  0.1033139E-008  0.7951035E+03  0.7818608E-02  0.9567132E-01
         -2   -1    0    0    0  501 -0.00000000000E+00  0.00000000000E+00  0.33903337350E+03  0.33903337351E+03  0.25500000000E-02 0.  1.
          2   -1    0    0  501    0  0.00000000000E+00 -0.00000000000E+00 -0.30563536018E+04  0.30563536018E+04  0.25500000000E-02 0. -1.
    8880022    1    1    2    0    0 -0.70580252611E+03  0.33262692043E+03 -0.29858722950E+03  0.84931964577E+03  0.15294330000E+03 0.  0.
    8880022    1    1    2    0    0  0.70580252611E+03 -0.33262692043E+03 -0.24187329988E+04  0.25460673295E+04  0.15294330000E+03 0.  0.
<mgrwt>
<rscale>  0 0.79510347E+03</rscale>
<asrwt>0</asrwt>
<pdfrwt beam="1">  1        2 0.47020823E+00 0.79510347E+03</pdfrwt>
<pdfrwt beam="2">  1       -2 0.52158983E-01 0.79510347E+03</pdfrwt>
<totfact> 0.58924493E+00</totfact>
</mgrwt>
</event>
<event>
 4    1  0.1033139E-008  0.4038999E+03  0.7818608E-02  0.1042438E+00
         -2   -1    0    0    0  501 -0.00000000000E+00  0.00000000000E+00  0.52265014647E+03  0.52265014647E+03  0.25500000000E-02 0.  1.
          2   -1    0    0  501    0  0.00000000000E+00 -0.00000000000E+00 -0.12175389187E+04  0.12175389187E+04  0.25500000000E-02 0. -1.
    8880022    1    1    2    0    0  0.33905010276E+03 -0.15744357413E+03  0.40287687622E+03  0.57047776611E+03  0.15294330000E+03 0.  1.
    8880022    1    1    2    0    0 -0.33905010276E+03  0.15744357413E+03 -0.10977656485E+04  0.11697112991E+04  0.15294330000E+03 0.  0.
<mgrwt>
<rscale>  0 0.40389987E+03</rscale>
<asrwt>0</asrwt>
<pdfrwt beam="1">  1        2 0.18731368E+00 0.40389987E+03</pdfrwt>
<pdfrwt beam="2">  1       -2 0.80407715E-01 0.40389987E+03</pdfrwt>
<totfact> 0.27075829E+01</totfact>
</mgrwt>
</event>
<event>
 4    1  0.1033139E-008  0.4832597E+03  0.7818608E-02  0.1018243E+00
         -2   -1    0    0    0  501 -0.00000000000E+00  0.00000000000E+00  0.33809439821E+03  0.33809439821E+03  0.25500000000E-02 0.  1.
          2   -1    0    0  501    0  0.00000000000E+00 -0.00000000000E+00 -0.16692472376E+04  0.16692472376E+04  0.25500000000E-02 0. -1.
    8880022    1    1    2    0    0 -0.36405799041E+03 -0.27858574336E+03  0.10286362506E+03  0.49408583784E+03  0.15294330000E+03 0.  0.
    8880022    1    1    2    0    0  0.36405799041E+03  0.27858574336E+03 -0.14340164645E+04  0.15132557980E+04  0.15294330000E+03 0.  0.
<mgrwt>
<rscale>  0 0.48325965E+03</rscale>
<asrwt>0</asrwt>
<pdfrwt beam="1">  1        2 0.25680726E+00 0.48325965E+03</pdfrwt>
<pdfrwt beam="2">  1       -2 0.52014524E-01 0.48325965E+03</pdfrwt>
<totfact> 0.37945694E+01</totfact>
</mgrwt>
</event>
<event>
 4    1  0.1033139E-008  0.1295085E+04  0.7818608E-02  0.9033472E-01
         -2   -1    0    0    0  501 -0.00000000000E+00  0.00000000000E+00  0.63978270180E+03  0.63978270181E+03  0.25500000000E-02 0.  1.
          2   -1    0    0  501    0  0.00000000000E+00 -0.00000000000E+00 -0.27856421383E+04  0.27856421383E+04  0.25500000000E-02 0. -1.
    8880022    1    1    2    0    0  0.11928532256E+04  0.48057797281E+03 -0.14885698165E+04  0.19730904078E+04  0.15294330000E+03 0.  0.
    8880022    1    1    2    0    0 -0.11928532256E+04 -0.48057797281E+03 -0.65728961998E+03  0.14523344323E+04  0.15294330000E+03 0.  0.
<mgrwt>
<rscale>  0 0.12950852E+04</rscale>
<asrwt>0</asrwt>
<pdfrwt beam="1">  1        2 0.42856032E+00 0.12950852E+04</pdfrwt>
<pdfrwt beam="2">  1       -2 0.98428109E-01 0.12950852E+04</pdfrwt>
<totfact> 0.19749648E+00</totfact>
</mgrwt>
</event>
<event>
 4    1  0.1033139E-008  0.3347470E+03  0.7818608E-02  0.1069056E+00
         -2   -1    0    0    0  501 -0.00000000000E+00  0.00000000000E+00  0.56489568274E+02  0.56489568332E+02  0.25500000000E-02 0.  1.
          2   -1    0    0  501    0  0.00000000000E+00 -0.00000000000E+00 -0.23830703743E+04  0.23830703743E+04  0.25500000000E-02 0. -1.
    8880022    1    1    2    0    0 -0.17065252952E+02  0.29727542758E+03 -0.66391408297E+03  0.74353040643E+03  0.15294330000E+03 0.  0.
    8880022    1    1    2    0    0  0.17065252952E+02 -0.29727542758E+03 -0.16626667230E+04  0.16960295362E+04  0.15294330000E+03 0. -1.
<mgrwt>
<rscale>  0 0.33474700E+03</rscale>
<asrwt>0</asrwt>
<pdfrwt beam="1">  1        2 0.36662613E+00 0.33474700E+03</pdfrwt>
<pdfrwt beam="2">  1       -2 0.86907047E-02 0.33474700E+03</pdfrwt>
<totfact> 0.38093158E+02</totfact>
</mgrwt>
</event>
<event>
 4    1  0.1033139E-008  0.4895385E+03  0.7818608E-02  0.1016546E+00
         -2   -1    0    0    0  501 -0.00000000000E+00  0.00000000000E+00  0.44173024235E+03  0.44173024235E+03  0.25500000000E-02 0.  1.
          2   -1    0    0  501    0  0.00000000000E+00 -0.00000000000E+00 -0.89473061098E+03  0.89473061099E+03  0.25500000000E-02 0. -1.
    8880022    1    1    2    0    0  0.44388452330E+03 -0.13864647698E+03  0.19275713192E+03  0.52612097518E+03  0.15294330000E+03 0.  0.
    8880022    1    1    2    0    0 -0.44388452330E+03  0.13864647698E+03 -0.64575750056E+03  0.81033987817E+03  0.15294330000E+03 0.  0.
<mgrwt>
<rscale>  0 0.48953853E+03</rscale>
<asrwt>0</asrwt>
<pdfrwt beam="1">  1        2 0.13765086E+00 0.48953853E+03</pdfrwt>
<pdfrwt beam="2">  1       -2 0.67958499E-01 0.48953853E+03</pdfrwt>
<totfact> 0.60978226E+01</totfact>
</mgrwt>
</event>
<event>
 4    1  0.1033139E-008  0.8640814E+03  0.7818608E-02  0.9471630E-01
          2   -1    0    0  501    0  0.00000000000E+00  0.00000000000E+00  0.25587625224E+04  0.25587625224E+04  0.25500000000E-02 0. -1.
         -2   -1    0    0    0  501 -0.00000000000E+00 -0.00000000000E+00 -0.74905162183E+03  0.74905162183E+03  0.25500000000E-02 0.  1.
    8880022    1    1    2    0    0 -0.83601527781E+03 -0.15595976413E+03  0.21970703999E+04  0.23608801299E+04  0.15294330000E+03 0. -1.
    8880022    1    1    2    0    0  0.83601527781E+03  0.15595976413E+03 -0.38735949931E+03  0.94693401432E+03  0.15294330000E+03 0.  0.
<mgrwt>
<rscale>  0 0.86408139E+03</rscale>
<asrwt>0</asrwt>
<pdfrwt beam="1">  1        2 0.39365577E+00 0.86408139E+03</pdfrwt>
<pdfrwt beam="2">  1       -2 0.11523871E+00 0.86408139E+03</pdfrwt>
<totfact> 0.19451941E+00</totfact>
</mgrwt>
</event>
<event>
 4    1  0.1033139E-008  0.6060533E+03  0.7818608E-02  0.9892926E-01
         -2   -1    0    0    0  501 -0.00000000000E+00  0.00000000000E+00  0.83301658727E+03  0.83301658727E+03  0.25500000000E-02 0.  1.
          2   -1    0    0  501    0  0.00000000000E+00 -0.00000000000E+00 -0.21109841561E+04  0.21109841561E+04  0.25500000000E-02 0. -1.
    8880022    1    1    2    0    0  0.30270910257E+02  0.58565569181E+03  0.67029139200E+03  0.90365431474E+03  0.15294330000E+03 0.  0.
    8880022    1    1    2    0    0 -0.30270910257E+02 -0.58565569181E+03 -0.19482589609E+04  0.20403464287E+04  0.15294330000E+03 0. -1.
<mgrwt>
<rscale>  0 0.60605327E+03</rscale>
<asrwt>0</asrwt>
<pdfrwt beam="1">  1        2 0.32476679E+00 0.60605327E+03</pdfrwt>
<pdfrwt beam="2">  1       -2 0.12815640E+00 0.60605327E+03</pdfrwt>
<totfact> 0.27923431E+00</totfact>
</mgrwt>
</event>
<event>
 4    1  0.1033139E-008  0.1095295E+04  0.7818608E-02  0.9209790E-01
         -2   -1    0    0    0  501 -0.00000000000E+00  0.00000000000E+00  0.85237102242E+03  0.85237102242E+03  0.25500000000E-02 0.  1.
          2   -1    0    0  501    0  0.00000000000E+00 -0.00000000000E+00 -0.17556802139E+04  0.17556802139E+04  0.25500000000E-02 0. -1.
    8880022    1    1    2    0    0 -0.96669273112E+03 -0.49171573575E+03 -0.10324132898E+04  0.15051737625E+04  0.15294330000E+03 0.  0.
    8880022    1    1    2    0    0  0.96669273112E+03  0.49171573575E+03  0.12910409832E+03  0.11028774739E+04  0.15294330000E+03 0.  0.
<mgrwt>
<rscale>  0 0.10952949E+04</rscale>
<asrwt>0</asrwt>
<pdfrwt beam="1">  1        2 0.27010465E+00 0.10952949E+04</pdfrwt>
<pdfrwt beam="2">  1       -2 0.13113400E+00 0.10952949E+04</pdfrwt>
<totfact> 0.38202956E+00</totfact>
</mgrwt>
</event>
<event>
 4    1  0.1033139E-008  0.1017360E+04  0.7818608E-02  0.9289707E-01
         -2   -1    0    0    0  501 -0.00000000000E+00  0.00000000000E+00  0.12380797186E+04  0.12380797186E+04  0.25500000000E-02 0.  1.
          2   -1    0    0  501    0  0.00000000000E+00 -0.00000000000E+00 -0.11010201196E+04  0.11010201196E+04  0.25500000000E-02 0. -1.
    8880022    1    1    2    0    0  0.67607100977E+03  0.74468575906E+03 -0.50528254997E+03  0.11359273737E+04  0.15294330000E+03 0.  0.
    8880022    1    1    2    0    0 -0.67607100977E+03 -0.74468575906E+03  0.64234214902E+03  0.12031724645E+04  0.15294330000E+03 0.  0.
<mgrwt>
<rscale>  0 0.10173596E+04</rscale>
<asrwt>0</asrwt>
<pdfrwt beam="1">  1        2 0.16938771E+00 0.10173596E+04</pdfrwt>
<pdfrwt beam="2">  1       -2 0.19047380E+00 0.10173596E+04</pdfrwt>
<totfact> 0.33130877E+00</totfact>
</mgrwt>
</event>
<event>
 4    1  0.1033139E-008  0.9271257E+03  0.7818608E-02  0.9392294E-01
         -2   -1    0    0    0  501 -0.00000000000E+00  0.00000000000E+00  0.79212020405E+03  0.79212020405E+03  0.25500000000E-02 0.  1.
          2   -1    0    0  501    0  0.00000000000E+00 -0.00000000000E+00 -0.18423590896E+04  0.18423590896E+04  0.25500000000E-02 0. -1.
    8880022    1    1    2    0    0  0.64839084585E+03 -0.64479433556E+03  0.31935819829E+03  0.98058744433E+03  0.15294330000E+03 0.  0.
    8880022    1    1    2    0    0 -0.64839084585E+03  0.64479433556E+03 -0.13695970839E+04  0.16538918493E+04  0.15294330000E+03 0.  0.
<mgrwt>
<rscale>  0 0.92712571E+03</rscale>
<asrwt>0</asrwt>
<pdfrwt beam="1">  1        2 0.28343986E+00 0.92712571E+03</pdfrwt>
<pdfrwt beam="2">  1       -2 0.12186465E+00 0.92712571E+03</pdfrwt>
<totfact> 0.42026568E+00</totfact>
</mgrwt>
</event>
<event>
 4    1  0.1033139E-008  0.1156965E+04  0.7818608E-02  0.9151382E-01
          2   -1    0    0  501    0  0.00000000000E+00  0.00000000000E+00  0.17884796699E+04  0.17884796699E+04  0.25500000000E-02 0. -1.
         -2   -1    0    0    0  501 -0.00000000000E+00 -0.00000000000E+00 -0.81428139187E+03  0.81428139187E+03  0.25500000000E-02 0.  1.
    8880022    1    1    2    0    0  0.11152282633E+04 -0.26728626108E+03  0.11704068904E+03  0.11628698124E+04  0.15294330000E+03 0.  0.
    8880022    1    1    2    0    0 -0.11152282633E+04  0.26728626108E+03  0.85715758895E+03  0.14398912493E+04  0.15294330000E+03 0.  0.
<mgrwt>
<rscale>  0 0.11569649E+04</rscale>
<asrwt>0</asrwt>
<pdfrwt beam="1">  1        2 0.27515072E+00 0.11569649E+04</pdfrwt>
<pdfrwt beam="2">  1       -2 0.12527406E+00 0.11569649E+04</pdfrwt>
<totfact> 0.40880295E+00</totfact>
</mgrwt>
</event>
<event>
 4    1  0.1033139E-008  0.1190165E+04  0.7818608E-02  0.9121509E-01
          2   -1    0    0  501    0  0.00000000000E+00  0.00000000000E+00  0.23737181126E+04  0.23737181126E+04  0.25500000000E-02 0. -1.
         -2   -1    0    0    0  501 -0.00000000000E+00 -0.00000000000E+00 -0.89145413336E+03  0.89145413337E+03  0.25500000000E-02 0.  1.
    8880022    1    1    2    0    0  0.11641826169E+04  0.19437200761E+03 -0.19756807625E+03  0.12064520050E+04  0.15294330000E+03 0.  0.
    8880022    1    1    2    0    0 -0.11641826169E+04 -0.19437200761E+03  0.16798320555E+04  0.20587202409E+04  0.15294330000E+03 0.  0.
<mgrwt>
<rscale>  0 0.11901652E+04</rscale>
<asrwt>0</asrwt>
<pdfrwt beam="1">  1        2 0.36518739E+00 0.11901652E+04</pdfrwt>
<pdfrwt beam="2">  1       -2 0.13714679E+00 0.11901652E+04</pdfrwt>
<totfact> 0.15260071E+00</totfact>
</mgrwt>
</event>
<event>
 4    1  0.1033139E-008  0.1320827E+04  0.7818608E-02  0.9013210E-01
         -2   -1    0    0    0  501 -0.00000000000E+00  0.00000000000E+00  0.11648498094E+04  0.11648498094E+04  0.25500000000E-02 0.  1.
          2   -1    0    0  501    0  0.00000000000E+00 -0.00000000000E+00 -0.23005318430E+04  0.23005318430E+04  0.25500000000E-02 0. -1.
    8880022    1    1    2    0    0  0.28836905245E+03  0.12798574787E+04  0.45573956838E+03  0.13972408824E+04  0.15294330000E+03 0.  0.
    8880022    1    1    2    0    0 -0.28836905245E+03 -0.12798574787E+04 -0.15914216020E+04  0.20681407700E+04  0.15294330000E+03 0.  0.
<mgrwt>
<rscale>  0 0.13208268E+04</rscale>
<asrwt>0</asrwt>
<pdfrwt beam="1">  1        2 0.35392798E+00 0.13208268E+04</pdfrwt>
<pdfrwt beam="2">  1       -2 0.17920766E+00 0.13208268E+04</pdfrwt>
<totfact> 0.79834829E-01</totfact>
</mgrwt>
</event>
<event>
 4    1  0.1033139E-008  0.1016834E+04  0.7818608E-02  0.9290271E-01
          2   -1    0    0  501    0  0.00000000000E+00  0.00000000000E+00  0.12432155743E+04  0.12432155743E+04  0.25500000000E-02 0. -1.
         -2   -1    0    0    0  501 -0.00000000000E+00 -0.00000000000E+00 -0.94828938184E+03  0.94828938184E+03  0.25500000000E-02 0.  1.
    8880022    1    1    2    0    0 -0.68788650470E+03 -0.73305713329E+03  0.53171555983E+03  0.11474640271E+04  0.15294330000E+03 0.  0.
    8880022    1    1    2    0    0  0.68788650470E+03  0.73305713329E+03 -0.23678936733E+03  0.10440409290E+04  0.15294330000E+03 0.  0.
<mgrwt>
<rscale>  0 0.10168344E+04</rscale>
<asrwt>0</asrwt>
<pdfrwt beam="1">  1        2 0.19126393E+00 0.10168344E+04</pdfrwt>
<pdfrwt beam="2">  1       -2 0.14589067E+00 0.10168344E+04</pdfrwt>
<totfact> 0.56978936E+00</totfact>
</mgrwt>
</event>
<event>
 4    1  0.1033139E-008  0.1147953E+04  0.7818608E-02  0.9159674E-01
         -2   -1    0    0    0  501 -0.00000000000E+00  0.00000000000E+00  0.11466147994E+04  0.11466147994E+04  0.25500000000E-02 0.  1.
          2   -1    0    0  501    0  0.00000000000E+00 -0.00000000000E+00 -0.38152082969E+04  0.38152082969E+04  0.25500000000E-02 0. -1.
    8880022    1    1    2    0    0 -0.24959470054E+03  0.11100031324E+04 -0.34081372134E+04  0.35962752102E+04  0.15294330000E+03 0.  0.
    8880022    1    1    2    0    0  0.24959470054E+03 -0.11100031324E+04  0.73954371590E+03  0.13655478861E+04  0.15294330000E+03 0.  0.
<mgrwt>
<rscale>  0 0.11479530E+04</rscale>
<asrwt>0</asrwt>
<pdfrwt beam="1">  1        2 0.58695512E+00 0.11479530E+04</pdfrwt>
<pdfrwt beam="2">  1       -2 0.17640228E+00 0.11479530E+04</pdfrwt>
<totfact> 0.92827932E-02</totfact>
</mgrwt>
</event>
<event>
 4    1  0.1033139E-008  0.1236639E+04  0.7818608E-02  0.9081378E-01
          2   -1    0    0  501    0  0.00000000000E+00  0.00000000000E+00  0.14552650436E+04  0.14552650437E+04  0.25500000000E-02 0. -1.
         -2   -1    0    0    0  501 -0.00000000000E+00 -0.00000000000E+00 -0.17509059702E+04  0.17509059702E+04  0.25500000000E-02 0.  1.
    8880022    1    1    2    0    0 -0.12209020458E+04  0.12361994614E+03 -0.11614739291E+04  0.16965544605E+04  0.15294330000E+03 0.  0.
    8880022    1    1    2    0    0  0.12209020458E+04 -0.12361994614E+03  0.86583300255E+03  0.15096165533E+04  0.15294330000E+03 0.  0.
<mgrwt>
<rscale>  0 0.12366387E+04</rscale>
<asrwt>0</asrwt>
<pdfrwt beam="1">  1        2 0.22388693E+00 0.12366387E+04</pdfrwt>
<pdfrwt beam="2">  1       -2 0.26937015E+00 0.12366387E+04</pdfrwt>
<totfact> 0.63737559E-01</totfact>
</mgrwt>
</event>
<event>
 4    1  0.1033139E-008  0.7272079E+03  0.7818608E-02  0.9671802E-01
          2   -1    0    0  501    0  0.00000000000E+00  0.00000000000E+00  0.97964882006E+03  0.97964882007E+03  0.25500000000E-02 0. -1.
         -2   -1    0    0    0  501 -0.00000000000E+00 -0.00000000000E+00 -0.75157196167E+03  0.75157196167E+03  0.25500000000E-02 0.  1.
    8880022    1    1    2    0    0  0.55822801380E+03 -0.44025123543E+03  0.57350480135E+03  0.92614203871E+03  0.15294330000E+03 0.  0.
    8880022    1    1    2    0    0 -0.55822801380E+03  0.44025123543E+03 -0.34542794295E+03  0.80507874303E+03  0.15294330000E+03 0.  0.
<mgrwt>
<rscale>  0 0.72720789E+03</rscale>
<asrwt>0</asrwt>
<pdfrwt beam="1">  1        2 0.15071520E+00 0.72720789E+03</pdfrwt>
<pdfrwt beam="2">  1       -2 0.11562646E+00 0.72720789E+03</pdfrwt>
<totfact> 0.15396360E+01</totfact>
</mgrwt>
</event>
<event>
 4    1  0.1033139E-008  0.1120990E+04  0.7818608E-02  0.9184972E-01
         -2   -1    0    0    0  501 -0.00000000000E+00  0.00000000000E+00  0.20379842205E+04  0.20379842205E+04  0.25500000000E-02 0.  1.
          2   -1    0    0  501    0  0.00000000000E+00 -0.00000000000E+00 -0.73478162324E+03  0.73478162324E+03  0.25500000000E-02 0. -1.
    8880022    1    1    2    0    0 -0.41074154572E+03  0.10317548210E+04  0.12076099473E+04  0.16477075183E+04  0.15294330000E+03 0.  0.
    8880022    1    1    2    0    0  0.41074154572E+03 -0.10317548210E+04  0.95592649998E+02  0.11250583255E+04  0.15294330000E+03 0.  0.
<mgrwt>
<rscale>  0 0.11209899E+04</rscale>
<asrwt>0</asrwt>
<pdfrwt beam="1">  1        2 0.11304333E+00 0.11209899E+04</pdfrwt>
<pdfrwt beam="2">  1       -2 0.31353603E+00 0.11209899E+04</pdfrwt>
<totfact> 0.10024422E+00</totfact>
</mgrwt>
</event>
<event>
 4    1  0.1033139E-008  0.1571081E+03  0.7818608E-02  0.1192001E+00
          2   -1    0    0  501    0  0.00000000000E+00  0.00000000000E+00  0.37003213008E+04  0.37003213008E+04  0.25500000000E-02 0. -1.
         -2   -1    0    0    0  501 -0.00000000000E+00 -0.00000000000E+00 -0.94626274420E+02  0.94626274455E+02  0.25500000000E-02 0.  1.
    8880022    1    1    2    0    0  0.20176242709E+01  0.35878153098E+02 -0.26524838557E+02  0.15933151839E+03  0.15294330000E+03 0.  1.
    8880022    1    1    2    0    0 -0.20176242709E+01 -0.35878153098E+02  0.36322198649E+04  0.36356160569E+04  0.15294330000E+03 0.  0.
<mgrwt>
<rscale>  0 0.15710813E+03</rscale>
<asrwt>0</asrwt>
<pdfrwt beam="1">  1        2 0.56928020E+00 0.15710813E+03</pdfrwt>
<pdfrwt beam="2">  1       -2 0.14557888E-01 0.15710813E+03</pdfrwt>
<totfact> 0.28943890E+01</totfact>
</mgrwt>
</event>
<event>
 4    1  0.1033139E-008  0.6765584E+03  0.7818608E-02  0.9758182E-01
         -2   -1    0    0    0  501 -0.00000000000E+00  0.00000000000E+00  0.14572052308E+04  0.14572052308E+04  0.25500000000E-02 0.  1.
          2   -1    0    0  501    0  0.00000000000E+00 -0.00000000000E+00 -0.12024114901E+04  0.12024114901E+04  0.25500000000E-02 0. -1.
    8880022    1    1    2    0    0 -0.59455719764E+03  0.28432617438E+03  0.12703837911E+04  0.14393075642E+04  0.15294330000E+03 0.  0.
    8880022    1    1    2    0    0  0.59455719764E+03 -0.28432617438E+03 -0.10155900503E+04  0.12203091568E+04  0.15294330000E+03 0.  0.
<mgrwt>
<rscale>  0 0.67655841E+03</rscale>
<asrwt>0</asrwt>
<pdfrwt beam="1">  1        2 0.18498638E+00 0.67655841E+03</pdfrwt>
<pdfrwt beam="2">  1       -2 0.22418542E+00 0.67655841E+03</pdfrwt>
<totfact> 0.18350658E+00</totfact>
</mgrwt>
</event>
<event>
 4    1  0.1033139E-008  0.7751893E+03  0.7818608E-02  0.9596641E-01
         -2   -1    0    0    0  501 -0.00000000000E+00  0.00000000000E+00  0.34943716413E+03  0.34943716414E+03  0.25500000000E-02 0.  1.
          2   -1    0    0  501    0  0.00000000000E+00 -0.00000000000E+00 -0.50521793238E+04  0.50521793238E+04  0.25500000000E-02 0. -1.
    8880022    1    1    2    0    0  0.43532104659E+03  0.62291445964E+03 -0.45448815288E+04  0.46105169560E+04  0.15294330000E+03 0.  0.
    8880022    1    1    2    0    0 -0.43532104659E+03 -0.62291445964E+03 -0.15786063084E+03  0.79109953192E+03  0.15294330000E+03 0.  0.
<mgrwt>
<rscale>  0 0.77518933E+03</rscale>
<asrwt>0</asrwt>
<pdfrwt beam="1">  1        2 0.77725831E+00 0.77518933E+03</pdfrwt>
<pdfrwt beam="2">  1       -2 0.53759567E-01 0.77518933E+03</pdfrwt>
<totfact> 0.11302314E-01</totfact>
</mgrwt>
</event>
<event>
 4    1  0.1033139E-008  0.7192990E+03  0.7818608E-02  0.9684786E-01
          2   -1    0    0  501    0  0.00000000000E+00  0.00000000000E+00  0.13779468231E+04  0.13779468231E+04  0.25500000000E-02 0. -1.
         -2   -1    0    0    0  501 -0.00000000000E+00 -0.00000000000E+00 -0.90956982894E+03  0.90956982895E+03  0.25500000000E-02 0.  1.
    8880022    1    1    2    0    0  0.11505598412E+03 -0.69336972213E+03 -0.64225416268E+03  0.96430364177E+03  0.15294330000E+03 0.  0.
    8880022    1    1    2    0    0 -0.11505598412E+03  0.69336972213E+03  0.11106311569E+04  0.13232130103E+04  0.15294330000E+03 0.  0.
<mgrwt>
<rscale>  0 0.71929904E+03</rscale>
<asrwt>0</asrwt>
<pdfrwt beam="1">  1        2 0.21199182E+00 0.71929904E+03</pdfrwt>
<pdfrwt beam="2">  1       -2 0.13993382E+00 0.71929904E+03</pdfrwt>
<totfact> 0.55091480E+00</totfact>
</mgrwt>
</event>
<event>
 4    1  0.1033139E-008  0.1228861E+04  0.7818608E-02  0.9087963E-01
         -2   -1    0    0    0  501 -0.00000000000E+00  0.00000000000E+00  0.20375887229E+04  0.20375887229E+04  0.25500000000E-02 0.  1.
          2   -1    0    0  501    0  0.00000000000E+00 -0.00000000000E+00 -0.13480930962E+04  0.13480930962E+04  0.25500000000E-02 0. -1.
    8880022    1    1    2    0    0 -0.11304465259E+04  0.45694424988E+03  0.14806493761E+04  0.19241677742E+04  0.15294330000E+03 0.  0.
    8880022    1    1    2    0    0  0.11304465259E+04 -0.45694424988E+03 -0.79115374938E+03  0.14615140449E+04  0.15294330000E+03 0.  0.
<mgrwt>
<rscale>  0 0.12288609E+04</rscale>
<asrwt>0</asrwt>
<pdfrwt beam="1">  1        2 0.20739894E+00 0.12288609E+04</pdfrwt>
<pdfrwt beam="2">  1       -2 0.31347519E+00 0.12288609E+04</pdfrwt>
<totfact> 0.39638632E-01</totfact>
</mgrwt>
</event>
<event>
 4    1  0.1033139E-008  0.5279929E+03  0.7818608E-02  0.1006720E+00
         -2   -1    0    0    0  501 -0.00000000000E+00  0.00000000000E+00  0.56028147742E+03  0.56028147743E+03  0.25500000000E-02 0.  1.
          2   -1    0    0  501    0  0.00000000000E+00 -0.00000000000E+00 -0.67018009600E+03  0.67018009600E+03  0.25500000000E-02 0. -1.
    8880022    1    1    2    0    0  0.50292122887E+03  0.49548657411E+02  0.25728571196E+03  0.58734353022E+03  0.15294330000E+03 0.  0.
    8880022    1    1    2    0    0 -0.50292122887E+03 -0.49548657411E+02 -0.36718433053E+03  0.64311804321E+03  0.15294330000E+03 0.  0.
<mgrwt>
<rscale>  0 0.52799288E+03</rscale>
<asrwt>0</asrwt>
<pdfrwt beam="1">  1        2 0.10310463E+00 0.52799288E+03</pdfrwt>
<pdfrwt beam="2">  1       -2 0.86197150E-01 0.52799288E+03</pdfrwt>
<totfact> 0.52148204E+01</totfact>
</mgrwt>
</event>
<event>
 4    1  0.1033139E-008  0.1845992E+04  0.7818608E-02  0.8682217E-01
          2   -1    0    0  501    0  0.00000000000E+00  0.00000000000E+00  0.25823505931E+04  0.25823505931E+04  0.25500000000E-02 0. -1.
         -2   -1    0    0    0  501 -0.00000000000E+00 -0.00000000000E+00 -0.18667754016E+04  0.18667754016E+04  0.25500000000E-02 0.  1.
    8880022    1    1    2    0    0  0.18170155867E+04  0.28766114476E+03  0.15621562357E+04  0.24182676308E+04  0.15294330000E+03 0.  0.
    8880022    1    1    2    0    0 -0.18170155867E+04 -0.28766114476E+03 -0.84658104420E+03  0.20308583638E+04  0.15294330000E+03 0.  0.
<mgrwt>
<rscale>  0 0.18459919E+04</rscale>
<asrwt>0</asrwt>
<pdfrwt beam="1">  1        2 0.39728471E+00 0.18459919E+04</pdfrwt>
<pdfrwt beam="2">  1       -2 0.28719622E+00 0.18459919E+04</pdfrwt>
<totfact> 0.10684617E-01</totfact>
</mgrwt>
</event>
<event>
 4    1  0.1033139E-008  0.1390723E+04  0.7818608E-02  0.8960561E-01
          2   -1    0    0  501    0  0.00000000000E+00  0.00000000000E+00  0.47586556152E+04  0.47586556152E+04  0.25500000000E-02 0. -1.
         -2   -1    0    0    0  501 -0.00000000000E+00 -0.00000000000E+00 -0.50082401390E+03  0.50082401391E+03  0.25500000000E-02 0.  1.
    8880022    1    1    2    0    0  0.26325841801E+03 -0.13569867857E+04  0.32705278987E+04  0.35539362010E+04  0.15294330000E+03 0.  0.
    8880022    1    1    2    0    0 -0.26325841801E+03  0.13569867857E+04  0.98730370258E+03  0.17055434281E+04  0.15294330000E+03 0.  0.
<mgrwt>
<rscale>  0 0.13907228E+04</rscale>
<asrwt>0</asrwt>
<pdfrwt beam="1">  1        2 0.73210088E+00 0.13907228E+04</pdfrwt>
<pdfrwt beam="2">  1       -2 0.77049846E-01 0.13907228E+04</pdfrwt>
<totfact> 0.10054594E-01</totfact>
</mgrwt>
</event>
<event>
 4    1  0.1033139E-008  0.1178270E+04  0.7818608E-02  0.9132093E-01
          2   -1    0    0  501    0  0.00000000000E+00  0.00000000000E+00  0.12169338641E+04  0.12169338641E+04  0.25500000000E-02 0. -1.
         -2   -1    0    0    0  501 -0.00000000000E+00 -0.00000000000E+00 -0.12515878476E+04  0.12515878476E+04  0.25500000000E-02 0.  1.
    8880022    1    1    2    0    0 -0.93651349829E+03 -0.69847692145E+03 -0.38448772974E+03  0.12394151886E+04  0.15294330000E+03 0.  0.
    8880022    1    1    2    0    0  0.93651349829E+03  0.69847692145E+03  0.34983374621E+03  0.12291065232E+04  0.15294330000E+03 0.  0.
<mgrwt>
<rscale>  0 0.11782696E+04</rscale>
<asrwt>0</asrwt>
<pdfrwt beam="1">  1        2 0.18722059E+00 0.11782696E+04</pdfrwt>
<pdfrwt beam="2">  1       -2 0.19255198E+00 0.11782696E+04</pdfrwt>
<totfact> 0.26833878E+00</totfact>
</mgrwt>
</event>
<event>
 4    1  0.1033139E-008  0.4657549E+03  0.7818608E-02  0.1023125E+00
          2   -1    0    0  501    0  0.00000000000E+00  0.00000000000E+00  0.26750191654E+04  0.26750191654E+04  0.25500000000E-02 0. -1.
         -2   -1    0    0    0  501 -0.00000000000E+00 -0.00000000000E+00 -0.20274263766E+03  0.20274263767E+03  0.25500000000E-02 0.  1.
    8880022    1    1    2    0    0  0.43056036145E+03 -0.90298009556E+02  0.23507052910E+04  0.23964020893E+04  0.15294330000E+03 0.  0.
    8880022    1    1    2    0    0 -0.43056036145E+03  0.90298009556E+02  0.12157123666E+03  0.48135971371E+03  0.15294330000E+03 0.  0.
<mgrwt>
<rscale>  0 0.46575488E+03</rscale>
<asrwt>0</asrwt>
<pdfrwt beam="1">  1        2 0.41154141E+00 0.46575488E+03</pdfrwt>
<pdfrwt beam="2">  1       -2 0.31191175E-01 0.46575488E+03</pdfrwt>
<totfact> 0.28991168E+01</totfact>
</mgrwt>
</event>
<event>
 4    1  0.1033139E-008  0.1147304E+04  0.7818608E-02  0.9160274E-01
         -2   -1    0    0    0  501 -0.00000000000E+00  0.00000000000E+00  0.71798614839E+03  0.71798614840E+03  0.25500000000E-02 0.  1.
          2   -1    0    0  501    0  0.00000000000E+00 -0.00000000000E+00 -0.24229196337E+04  0.24229196337E+04  0.25500000000E-02 0. -1.
    8880022    1    1    2    0    0  0.55173171326E+02  0.11357250202E+04 -0.77773880030E+02  0.11499373156E+04  0.15294330000E+03 0.  0.
    8880022    1    1    2    0    0 -0.55173171326E+02 -0.11357250202E+04 -0.16271596053E+04  0.19909684665E+04  0.15294330000E+03 0.  0.
<mgrwt>
<rscale>  0 0.11473043E+04</rscale>
<asrwt>0</asrwt>
<pdfrwt beam="1">  1        2 0.37275686E+00 0.11473043E+04</pdfrwt>
<pdfrwt beam="2">  1       -2 0.11045941E+00 0.11473043E+04</pdfrwt>
<totfact> 0.24765562E+00</totfact>
</mgrwt>
</event>
<event>
 4    1  0.1033139E-008  0.3731505E+03  0.7818608E-02  0.1053495E+00
          2   -1    0    0  501    0  0.00000000000E+00  0.00000000000E+00  0.47256334765E+03  0.47256334765E+03  0.25500000000E-02 0. -1.
         -2   -1    0    0    0  501 -0.00000000000E+00 -0.00000000000E+00 -0.35079693635E+03  0.35079693636E+03  0.25500000000E-02 0.  1.
    8880022    1    1    2    0    0  0.22948318175E+03  0.25137052193E+03  0.22558210454E+03  0.43603739393E+03  0.15294330000E+03 0.  0.
    8880022    1    1    2    0    0 -0.22948318175E+03 -0.25137052193E+03 -0.10381569325E+03  0.38732289008E+03  0.15294330000E+03 0.  0.
<mgrwt>
<rscale>  0 0.37315054E+03</rscale>
<asrwt>0</asrwt>
<pdfrwt beam="1">  1        2 0.72702054E-01 0.37315054E+03</pdfrwt>
<pdfrwt beam="2">  1       -2 0.53968759E-01 0.37315054E+03</pdfrwt>
<totfact> 0.21854000E+02</totfact>
</mgrwt>
</event>
<event>
 4    1  0.1033139E-008  0.4421961E+03  0.7818608E-02  0.1030075E+00
          2   -1    0    0  501    0  0.00000000000E+00  0.00000000000E+00  0.10064738445E+04  0.10064738445E+04  0.25500000000E-02 0. -1.
         -2   -1    0    0    0  501 -0.00000000000E+00 -0.00000000000E+00 -0.87458793754E+03  0.87458793754E+03  0.25500000000E-02 0.  1.
    8880022    1    1    2    0    0  0.15836161134E+03 -0.38349357408E+03  0.89545788366E+03  0.99869024013E+03  0.15294330000E+03 0.  0.
    8880022    1    1    2    0    0 -0.15836161134E+03  0.38349357408E+03 -0.76357197671E+03  0.88237154190E+03  0.15294330000E+03 0.  1.
<mgrwt>
<rscale>  0 0.44219608E+03</rscale>
<asrwt>0</asrwt>
<pdfrwt beam="1">  1        2 0.15484213E+00 0.44219608E+03</pdfrwt>
<pdfrwt beam="2">  1       -2 0.13455199E+00 0.44219608E+03</pdfrwt>
<totfact> 0.10594080E+01</totfact>
</mgrwt>
</event>
<event>
 4    1  0.1033139E-008  0.1139769E+04  0.7818608E-02  0.9167274E-01
         -2   -1    0    0    0  501 -0.00000000000E+00  0.00000000000E+00  0.21185104737E+04  0.21185104737E+04  0.25500000000E-02 0.  1.
          2   -1    0    0  501    0  0.00000000000E+00 -0.00000000000E+00 -0.62812033308E+03  0.62812033309E+03  0.25500000000E-02 0. -1.
    8880022    1    1    2    0    0 -0.91601533348E+03 -0.66075507377E+03  0.95684674563E+03  0.14881628628E+04  0.15294330000E+03 0.  0.
    8880022    1    1    2    0    0  0.91601533348E+03  0.66075507377E+03  0.53354339503E+03  0.12584679440E+04  0.15294330000E+03 0.  0.
<mgrwt>
<rscale>  0 0.11397688E+04</rscale>
<asrwt>0</asrwt>
<pdfrwt beam="1">  1        2 0.96633896E-01 0.11397688E+04</pdfrwt>
<pdfrwt beam="2">  1       -2 0.32592469E+00 0.11397688E+04</pdfrwt>
<totfact> 0.10243992E+00</totfact>
</mgrwt>
</event>
<event>
 4    1  0.1033139E-008  0.9279560E+03  0.7818608E-02  0.9391294E-01
          2   -1    0    0  501    0  0.00000000000E+00  0.00000000000E+00  0.31200982516E+04  0.31200982516E+04  0.25500000000E-02 0. -1.
         -2   -1    0    0    0  501 -0.00000000000E+00 -0.00000000000E+00 -0.78234213950E+03  0.78234213951E+03  0.25500000000E-02 0.  1.
    8880022    1    1    2    0    0 -0.50771736479E+03 -0.76153379616E+03  0.27386483891E+04  0.28915907901E+04  0.15294330000E+03 0.  0.
    8880022    1    1    2    0    0  0.50771736479E+03  0.76153379616E+03 -0.40089227697E+03  0.10108496011E+04  0.15294330000E+03 0.  0.
<mgrwt>
<rscale>  0 0.92795598E+03</rscale>
<asrwt>0</asrwt>
<pdfrwt beam="1">  1        2 0.48001512E+00 0.92795598E+03</pdfrwt>
<pdfrwt beam="2">  1       -2 0.12036033E+00 0.92795598E+03</pdfrwt>
<totfact> 0.79633633E-01</totfact>
</mgrwt>
</event>
<event>
 4    1  0.1033139E-008  0.1035879E+04  0.7818608E-02  0.9270046E-01
         -2   -1    0    0    0  501 -0.00000000000E+00  0.00000000000E+00  0.10982510436E+04  0.10982510436E+04  0.25500000000E-02 0.  1.
          2   -1    0    0  501    0  0.00000000000E+00 -0.00000000000E+00 -0.15611840405E+04  0.15611840405E+04  0.25500000000E-02 0. -1.
    8880022    1    1    2    0    0 -0.97938586493E+03 -0.30076038669E+03  0.58190501605E+03  0.11881323930E+04  0.15294330000E+03 0.  0.
    8880022    1    1    2    0    0  0.97938586493E+03  0.30076038669E+03 -0.10448380129E+04  0.14713026911E+04  0.15294330000E+03 0.  0.
<mgrwt>
<rscale>  0 0.10358789E+04</rscale>
<asrwt>0</asrwt>
<pdfrwt beam="1">  1        2 0.24018216E+00 0.10358789E+04</pdfrwt>
<pdfrwt beam="2">  1       -2 0.16896170E+00 0.10358789E+04</pdfrwt>
<totfact> 0.25131324E+00</totfact>
</mgrwt>
</event>
<event>
 4    1  0.1033139E-008  0.6179386E+03  0.7818608E-02  0.9868873E-01
         -2   -1    0    0    0  501 -0.00000000000E+00  0.00000000000E+00  0.51058832379E+03  0.51058832380E+03  0.25500000000E-02 0.  1.
          2   -1    0    0  501    0  0.00000000000E+00 -0.00000000000E+00 -0.13538759722E+04  0.13538759722E+04  0.25500000000E-02 0. -1.
    8880022    1    1    2    0    0 -0.11754904006E+03  0.58705930099E+03  0.20205804150E+03  0.65013498971E+03  0.15294330000E+03 0.  0.
    8880022    1    1    2    0    0  0.11754904006E+03 -0.58705930099E+03 -0.10453456899E+04  0.12143293063E+04  0.15294330000E+03 0.  0.
<mgrwt>
<rscale>  0 0.61793855E+03</rscale>
<asrwt>0</asrwt>
<pdfrwt beam="1">  1        2 0.20828861E+00 0.61793855E+03</pdfrwt>
<pdfrwt beam="2">  1       -2 0.78552050E-01 0.61793855E+03</pdfrwt>
<totfact> 0.23007932E+01</totfact>
</mgrwt>
</event>
<event>
 4    1  0.1033139E-008  0.3783924E+03  0.7818608E-02  0.1051530E+00
         -2   -1    0    0    0  501 -0.00000000000E+00  0.00000000000E+00  0.17370428915E+03  0.17370428917E+03  0.25500000000E-02 0.  1.
          2   -1    0    0  501    0  0.00000000000E+00 -0.00000000000E+00 -0.11382259496E+04  0.11382259496E+04  0.25500000000E-02 0. -1.
    8880022    1    1    2    0    0  0.97034896002E+02  0.33222486666E+03 -0.82676516087E+03  0.90924222148E+03  0.15294330000E+03 0.  0.
    8880022    1    1    2    0    0 -0.97034896002E+02 -0.33222486666E+03 -0.13775649956E+03  0.40268801728E+03  0.15294330000E+03 0.  0.
<mgrwt>
<rscale>  0 0.37839237E+03</rscale>
<asrwt>0</asrwt>
<pdfrwt beam="1">  1        2 0.17511168E+00 0.37839237E+03</pdfrwt>
<pdfrwt beam="2">  1       -2 0.26723738E-01 0.37839237E+03</pdfrwt>
<totfact> 0.27225746E+02</totfact>
</mgrwt>
</event>
<event>
 4    1  0.1033139E-008  0.1885007E+04  0.7818608E-02  0.8662356E-01
         -2   -1    0    0    0  501 -0.00000000000E+00  0.00000000000E+00  0.18307416343E+04  0.18307416343E+04  0.25500000000E-02 0.  1.
          2   -1    0    0  501    0  0.00000000000E+00 -0.00000000000E+00 -0.28069056605E+04  0.28069056605E+04  0.25500000000E-02 0. -1.
    8880022    1    1    2    0    0  0.16760811016E+04  0.84888775250E+03 -0.17760918454E+04  0.25899328508E+04  0.15294330000E+03 0.  0.
    8880022    1    1    2    0    0 -0.16760811016E+04 -0.84888775250E+03  0.79992781915E+03  0.20477144440E+04  0.15294330000E+03 0.  0.
<mgrwt>
<rscale>  0 0.18850066E+04</rscale>
<asrwt>0</asrwt>
<pdfrwt beam="1">  1        2 0.43183164E+00 0.18850066E+04</pdfrwt>
<pdfrwt beam="2">  1       -2 0.28165256E+00 0.18850066E+04</pdfrwt>
<totfact> 0.84506397E-02</totfact>
</mgrwt>
</event>
<event>
 4    1  0.1033139E-008  0.5325055E+03  0.7818608E-02  0.1005626E+00
          2   -1    0    0  501    0  0.00000000000E+00  0.00000000000E+00  0.17103858101E+04  0.17103858101E+04  0.25500000000E-02 0. -1.
         -2   -1    0    0    0  501 -0.00000000000E+00 -0.00000000000E+00 -0.13776096441E+04  0.13776096441E+04  0.25500000000E-02 0.  1.
    8880022    1    1    2    0    0 -0.33388004824E+03  0.38560930300E+03 -0.12817262626E+04  0.13879424651E+04  0.15294330000E+03 0.  0.
    8880022    1    1    2    0    0  0.33388004824E+03 -0.38560930300E+03  0.16145024286E+04  0.17000529892E+04  0.15294330000E+03 0.  0.
<mgrwt>
<rscale>  0 0.53250547E+03</rscale>
<asrwt>0</asrwt>
<pdfrwt beam="1">  1        2 0.26313628E+00 0.53250547E+03</pdfrwt>
<pdfrwt beam="2">  1       -2 0.21193995E+00 0.53250547E+03</pdfrwt>
<totfact> 0.11770561E+00</totfact>
</mgrwt>
</event>
<event>
 4    1  0.1033139E-008  0.1012033E+04  0.7818608E-02  0.9295445E-01
         -2   -1    0    0    0  501 -0.00000000000E+00  0.00000000000E+00  0.52752622147E+03  0.52752622148E+03  0.25500000000E-02 0.  1.
          2   -1    0    0  501    0  0.00000000000E+00 -0.00000000000E+00 -0.28804594925E+04  0.28804594925E+04  0.25500000000E-02 0. -1.
    8880022    1    1    2    0    0 -0.99982079859E+03 -0.34311763404E+02 -0.20360240321E+03  0.10323102818E+04  0.15294330000E+03 0.  0.
    8880022    1    1    2    0    0  0.99982079859E+03  0.34311763404E+02 -0.21493308678E+04  0.23756754321E+04  0.15294330000E+03 0.  0.
<mgrwt>
<rscale>  0 0.10120329E+04</rscale>
<asrwt>0</asrwt>
<pdfrwt beam="1">  1        2 0.44314760E+00 0.10120329E+04</pdfrwt>
<pdfrwt beam="2">  1       -2 0.81157882E-01 0.10120329E+04</pdfrwt>
<totfact> 0.28094658E+00</totfact>
</mgrwt>
</event>
<event>
 4    1  0.1033139E-008  0.1229194E+04  0.7818608E-02  0.9087680E-01
          2   -1    0    0  501    0  0.00000000000E+00  0.00000000000E+00  0.18629830113E+04  0.18629830114E+04  0.25500000000E-02 0. -1.
         -2   -1    0    0    0  501 -0.00000000000E+00 -0.00000000000E+00 -0.11947452262E+04  0.11947452262E+04  0.25500000000E-02 0.  1.
    8880022    1    1    2    0    0  0.15128656019E+03  0.12102229371E+04 -0.53232550375E+03  0.13395108345E+04  0.15294330000E+03 0.  0.
    8880022    1    1    2    0    0 -0.15128656019E+03 -0.12102229371E+04  0.12005632889E+04  0.17182174031E+04  0.15294330000E+03 0.  0.
<mgrwt>
<rscale>  0 0.12291944E+04</rscale>
<asrwt>0</asrwt>
<pdfrwt beam="1">  1        2 0.28661277E+00 0.12291944E+04</pdfrwt>
<pdfrwt beam="2">  1       -2 0.18380696E+00 0.12291944E+04</pdfrwt>
<totfact> 0.13151894E+00</totfact>
</mgrwt>
</event>
<event>
 4    1  0.1033139E-008  0.6072422E+03  0.7818608E-02  0.9890494E-01
          2   -1    0    0  501    0  0.00000000000E+00  0.00000000000E+00  0.84824077111E+03  0.84824077111E+03  0.25500000000E-02 0. -1.
         -2   -1    0    0    0  501 -0.00000000000E+00 -0.00000000000E+00 -0.80691979324E+03  0.80691979324E+03  0.25500000000E-02 0.  1.
    8880022    1    1    2    0    0  0.58738171759E+03  0.18278522143E+02  0.58272465093E+03  0.84161217811E+03  0.15294330000E+03 0.  0.
    8880022    1    1    2    0    0 -0.58738171759E+03 -0.18278522143E+02 -0.54140367306E+03  0.81354838624E+03  0.15294330000E+03 0.  0.
<mgrwt>
<rscale>  0 0.60724216E+03</rscale>
<asrwt>0</asrwt>
<pdfrwt beam="1">  1        2 0.13049858E+00 0.60724216E+03</pdfrwt>
<pdfrwt beam="2">  1       -2 0.12414151E+00 0.60724216E+03</pdfrwt>
<totfact> 0.16027968E+01</totfact>
</mgrwt>
</event>
<event>
 4    1  0.1033139E-008  0.1309122E+04  0.7818608E-02  0.9022363E-01
         -2   -1    0    0    0  501 -0.00000000000E+00  0.00000000000E+00  0.16244237169E+04  0.16244237169E+04  0.25500000000E-02 0.  1.
          2   -1    0    0  501    0  0.00000000000E+00 -0.00000000000E+00 -0.11766214371E+04  0.11766214371E+04  0.25500000000E-02 0. -1.
    8880022    1    1    2    0    0  0.12466062570E+04  0.36929834496E+03  0.67413739372E+03  0.14725017169E+04  0.15294330000E+03 0.  0.
    8880022    1    1    2    0    0 -0.12466062570E+04 -0.36929834496E+03 -0.22633511387E+03  0.13285434371E+04  0.15294330000E+03 0.  0.
<mgrwt>
<rscale>  0 0.13091219E+04</rscale>
<asrwt>0</asrwt>
<pdfrwt beam="1">  1        2 0.18101868E+00 0.13091219E+04</pdfrwt>
<pdfrwt beam="2">  1       -2 0.24991134E+00 0.13091219E+04</pdfrwt>
<totfact> 0.12104271E+00</totfact>
</mgrwt>
</event>
<event>
 4    1  0.1033139E-008  0.2772824E+03  0.7818608E-02  0.1097183E+00
         -2   -1    0    0    0  501 -0.00000000000E+00  0.00000000000E+00  0.33550749660E+03  0.33550749661E+03  0.25500000000E-02 0.  1.
          2   -1    0    0  501    0  0.00000000000E+00 -0.00000000000E+00 -0.40492221520E+03  0.40492221521E+03  0.25500000000E-02 0. -1.
    8880022    1    1    2    0    0  0.81441251151E+02 -0.21647447245E+03  0.20920200819E+03  0.34734853945E+03  0.15294330000E+03 0.  1.
    8880022    1    1    2    0    0 -0.81441251151E+02  0.21647447245E+03 -0.27861672678E+03  0.39308117237E+03  0.15294330000E+03 0.  0.
<mgrwt>
<rscale>  0 0.27728240E+03</rscale>
<asrwt>0</asrwt>
<pdfrwt beam="1">  1        2 0.62295725E-01 0.27728240E+03</pdfrwt>
<pdfrwt beam="2">  1       -2 0.51616538E-01 0.27728240E+03</pdfrwt>
<totfact> 0.28570583E+02</totfact>
</mgrwt>
</event>
<event>
 4    1  0.1033139E-008  0.1128235E+04  0.7818608E-02  0.9178101E-01
         -2   -1    0    0    0  501 -0.00000000000E+00  0.00000000000E+00  0.75935750978E+03  0.75935750978E+03  0.25500000000E-02 0.  1.
          2   -1    0    0  501    0  0.00000000000E+00 -0.00000000000E+00 -0.21880629950E+04  0.21880629950E+04  0.25500000000E-02 0. -1.
    8880022    1    1    2    0    0 -0.98343065159E+03  0.53140093087E+03 -0.16397053462E+01  0.11282362950E+04  0.15294330000E+03 0.  0.
    8880022    1    1    2    0    0  0.98343065159E+03 -0.53140093087E+03 -0.14270657798E+04  0.18191842097E+04  0.15294330000E+03 0.  0.
<mgrwt>
<rscale>  0 0.11282351E+04</rscale>
<asrwt>0</asrwt>
<pdfrwt beam="1">  1        2 0.33662507E+00 0.11282351E+04</pdfrwt>
<pdfrwt beam="2">  1       -2 0.11682423E+00 0.11282351E+04</pdfrwt>
<totfact> 0.29338921E+00</totfact>
</mgrwt>
</event>
<event>
 4    1  0.1033139E-008  0.5424206E+03  0.7818608E-02  0.1003264E+00
         -2   -1    0    0    0  501 -0.00000000000E+00  0.00000000000E+00  0.38660374107E+03  0.38660374108E+03  0.25500000000E-02 0.  1.
          2   -1    0    0  501    0  0.00000000000E+00 -0.00000000000E+00 -0.82400642069E+03  0.82400642070E+03  0.25500000000E-02 0. -1.
    8880022    1    1    2    0    0 -0.25859828699E+03 -0.45161423046E+03 -0.38603002612E+03  0.66576221076E+03  0.15294330000E+03 0.  0.
    8880022    1    1    2    0    0  0.25859828699E+03  0.45161423046E+03 -0.51372653501E+02  0.54484795102E+03  0.15294330000E+03 0.  0.
<mgrwt>
<rscale>  0 0.54242063E+03</rscale>
<asrwt>0</asrwt>
<pdfrwt beam="1">  1        2 0.12677022E+00 0.54242063E+03</pdfrwt>
<pdfrwt beam="2">  1       -2 0.59477499E-01 0.54242063E+03</pdfrwt>
<totfact> 0.89953750E+01</totfact>
</mgrwt>
</event>
<event>
 4    1  0.1033139E-008  0.7063630E+03  0.7818608E-02  0.9706412E-01
          2   -1    0    0  501    0  0.00000000000E+00  0.00000000000E+00  0.16064641552E+04  0.16064641552E+04  0.25500000000E-02 0. -1.
         -2   -1    0    0    0  501 -0.00000000000E+00 -0.00000000000E+00 -0.92843475527E+03  0.92843475528E+03  0.25500000000E-02 0.  1.
    8880022    1    1    2    0    0 -0.57347784704E+03  0.38298850962E+03  0.13729545992E+04  0.15440055130E+04  0.15294330000E+03 0.  0.
    8880022    1    1    2    0    0  0.57347784704E+03 -0.38298850962E+03 -0.69492519931E+03  0.99089339749E+03  0.15294330000E+03 0.  0.
<mgrwt>
<rscale>  0 0.70636300E+03</rscale>
<asrwt>0</asrwt>
<pdfrwt beam="1">  1        2 0.24714833E+00 0.70636300E+03</pdfrwt>
<pdfrwt beam="2">  1       -2 0.14283612E+00 0.70636300E+03</pdfrwt>
<totfact> 0.39041348E+00</totfact>
</mgrwt>
</event>
<event>
 4    1  0.1033139E-008  0.5247417E+03  0.7818608E-02  0.1007515E+00
         -2   -1    0    0    0  501 -0.00000000000E+00  0.00000000000E+00  0.54007810780E+03  0.54007810781E+03  0.25500000000E-02 0.  1.
          2   -1    0    0  501    0  0.00000000000E+00 -0.00000000000E+00 -0.89725208091E+03  0.89725208091E+03  0.25500000000E-02 0. -1.
    8880022    1    1    2    0    0 -0.18155083758E+03 -0.46797594780E+03 -0.65081903043E+03  0.83601391001E+03  0.15294330000E+03 0.  0.
    8880022    1    1    2    0    0  0.18155083758E+03  0.46797594780E+03  0.29364505732E+03  0.60131627871E+03  0.15294330000E+03 0.  1.
<mgrwt>
<rscale>  0 0.52474170E+03</rscale>
<asrwt>0</asrwt>
<pdfrwt beam="1">  1        2 0.13803878E+00 0.52474170E+03</pdfrwt>
<pdfrwt beam="2">  1       -2 0.83088939E-01 0.52474170E+03</pdfrwt>
<totfact> 0.38824782E+01</totfact>
</mgrwt>
</event>
<event>
 4    1  0.1033139E-008  0.7998926E+03  0.7818608E-02  0.9560173E-01
         -2   -1    0    0    0  501 -0.00000000000E+00  0.00000000000E+00  0.61416898104E+03  0.61416898105E+03  0.25500000000E-02 0.  1.
          2   -1    0    0  501    0  0.00000000000E+00 -0.00000000000E+00 -0.12469263553E+04  0.12469263553E+04  0.25500000000E-02 0. -1.
    8880022    1    1    2    0    0  0.75649653424E+03 -0.21011790249E+03  0.61064378342E+02  0.80222007615E+03  0.15294330000E+03 0.  0.
    8880022    1    1    2    0    0 -0.75649653424E+03  0.21011790249E+03 -0.69382175260E+03  0.10588752602E+04  0.15294330000E+03 0.  0.
<mgrwt>
<rscale>  0 0.79989261E+03</rscale>
<asrwt>0</asrwt>
<pdfrwt beam="1">  1        2 0.19183482E+00 0.79989261E+03</pdfrwt>
<pdfrwt beam="2">  1       -2 0.94487536E-01 0.79989261E+03</pdfrwt>
<totfact> 0.17003354E+01</totfact>
</mgrwt>
</event>
<event>
 4    1  0.1033139E-008  0.9551865E+03  0.7818608E-02  0.9359109E-01
         -2   -1    0    0    0  501 -0.00000000000E+00  0.00000000000E+00  0.58359499788E+03  0.58359499789E+03  0.25500000000E-02 0.  1.
          2   -1    0    0  501    0  0.00000000000E+00 -0.00000000000E+00 -0.23971995280E+04  0.23971995280E+04  0.25500000000E-02 0. -1.
    8880022    1    1    2    0    0 -0.93866755171E+03  0.88841581940E+02 -0.27808573000E+02  0.95559121442E+03  0.15294330000E+03 0.  0.
    8880022    1    1    2    0    0  0.93866755171E+03 -0.88841581940E+02 -0.17857959571E+04  0.20252033114E+04  0.15294330000E+03 0.  0.
<mgrwt>
<rscale>  0 0.95518650E+03</rscale>
<asrwt>0</asrwt>
<pdfrwt beam="1">  1        2 0.36879992E+00 0.95518650E+03</pdfrwt>
<pdfrwt beam="2">  1       -2 0.89783847E-01 0.95518650E+03</pdfrwt>
<totfact> 0.42984606E+00</totfact>
</mgrwt>
</event>
<event>
 4    1  0.1033139E-008  0.5172440E+03  0.7818608E-02  0.1009373E+00
          2   -1    0    0  501    0  0.00000000000E+00  0.00000000000E+00  0.70301004618E+03  0.70301004619E+03  0.25500000000E-02 0. -1.
         -2   -1    0    0    0  501 -0.00000000000E+00 -0.00000000000E+00 -0.11916187523E+04  0.11916187523E+04  0.25500000000E-02 0.  1.
    8880022    1    1    2    0    0 -0.42302965714E+03  0.25533435860E+03 -0.10258424551E+04  0.11488664505E+04  0.15294330000E+03 0.  0.
    8880022    1    1    2    0    0  0.42302965714E+03 -0.25533435860E+03  0.53723374900E+03  0.74576234792E+03  0.15294330000E+03 0.  0.
<mgrwt>
<rscale>  0 0.51724402E+03</rscale>
<asrwt>0</asrwt>
<pdfrwt beam="1">  1        2 0.10815539E+00 0.51724402E+03</pdfrwt>
<pdfrwt beam="2">  1       -2 0.18332596E+00 0.51724402E+03</pdfrwt>
<totfact> 0.73835235E+00</totfact>
</mgrwt>
</event>
<event>
 4    1  0.1033139E-008  0.9061301E+03  0.7818608E-02  0.9417951E-01
         -2   -1    0    0    0  501 -0.00000000000E+00  0.00000000000E+00  0.90653246825E+03  0.90653246825E+03  0.25500000000E-02 0.  1.
          2   -1    0    0  501    0  0.00000000000E+00 -0.00000000000E+00 -0.12054494490E+04  0.12054494490E+04  0.25500000000E-02 0. -1.
    8880022    1    1    2    0    0 -0.80678944806E+03  0.38310689438E+03 -0.67601462200E+03  0.11305164874E+04  0.15294330000E+03 0.  0.
    8880022    1    1    2    0    0  0.80678944806E+03 -0.38310689438E+03  0.37709764125E+03  0.98146542989E+03  0.15294330000E+03 0.  0.
<mgrwt>
<rscale>  0 0.90613010E+03</rscale>
<asrwt>0</asrwt>
<pdfrwt beam="1">  1        2 0.18545376E+00 0.90613010E+03</pdfrwt>
<pdfrwt beam="2">  1       -2 0.13946653E+00 0.90613010E+03</pdfrwt>
<totfact> 0.68296005E+00</totfact>
</mgrwt>
</event>
<event>
 4    1  0.1033139E-008  0.3713033E+03  0.7818608E-02  0.1054196E+00
         -2   -1    0    0    0  501 -0.00000000000E+00  0.00000000000E+00  0.52294610600E+03  0.52294610600E+03  0.25500000000E-02 0.  1.
          2   -1    0    0  501    0  0.00000000000E+00 -0.00000000000E+00 -0.57713672703E+03  0.57713672704E+03  0.25500000000E-02 0. -1.
    8880022    1    1    2    0    0 -0.30480694184E+03  0.14685785541E+03 -0.43248900329E+03  0.57001130907E+03  0.15294330000E+03 0.  0.
    8880022    1    1    2    0    0  0.30480694184E+03 -0.14685785541E+03  0.37829838226E+03  0.53007152397E+03  0.15294330000E+03 0.  0.
<mgrwt>
<rscale>  0 0.37130332E+03</rscale>
<asrwt>0</asrwt>
<pdfrwt beam="1">  1        2 0.88790266E-01 0.37130332E+03</pdfrwt>
<pdfrwt beam="2">  1       -2 0.80453247E-01 0.37130332E+03</pdfrwt>
<totfact> 0.74150441E+01</totfact>
</mgrwt>
</event>
<event>
 4    1  0.1033139E-008  0.9902107E+03  0.7818608E-02  0.9319347E-01
          2   -1    0    0  501    0  0.00000000000E+00  0.00000000000E+00  0.13440534835E+04  0.13440534835E+04  0.25500000000E-02 0. -1.
         -2   -1    0    0    0  501 -0.00000000000E+00 -0.00000000000E+00 -0.97488392157E+03  0.97488392157E+03  0.25500000000E-02 0.  1.
    8880022    1    1    2    0    0  0.67794197659E+03 -0.70535121664E+03 -0.39709728986E+03  0.10668662395E+04  0.15294330000E+03 0.  0.
    8880022    1    1    2    0    0 -0.67794197659E+03  0.70535121664E+03  0.76626685181E+03  0.12520711656E+04  0.15294330000E+03 0.  1.
<mgrwt>
<rscale>  0 0.99021074E+03</rscale>
<asrwt>0</asrwt>
<pdfrwt beam="1">  1        2 0.20677746E+00 0.99021074E+03</pdfrwt>
<pdfrwt beam="2">  1       -2 0.14998214E+00 0.99021074E+03</pdfrwt>
<totfact> 0.46379230E+00</totfact>
</mgrwt>
</event>
<event>
 4    1  0.1033139E-008  0.5242497E+03  0.7818608E-02  0.1007636E+00
         -2   -1    0    0    0  501 -0.00000000000E+00  0.00000000000E+00  0.33804163354E+03  0.33804163355E+03  0.25500000000E-02 0.  1.
          2   -1    0    0  501    0  0.00000000000E+00 -0.00000000000E+00 -0.22145513001E+04  0.22145513001E+04  0.25500000000E-02 0. -1.
    8880022    1    1    2    0    0 -0.14107920659E+03  0.48118886332E+03 -0.19535882270E+04  0.20227072647E+04  0.15294330000E+03 0.  0.
    8880022    1    1    2    0    0  0.14107920659E+03 -0.48118886332E+03  0.77078560461E+02  0.52988566900E+03  0.15294330000E+03 0.  0.
<mgrwt>
<rscale>  0 0.52424967E+03</rscale>
<asrwt>0</asrwt>
<pdfrwt beam="1">  1        2 0.34070019E+00 0.52424967E+03</pdfrwt>
<pdfrwt beam="2">  1       -2 0.52006407E-01 0.52424967E+03</pdfrwt>
<totfact> 0.19125842E+01</totfact>
</mgrwt>
</event>
<event>
 4    1  0.1033139E-008  0.4660870E+03  0.7818608E-02  0.1023030E+00
         -2   -1    0    0    0  501 -0.00000000000E+00  0.00000000000E+00  0.43867867405E+03  0.43867867406E+03  0.25500000000E-02 0.  1.
          2   -1    0    0  501    0  0.00000000000E+00 -0.00000000000E+00 -0.11472299766E+04  0.11472299766E+04  0.25500000000E-02 0. -1.
    8880022    1    1    2    0    0 -0.42550306871E+03 -0.11310424114E+03 -0.95207319454E+03  0.10600379482E+04  0.15294330000E+03 0.  0.
    8880022    1    1    2    0    0  0.42550306871E+03  0.11310424114E+03  0.24352189197E+03  0.52587070248E+03  0.15294330000E+03 0.  0.
<mgrwt>
<rscale>  0 0.46608699E+03</rscale>
<asrwt>0</asrwt>
<pdfrwt beam="1">  1        2 0.17649692E+00 0.46608699E+03</pdfrwt>
<pdfrwt beam="2">  1       -2 0.67489027E-01 0.46608699E+03</pdfrwt>
<totfact> 0.43195403E+01</totfact>
</mgrwt>
</event>
<event>
 4    1  0.1033139E-008  0.4294974E+03  0.7818608E-02  0.1034019E+00
          2   -1    0    0  501    0  0.00000000000E+00  0.00000000000E+00  0.36556011646E+04  0.36556011646E+04  0.25500000000E-02 0. -1.
         -2   -1    0    0    0  501 -0.00000000000E+00 -0.00000000000E+00 -0.11068436330E+04  0.11068436331E+04  0.25500000000E-02 0.  1.
    8880022    1    1    2    0    0  0.48832582561E+02 -0.39836127260E+03  0.36006872187E+04  0.36262124075E+04  0.15294330000E+03 0.  0.
    8880022    1    1    2    0    0 -0.48832582561E+02  0.39836127260E+03 -0.10519296871E+04  0.11362323901E+04  0.15294330000E+03 0.  0.
<mgrwt>
<rscale>  0 0.42949735E+03</rscale>
<asrwt>0</asrwt>
<pdfrwt beam="1">  1        2 0.56240017E+00 0.42949735E+03</pdfrwt>
<pdfrwt beam="2">  1       -2 0.17028364E+00 0.42949735E+03</pdfrwt>
<totfact> 0.16581384E-01</totfact>
</mgrwt>
</event>
<event>
 4    1  0.1033139E-008  0.2942607E+03  0.7818608E-02  0.1088145E+00
          2   -1    0    0  501    0  0.00000000000E+00  0.00000000000E+00  0.73246601806E+03  0.73246601806E+03  0.25500000000E-02 0. -1.
         -2   -1    0    0    0  501 -0.00000000000E+00 -0.00000000000E+00 -0.11834822586E+04  0.11834822586E+04  0.25500000000E-02 0.  1.
    8880022    1    1    2    0    0 -0.13798617762E+03  0.21013695149E+03  0.68336225188E+03  0.74402509629E+03  0.15294330000E+03 0.  0.
    8880022    1    1    2    0    0  0.13798617762E+03 -0.21013695149E+03 -0.11343784925E+04  0.11719231804E+04  0.15294330000E+03 0.  0.
<mgrwt>
<rscale>  0 0.29426073E+03</rscale>
<asrwt>0</asrwt>
<pdfrwt beam="1">  1        2 0.11268708E+00 0.29426073E+03</pdfrwt>
<pdfrwt beam="2">  1       -2 0.18207419E+00 0.29426073E+03</pdfrwt>
<totfact> 0.75312422E+00</totfact>
</mgrwt>
</event>
<event>
 4    1  0.1033139E-008  0.7776872E+03  0.7818608E-02  0.9592888E-01
          2   -1    0    0  501    0  0.00000000000E+00  0.00000000000E+00  0.19709262645E+04  0.19709262645E+04  0.25500000000E-02 0. -1.
         -2   -1    0    0    0  501 -0.00000000000E+00 -0.00000000000E+00 -0.42833698559E+03  0.42833698559E+03  0.25500000000E-02 0.  1.
    8880022    1    1    2    0    0 -0.75939119401E+03 -0.68780437658E+02  0.13243850331E+03  0.78888360632E+03  0.15294330000E+03 0.  0.
    8880022    1    1    2    0    0  0.75939119401E+03  0.68780437658E+02  0.14101507756E+04  0.16103796437E+04  0.15294330000E+03 0.  0.
<mgrwt>
<rscale>  0 0.77768720E+03</rscale>
<asrwt>0</asrwt>
<pdfrwt beam="1">  1        2 0.30321943E+00 0.77768720E+03</pdfrwt>
<pdfrwt beam="2">  1       -2 0.65897997E-01 0.77768720E+03</pdfrwt>
<totfact> 0.15140261E+01</totfact>
</mgrwt>
</event>
<event>
 4    1  0.1033139E-008  0.6539143E+03  0.7818608E-02  0.9799462E-01
          2   -1    0    0  501    0  0.00000000000E+00  0.00000000000E+00  0.89277618831E+03  0.89277618832E+03  0.25500000000E-02 0. -1.
         -2   -1    0    0    0  501 -0.00000000000E+00 -0.00000000000E+00 -0.10537842119E+04  0.10537842119E+04  0.25500000000E-02 0.  1.
    8880022    1    1    2    0    0  0.34898590472E+03 -0.53143300258E+03 -0.79933976405E+03  0.10327380642E+04  0.15294330000E+03 0.  0.
    8880022    1    1    2    0    0 -0.34898590472E+03  0.53143300258E+03  0.63833174043E+03  0.91382233601E+03  0.15294330000E+03 0. -1.
<mgrwt>
<rscale>  0 0.65391425E+03</rscale>
<asrwt>0</asrwt>
<pdfrwt beam="1">  1        2 0.13735018E+00 0.65391425E+03</pdfrwt>
<pdfrwt beam="2">  1       -2 0.16212065E+00 0.65391425E+03</pdfrwt>
<totfact> 0.74309481E+00</totfact>
</mgrwt>
</event>
<event>
 4    1  0.1033139E-008  0.4429835E+03  0.7818608E-02  0.1029835E+00
          2   -1    0    0  501    0  0.00000000000E+00  0.00000000000E+00  0.21710839803E+03  0.21710839805E+03  0.25500000000E-02 0. -1.
         -2   -1    0    0    0  501 -0.00000000000E+00 -0.00000000000E+00 -0.26328056542E+04  0.26328056542E+04  0.25500000000E-02 0.  1.
    8880022    1    1    2    0    0  0.41351498235E+03 -0.42988968219E+02 -0.23625874351E+04  0.24037582519E+04  0.15294330000E+03 0.  0.
    8880022    1    1    2    0    0 -0.41351498235E+03  0.42988968219E+02 -0.53109820986E+02  0.44615580028E+03  0.15294330000E+03 0.  0.
<mgrwt>
<rscale>  0 0.44298346E+03</rscale>
<asrwt>0</asrwt>
<pdfrwt beam="1">  1        2 0.33401294E-01 0.44298346E+03</pdfrwt>
<pdfrwt beam="2">  1       -2 0.40504700E+00 0.44298346E+03</pdfrwt>
<totfact> 0.12302660E+00</totfact>
</mgrwt>
</event>
<event>
 4    1  0.1033139E-008  0.6472025E+03  0.7818608E-02  0.9812043E-01
         -2   -1    0    0    0  501 -0.00000000000E+00  0.00000000000E+00  0.91373877071E+03  0.91373877072E+03  0.25500000000E-02 0.  1.
          2   -1    0    0  501    0  0.00000000000E+00 -0.00000000000E+00 -0.75792434397E+03  0.75792434397E+03  0.25500000000E-02 0. -1.
    8880022    1    1    2    0    0 -0.62104671603E+03  0.98896162559E+02  0.60333297922E+03  0.88480608683E+03  0.15294330000E+03 0.  0.
    8880022    1    1    2    0    0  0.62104671603E+03 -0.98896162559E+02 -0.44751855248E+03  0.78685702786E+03  0.15294330000E+03 0.  0.
<mgrwt>
<rscale>  0 0.64720254E+03</rscale>
<asrwt>0</asrwt>
<pdfrwt beam="1">  1        2 0.11660375E+00 0.64720254E+03</pdfrwt>
<pdfrwt beam="2">  1       -2 0.14057519E+00 0.64720254E+03</pdfrwt>
<totfact> 0.13499584E+01</totfact>
</mgrwt>
</event>
<event>
 4    1  0.1033139E-008  0.3823993E+03  0.7818608E-02  0.1050051E+00
         -2   -1    0    0    0  501 -0.00000000000E+00  0.00000000000E+00  0.13109947452E+03  0.13109947455E+03  0.25500000000E-02 0.  1.
          2   -1    0    0  501    0  0.00000000000E+00 -0.00000000000E+00 -0.25740865352E+04  0.25740865352E+04  0.25500000000E-02 0. -1.
    8880022    1    1    2    0    0 -0.32517542852E+03  0.13076137200E+03 -0.20328780061E+03  0.43307641198E+03  0.15294330000E+03 0.  0.
    8880022    1    1    2    0    0  0.32517542852E+03 -0.13076137200E+03 -0.22396992601E+04  0.22721095978E+04  0.15294330000E+03 0. -1.
<mgrwt>
<rscale>  0 0.38239933E+03</rscale>
<asrwt>0</asrwt>
<pdfrwt beam="1">  1        2 0.39601328E+00 0.38239933E+03</pdfrwt>
<pdfrwt beam="2">  1       -2 0.20169152E-01 0.38239933E+03</pdfrwt>
<totfact> 0.73657893E+01</totfact>
</mgrwt>
</event>
<event>
 4    1  0.1033139E-008  0.1380266E+04  0.7818608E-02  0.8968228E-01
         -2   -1    0    0    0  501 -0.00000000000E+00  0.00000000000E+00  0.78086161329E+03  0.78086161329E+03  0.25500000000E-02 0.  1.
          2   -1    0    0  501    0  0.00000000000E+00 -0.00000000000E+00 -0.29257072319E+04  0.29257072319E+04  0.25500000000E-02 0. -1.
    8880022    1    1    2    0    0 -0.57295233485E+03 -0.12463819037E+04 -0.18277069295E+04  0.22903376391E+04  0.15294330000E+03 0.  0.
    8880022    1    1    2    0    0  0.57295233485E+03  0.12463819037E+04 -0.31713868904E+03  0.14162312060E+04  0.15294330000E+03 0.  0.
<mgrwt>
<rscale>  0 0.13802659E+04</rscale>
<asrwt>0</asrwt>
<pdfrwt beam="1">  1        2 0.45010880E+00 0.13802659E+04</pdfrwt>
<pdfrwt beam="2">  1       -2 0.12013256E+00 0.13802659E+04</pdfrwt>
<totfact> 0.98959924E-01</totfact>
</mgrwt>
</event>
<event>
 4    1  0.1033139E-008  0.8250181E+03  0.7818608E-02  0.9524494E-01
         -2   -1    0    0    0  501 -0.00000000000E+00  0.00000000000E+00  0.95289218971E+03  0.95289218971E+03  0.25500000000E-02 0.  1.
          2   -1    0    0  501    0  0.00000000000E+00 -0.00000000000E+00 -0.88268673677E+03  0.88268673677E+03  0.25500000000E-02 0. -1.
    8880022    1    1    2    0    0 -0.80689091899E+03 -0.78678231362E+02  0.43595866275E+03  0.93312101459E+03  0.15294330000E+03 0.  0.
    8880022    1    1    2    0    0  0.80689091899E+03  0.78678231362E+02 -0.36575320981E+03  0.90245791189E+03  0.15294330000E+03 0.  0.
<mgrwt>
<rscale>  0 0.82501810E+03</rscale>
<asrwt>0</asrwt>
<pdfrwt beam="1">  1        2 0.13579796E+00 0.82501810E+03</pdfrwt>
<pdfrwt beam="2">  1       -2 0.14659880E+00 0.82501810E+03</pdfrwt>
<totfact> 0.96721992E+00</totfact>
</mgrwt>
</event>
<event>
 4    1  0.1033139E-008  0.1224761E+04  0.7818608E-02  0.9091455E-01
          2   -1    0    0  501    0  0.00000000000E+00  0.00000000000E+00  0.19069073619E+04  0.19069073619E+04  0.25500000000E-02 0. -1.
         -2   -1    0    0    0  501 -0.00000000000E+00 -0.00000000000E+00 -0.10152807809E+04  0.10152807809E+04  0.25500000000E-02 0.  1.
    8880022    1    1    2    0    0  0.88235020892E+03 -0.83552717405E+03 -0.24756002727E+03  0.12495299796E+04  0.15294330000E+03 0.  0.
    8880022    1    1    2    0    0 -0.88235020892E+03  0.83552717405E+03  0.11391866083E+04  0.16726581633E+04  0.15294330000E+03 0.  0.
<mgrwt>
<rscale>  0 0.12247609E+04</rscale>
<asrwt>0</asrwt>
<pdfrwt beam="1">  1        2 0.29337036E+00 0.12247609E+04</pdfrwt>
<pdfrwt beam="2">  1       -2 0.15619704E+00 0.12247609E+04</pdfrwt>
<totfact> 0.19625810E+00</totfact>
</mgrwt>
</event>
<event>
 4    1  0.1033139E-008  0.4324902E+03  0.7818608E-02  0.1033076E+00
          2   -1    0    0  501    0  0.00000000000E+00  0.00000000000E+00  0.14469887825E+04  0.14469887825E+04  0.25500000000E-02 0. -1.
         -2   -1    0    0    0  501 -0.00000000000E+00 -0.00000000000E+00 -0.27019940583E+03  0.27019940584E+03  0.25500000000E-02 0.  1.
    8880022    1    1    2    0    0  0.30906277595E+03  0.26102938825E+03 -0.31690341423E+02  0.43364971090E+03  0.15294330000E+03 0.  0.
    8880022    1    1    2    0    0 -0.30906277595E+03 -0.26102938825E+03  0.12084797181E+04  0.12835384774E+04  0.15294330000E+03 0.  0.
<mgrwt>
<rscale>  0 0.43249022E+03</rscale>
<asrwt>0</asrwt>
<pdfrwt beam="1">  1        2 0.22261366E+00 0.43249022E+03</pdfrwt>
<pdfrwt beam="2">  1       -2 0.41569139E-01 0.43249022E+03</pdfrwt>
<totfact> 0.79038297E+01</totfact>
</mgrwt>
</event>
<event>
 4    1  0.1033139E-008  0.1352885E+04  0.7818608E-02  0.8988647E-01
         -2   -1    0    0    0  501 -0.00000000000E+00  0.00000000000E+00  0.65474151064E+03  0.65474151064E+03  0.25500000000E-02 0.  1.
          2   -1    0    0  501    0  0.00000000000E+00 -0.00000000000E+00 -0.41823216512E+04  0.41823216512E+04  0.25500000000E-02 0. -1.
    8880022    1    1    2    0    0  0.53673633678E+03  0.12324040143E+04 -0.31565016029E+04  0.34342101817E+04  0.15294330000E+03 0.  0.
    8880022    1    1    2    0    0 -0.53673633678E+03 -0.12324040143E+04 -0.37107853765E+03  0.14028529802E+04  0.15294330000E+03 0.  0.
<mgrwt>
<rscale>  0 0.13528848E+04</rscale>
<asrwt>0</asrwt>
<pdfrwt beam="1">  1        2 0.64343408E+00 0.13528848E+04</pdfrwt>
<pdfrwt beam="2">  1       -2 0.10072947E+00 0.13528848E+04</pdfrwt>
<totfact> 0.19441858E-01</totfact>
</mgrwt>
</event>
<event>
 4    1  0.1033139E-008  0.6465577E+03  0.7818608E-02  0.9813260E-01
         -2   -1    0    0    0  501 -0.00000000000E+00  0.00000000000E+00  0.14007265006E+04  0.14007265006E+04  0.25500000000E-02 0.  1.
          2   -1    0    0  501    0  0.00000000000E+00 -0.00000000000E+00 -0.32344242500E+03  0.32344242501E+03  0.25500000000E-02 0. -1.
    8880022    1    1    2    0    0  0.22567984880E+03  0.58627108205E+03  0.77831415652E+03  0.10118348457E+04  0.15294330000E+03 0.  0.
    8880022    1    1    2    0    0 -0.22567984880E+03 -0.58627108205E+03  0.29896991907E+03  0.71233407985E+03  0.15294330000E+03 0.  0.
<mgrwt>
<rscale>  0 0.64655768E+03</rscale>
<asrwt>0</asrwt>
<pdfrwt beam="1">  1        2 0.49760373E-01 0.64655768E+03</pdfrwt>
<pdfrwt beam="2">  1       -2 0.21549638E+00 0.64655768E+03</pdfrwt>
<totfact> 0.10996854E+01</totfact>
</mgrwt>
</event>
<event>
 4    1  0.1033139E-008  0.7844857E+03  0.7818608E-02  0.9582749E-01
          2   -1    0    0  501    0  0.00000000000E+00  0.00000000000E+00  0.22916676194E+04  0.22916676194E+04  0.25500000000E-02 0. -1.
         -2   -1    0    0    0  501 -0.00000000000E+00 -0.00000000000E+00 -0.46294876114E+03  0.46294876115E+03  0.25500000000E-02 0.  1.
    8880022    1    1    2    0    0 -0.20767299224E+03  0.74087656852E+03  0.21843335501E+02  0.78478974625E+03  0.15294330000E+03 0.  0.
    8880022    1    1    2    0    0  0.20767299224E+03 -0.74087656852E+03  0.18068755228E+04  0.19698266343E+04  0.15294330000E+03 0.  0.
<mgrwt>
<rscale>  0 0.78448570E+03</rscale>
<asrwt>0</asrwt>
<pdfrwt beam="1">  1        2 0.35256424E+00 0.78448570E+03</pdfrwt>
<pdfrwt beam="2">  1       -2 0.71222888E-01 0.78448570E+03</pdfrwt>
<totfact> 0.85095656E+00</totfact>
</mgrwt>
</event>
<event>
 4    1  0.1033139E-008  0.8097709E+03  0.7818608E-02  0.9545981E-01
          2   -1    0    0  501    0  0.00000000000E+00  0.00000000000E+00  0.16938522581E+04  0.16938522581E+04  0.25500000000E-02 0. -1.
         -2   -1    0    0    0  501 -0.00000000000E+00 -0.00000000000E+00 -0.44255218285E+03  0.44255218286E+03  0.25500000000E-02 0.  1.
    8880022    1    1    2    0    0  0.61850681444E+02 -0.79278737865E+03  0.24760731040E+03  0.84678118054E+03  0.15294330000E+03 0.  0.
    8880022    1    1    2    0    0 -0.61850681444E+02  0.79278737865E+03  0.10036927648E+04  0.12896232604E+04  0.15294330000E+03 0.  0.
<mgrwt>
<rscale>  0 0.80977095E+03</rscale>
<asrwt>0</asrwt>
<pdfrwt beam="1">  1        2 0.26059266E+00 0.80977095E+03</pdfrwt>
<pdfrwt beam="2">  1       -2 0.68084950E-01 0.80977095E+03</pdfrwt>
<totfact> 0.19911623E+01</totfact>
</mgrwt>
</event>
<event>
 4    1  0.1033139E-008  0.2709463E+03  0.7818608E-02  0.1100739E+00
         -2   -1    0    0    0  501 -0.00000000000E+00  0.00000000000E+00  0.13410797521E+03  0.13410797523E+03  0.25500000000E-02 0.  1.
          2   -1    0    0  501    0  0.00000000000E+00 -0.00000000000E+00 -0.13284415640E+04  0.13284415640E+04  0.25500000000E-02 0. -1.
    8880022    1    1    2    0    0  0.13465503839E+03  0.17857292814E+03 -0.11578840369E+04  0.11891624641E+04  0.15294330000E+03 0.  0.
    8880022    1    1    2    0    0 -0.13465503839E+03 -0.17857292814E+03 -0.36449551908E+02  0.27338707518E+03  0.15294330000E+03 0.  0.
<mgrwt>
<rscale>  0 0.27094635E+03</rscale>
<asrwt>0</asrwt>
<pdfrwt beam="1">  1        2 0.20437562E+00 0.27094635E+03</pdfrwt>
<pdfrwt beam="2">  1       -2 0.20631997E-01 0.27094635E+03</pdfrwt>
<totfact> 0.33929587E+02</totfact>
</mgrwt>
</event>
<event>
 4    1  0.1033139E-008  0.1074753E+04  0.7818608E-02  0.9230155E-01
          2   -1    0    0  501    0  0.00000000000E+00  0.00000000000E+00  0.36023375919E+04  0.36023375919E+04  0.25500000000E-02 0. -1.
         -2   -1    0    0    0  501 -0.00000000000E+00 -0.00000000000E+00 -0.47641778593E+03  0.47641778594E+03  0.25500000000E-02 0.  1.
    8880022    1    1    2    0    0  0.58653054414E+03 -0.88751556582E+03  0.27290736944E+04  0.29330763442E+04  0.15294330000E+03 0.  0.
    8880022    1    1    2    0    0 -0.58653054414E+03  0.88751556582E+03  0.39684611162E+03  0.11456790336E+04  0.15294330000E+03 0.  0.
<mgrwt>
<rscale>  0 0.10747528E+04</rscale>
<asrwt>0</asrwt>
<pdfrwt beam="1">  1        2 0.55420578E+00 0.10747528E+04</pdfrwt>
<pdfrwt beam="2">  1       -2 0.73295045E-01 0.10747528E+04</pdfrwt>
<totfact> 0.11857330E+00</totfact>
</mgrwt>
</event>
<event>
 4    1  0.1033139E-008  0.1603151E+04  0.7818608E-02  0.8818615E-01
         -2   -1    0    0    0  501 -0.00000000000E+00  0.00000000000E+00  0.10925789077E+04  0.10925789077E+04  0.25500000000E-02 0.  1.
          2   -1    0    0  501    0  0.00000000000E+00 -0.00000000000E+00 -0.23999062888E+04  0.23999062888E+04  0.25500000000E-02 0. -1.
    8880022    1    1    2    0    0  0.47383086381E+03  0.15238716449E+04 -0.40776215465E+03  0.16541953045E+04  0.15294330000E+03 0.  0.
    8880022    1    1    2    0    0 -0.47383086381E+03 -0.15238716449E+04 -0.89956522644E+03  0.18382898920E+04  0.15294330000E+03 0.  0.
<mgrwt>
<rscale>  0 0.16031507E+04</rscale>
<asrwt>0</asrwt>
<pdfrwt beam="1">  1        2 0.36921635E+00 0.16031507E+04</pdfrwt>
<pdfrwt beam="2">  1       -2 0.16808906E+00 0.16031507E+04</pdfrwt>
<totfact> 0.81567258E-01</totfact>
</mgrwt>
</event>
<event>
 4    1  0.1033139E-008  0.3120709E+03  0.7818608E-02  0.1079357E+00
         -2   -1    0    0    0  501 -0.00000000000E+00  0.00000000000E+00  0.55311932155E+03  0.55311932155E+03  0.25500000000E-02 0.  1.
          2   -1    0    0  501    0  0.00000000000E+00 -0.00000000000E+00 -0.12015596537E+04  0.12015596537E+04  0.25500000000E-02 0. -1.
    8880022    1    1    2    0    0 -0.21392771631E+03 -0.16802244461E+03 -0.11347340181E+04  0.11768642889E+04  0.15294330000E+03 0.  0.
    8880022    1    1    2    0    0  0.21392771631E+03  0.16802244461E+03  0.48629368596E+03  0.57781468632E+03  0.15294330000E+03 0.  1.
<mgrwt>
<rscale>  0 0.31207093E+03</rscale>
<asrwt>0</asrwt>
<pdfrwt beam="1">  1        2 0.18485533E+00 0.31207093E+03</pdfrwt>
<pdfrwt beam="2">  1       -2 0.85095280E-01 0.31207093E+03</pdfrwt>
<totfact> 0.24881830E+01</totfact>
</mgrwt>
</event>
<event>
 4    1  0.1033139E-008  0.2827211E+03  0.7818608E-02  0.1094212E+00
          2   -1    0    0  501    0  0.00000000000E+00  0.00000000000E+00  0.81656119714E+03  0.81656119715E+03  0.25500000000E-02 0. -1.
         -2   -1    0    0    0  501 -0.00000000000E+00 -0.00000000000E+00 -0.26804813759E+03  0.26804813760E+03  0.25500000000E-02 0.  1.
    8880022    1    1    2    0    0 -0.85894862934E+02  0.22172418417E+03 -0.15782569782E+03  0.32379027971E+03  0.15294330000E+03 0.  0.
    8880022    1    1    2    0    0  0.85894862934E+02 -0.22172418417E+03  0.70633875738E+03  0.76081905504E+03  0.15294330000E+03 0. -1.
<mgrwt>
<rscale>  0 0.28272105E+03</rscale>
<asrwt>0</asrwt>
<pdfrwt beam="1">  1        2 0.12562480E+00 0.28272105E+03</pdfrwt>
<pdfrwt beam="2">  1       -2 0.41238175E-01 0.28272105E+03</pdfrwt>
<totfact> 0.19574739E+02</totfact>
</mgrwt>
</event>
<event>
 4    1  0.1033139E-008  0.1516452E+04  0.7818608E-02  0.8873586E-01
         -2   -1    0    0    0  501 -0.00000000000E+00  0.00000000000E+00  0.18921653702E+04  0.18921653702E+04  0.25500000000E-02 0.  1.
          2   -1    0    0  501    0  0.00000000000E+00 -0.00000000000E+00 -0.15562416045E+04  0.15562416045E+04  0.25500000000E-02 0. -1.
    8880022    1    1    2    0    0  0.82899458677E+03  0.12605560774E+04 -0.63902073563E+03  0.16455919308E+04  0.15294330000E+03 0.  0.
    8880022    1    1    2    0    0 -0.82899458677E+03 -0.12605560774E+04  0.97494450125E+03  0.18028150439E+04  0.15294330000E+03 0.  0.
<mgrwt>
<rscale>  0 0.15164515E+04</rscale>
<asrwt>0</asrwt>
<pdfrwt beam="1">  1        2 0.23942179E+00 0.15164515E+04</pdfrwt>
<pdfrwt beam="2">  1       -2 0.29110236E+00 0.15164515E+04</pdfrwt>
<totfact> 0.39900183E-01</totfact>
</mgrwt>
</event>
<event>
 4    1  0.1033139E-008  0.1575967E+04  0.7818608E-02  0.8835450E-01
          2   -1    0    0  501    0  0.00000000000E+00  0.00000000000E+00  0.23864687802E+04  0.23864687802E+04  0.25500000000E-02 0. -1.
         -2   -1    0    0    0  501 -0.00000000000E+00 -0.00000000000E+00 -0.12433918964E+04  0.12433918964E+04  0.25500000000E-02 0.  1.
    8880022    1    1    2    0    0 -0.12160929693E+04 -0.99065564691E+03 -0.16118616047E+03  0.15841885469E+04  0.15294330000E+03 0.  0.
    8880022    1    1    2    0    0  0.12160929693E+04  0.99065564691E+03  0.13042630443E+04  0.20456721297E+04  0.15294330000E+03 0. -1.
<mgrwt>
<rscale>  0 0.15759671E+04</rscale>
<asrwt>0</asrwt>
<pdfrwt beam="1">  1        2 0.36714904E+00 0.15759671E+04</pdfrwt>
<pdfrwt beam="2">  1       -2 0.19129106E+00 0.15759671E+04</pdfrwt>
<totfact> 0.57348285E-01</totfact>
</mgrwt>
</event>
<event>
 4    1  0.1033139E-008  0.1557941E+03  0.7818608E-02  0.1193529E+00
         -2   -1    0    0    0  501 -0.00000000000E+00  0.00000000000E+00  0.42219158919E+03  0.42219158920E+03  0.25500000000E-02 0.  1.
          2   -1    0    0  501    0  0.00000000000E+00 -0.00000000000E+00 -0.15153871016E+04  0.15153871016E+04  0.25500000000E-02 0. -1.
    8880022    1    1    2    0    0 -0.29410527447E+02 -0.38962156850E+01  0.40363717332E+03  0.43266012102E+03  0.15294330000E+03 0.  0.
    8880022    1    1    2    0    0  0.29410527447E+02  0.38962156850E+01 -0.14968326857E+04  0.15049185698E+04  0.15294330000E+03 0. -1.
<mgrwt>
<rscale>  0 0.15579414E+03</rscale>
<asrwt>0</asrwt>
<pdfrwt beam="1">  1        2 0.23313647E+00 0.15579414E+03</pdfrwt>
<pdfrwt beam="2">  1       -2 0.64952553E-01 0.15579414E+03</pdfrwt>
<totfact> 0.32028072E+01</totfact>
</mgrwt>
</event>
<event>
 4    1  0.1033139E-008  0.4070025E+03  0.7818608E-02  0.1041382E+00
         -2   -1    0    0    0  501 -0.00000000000E+00  0.00000000000E+00  0.59428786433E+03  0.59428786434E+03  0.25500000000E-02 0.  1.
          2   -1    0    0  501    0  0.00000000000E+00 -0.00000000000E+00 -0.90019610890E+03  0.90019610890E+03  0.25500000000E-02 0. -1.
    8880022    1    1    2    0    0 -0.22984118501E+03  0.29905254994E+03  0.46791258375E+03  0.62015581671E+03  0.15294330000E+03 0.  0.
    8880022    1    1    2    0    0  0.22984118501E+03 -0.29905254994E+03 -0.77382082832E+03  0.87432815653E+03  0.15294330000E+03 0.  0.
<mgrwt>
<rscale>  0 0.40700252E+03</rscale>
<asrwt>0</asrwt>
<pdfrwt beam="1">  1        2 0.13849171E+00 0.40700252E+03</pdfrwt>
<pdfrwt beam="2">  1       -2 0.91428903E-01 0.40700252E+03</pdfrwt>
<totfact> 0.31635813E+01</totfact>
</mgrwt>
</event>
<event>
 4    1  0.1033139E-008  0.8556685E+03  0.7818608E-02  0.9482760E-01
         -2   -1    0    0    0  501 -0.00000000000E+00  0.00000000000E+00  0.45282312295E+03  0.45282312296E+03  0.25500000000E-02 0.  1.
          2   -1    0    0  501    0  0.00000000000E+00 -0.00000000000E+00 -0.22361031940E+04  0.22361031940E+04  0.25500000000E-02 0. -1.
    8880022    1    1    2    0    0  0.49245028719E+03 -0.68283934866E+03 -0.15991303568E+04  0.18136665660E+04  0.15294330000E+03 0.  0.
    8880022    1    1    2    0    0 -0.49245028719E+03  0.68283934866E+03 -0.18414971423E+03  0.87525975099E+03  0.15294330000E+03 0.  0.
<mgrwt>
<rscale>  0 0.85566846E+03</rscale>
<asrwt>0</asrwt>
<pdfrwt beam="1">  1        2 0.34401587E+00 0.85566846E+03</pdfrwt>
<pdfrwt beam="2">  1       -2 0.69665097E-01 0.85566846E+03</pdfrwt>
<totfact> 0.94890042E+00</totfact>
</mgrwt>
</event>
<event>
 4    1  0.1033139E-008  0.1021465E+04  0.7818608E-02  0.9285311E-01
          2   -1    0    0  501    0  0.00000000000E+00  0.00000000000E+00  0.15067356179E+04  0.15067356179E+04  0.25500000000E-02 0. -1.
         -2   -1    0    0    0  501 -0.00000000000E+00 -0.00000000000E+00 -0.97785773932E+03  0.97785773932E+03  0.25500000000E-02 0.  1.
    8880022    1    1    2    0    0 -0.43588984639E+03  0.91104263990E+03  0.93555014563E+03  0.13851513917E+04  0.15294330000E+03 0.  0.
    8880022    1    1    2    0    0  0.43588984639E+03 -0.91104263990E+03 -0.40667226701E+03  0.10994419656E+04  0.15294330000E+03 0.  0.
<mgrwt>
<rscale>  0 0.10214648E+04</rscale>
<asrwt>0</asrwt>
<pdfrwt beam="1">  1        2 0.23180548E+00 0.10214648E+04</pdfrwt>
<pdfrwt beam="2">  1       -2 0.15043965E+00 0.10214648E+04</pdfrwt>
<totfact> 0.37045902E+00</totfact>
</mgrwt>
</event>
<event>
 4    1  0.1033139E-008  0.8322697E+03  0.7818608E-02  0.9514448E-01
         -2   -1    0    0    0  501 -0.00000000000E+00  0.00000000000E+00  0.15544714919E+04  0.15544714919E+04  0.25500000000E-02 0.  1.
          2   -1    0    0  501    0  0.00000000000E+00 -0.00000000000E+00 -0.12176558229E+04  0.12176558229E+04  0.25500000000E-02 0. -1.
    8880022    1    1    2    0    0  0.78816409309E+03 -0.21926812148E+03  0.12720929817E+04  0.15201622788E+04  0.15294330000E+03 0.  0.
    8880022    1    1    2    0    0 -0.78816409309E+03  0.21926812148E+03 -0.93527731272E+03  0.12519650360E+04  0.15294330000E+03 0.  0.
<mgrwt>
<rscale>  0 0.83226967E+03</rscale>
<asrwt>0</asrwt>
<pdfrwt beam="1">  1        2 0.18733167E+00 0.83226967E+03</pdfrwt>
<pdfrwt beam="2">  1       -2 0.23914946E+00 0.83226967E+03</pdfrwt>
<totfact> 0.14143983E+00</totfact>
</mgrwt>
</event>
<event>
 4    1  0.1033139E-008  0.8176468E+03  0.7818608E-02  0.9534820E-01
          2   -1    0    0  501    0  0.00000000000E+00  0.00000000000E+00  0.14739470415E+04  0.14739470415E+04  0.25500000000E-02 0. -1.
         -2   -1    0    0    0  501 -0.00000000000E+00 -0.00000000000E+00 -0.11410195276E+04  0.11410195276E+04  0.25500000000E-02 0.  1.
    8880022    1    1    2    0    0  0.51465662994E+03 -0.61667105921E+03  0.11813287504E+04  0.14366920030E+04  0.15294330000E+03 0.  0.
    8880022    1    1    2    0    0 -0.51465662994E+03  0.61667105921E+03 -0.84840123652E+03  0.11782745661E+04  0.15294330000E+03 0.  0.
<mgrwt>
<rscale>  0 0.81764680E+03</rscale>
<asrwt>0</asrwt>
<pdfrwt beam="1">  1        2 0.22676108E+00 0.81764680E+03</pdfrwt>
<pdfrwt beam="2">  1       -2 0.17554147E+00 0.81764680E+03</pdfrwt>
<totfact> 0.26025397E+00</totfact>
</mgrwt>
</event>
<event>
 4    1  0.1033139E-008  0.3315908E+03  0.7818608E-02  0.1070435E+00
          2   -1    0    0  501    0  0.00000000000E+00  0.00000000000E+00  0.99163726823E+03  0.99163726823E+03  0.25500000000E-02 0. -1.
         -2   -1    0    0    0  501 -0.00000000000E+00 -0.00000000000E+00 -0.38407916863E+03  0.38407916863E+03  0.25500000000E-02 0.  1.
    8880022    1    1    2    0    0 -0.28052027205E+03  0.88708257007E+02  0.88391327663E+03  0.94406308662E+03  0.15294330000E+03 0. -1.
    8880022    1    1    2    0    0  0.28052027205E+03 -0.88708257007E+02 -0.27635517703E+03  0.43165335025E+03  0.15294330000E+03 0.  0.
<mgrwt>
<rscale>  0 0.33159076E+03</rscale>
<asrwt>0</asrwt>
<pdfrwt beam="1">  1        2 0.15255958E+00 0.33159076E+03</pdfrwt>
<pdfrwt beam="2">  1       -2 0.59089104E-01 0.33159076E+03</pdfrwt>
<totfact> 0.72686830E+01</totfact>
</mgrwt>
</event>
<event>
 4    1  0.1033139E-008  0.1492674E+04  0.7818608E-02  0.8889339E-01
         -2   -1    0    0    0  501 -0.00000000000E+00  0.00000000000E+00  0.14875197011E+04  0.14875197011E+04  0.25500000000E-02 0.  1.
          2   -1    0    0  501    0  0.00000000000E+00 -0.00000000000E+00 -0.22649415965E+04  0.22649415965E+04  0.25500000000E-02 0. -1.
    8880022    1    1    2    0    0 -0.12315258025E+04  0.82947467942E+03  0.70318792234E+03  0.16500148342E+04  0.15294330000E+03 0.  0.
    8880022    1    1    2    0    0  0.12315258025E+04 -0.82947467942E+03 -0.14806098178E+04  0.21024464634E+04  0.15294330000E+03 0.  0.
<mgrwt>
<rscale>  0 0.14926740E+04</rscale>
<asrwt>0</asrwt>
<pdfrwt beam="1">  1        2 0.34845256E+00 0.14926740E+04</pdfrwt>
<pdfrwt beam="2">  1       -2 0.22884918E+00 0.14926740E+04</pdfrwt>
<totfact> 0.38720622E-01</totfact>
</mgrwt>
</event>
<event>
 4    1  0.1033139E-008  0.5082351E+03  0.7818608E-02  0.1011652E+00
          2   -1    0    0  501    0  0.00000000000E+00  0.00000000000E+00  0.81205630926E+03  0.81205630926E+03  0.25500000000E-02 0. -1.
         -2   -1    0    0    0  501 -0.00000000000E+00 -0.00000000000E+00 -0.13003369439E+04  0.13003369439E+04  0.25500000000E-02 0.  1.
    8880022    1    1    2    0    0  0.47835374161E+03 -0.78032012421E+02 -0.11621098529E+04  0.12683856907E+04  0.15294330000E+03 0.  0.
    8880022    1    1    2    0    0 -0.47835374161E+03  0.78032012421E+02  0.67382921829E+03  0.84400756247E+03  0.15294330000E+03 0. -1.
<mgrwt>
<rscale>  0 0.50823513E+03</rscale>
<asrwt>0</asrwt>
<pdfrwt beam="1">  1        2 0.12493174E+00 0.50823513E+03</pdfrwt>
<pdfrwt beam="2">  1       -2 0.20005184E+00 0.50823513E+03</pdfrwt>
<totfact> 0.47716225E+00</totfact>
</mgrwt>
</event>
<event>
 4    1  0.1033139E-008  0.1284212E+04  0.7818608E-02  0.9042180E-01
         -2   -1    0    0    0  501 -0.00000000000E+00  0.00000000000E+00  0.73525343685E+03  0.73525343686E+03  0.25500000000E-02 0.  1.
          2   -1    0    0  501    0  0.00000000000E+00 -0.00000000000E+00 -0.30393381529E+04  0.30393381529E+04  0.25500000000E-02 0. -1.
    8880022    1    1    2    0    0 -0.12104388822E+04 -0.40080800960E+03 -0.18601592886E+03  0.12976143213E+04  0.15294330000E+03 0.  0.
    8880022    1    1    2    0    0  0.12104388822E+04  0.40080800960E+03 -0.21180687872E+04  0.24769772685E+04  0.15294330000E+03 0.  0.
<mgrwt>
<rscale>  0 0.12842122E+04</rscale>
<asrwt>0</asrwt>
<pdfrwt beam="1">  1        2 0.46759048E+00 0.12842122E+04</pdfrwt>
<pdfrwt beam="2">  1       -2 0.11311591E+00 0.12842122E+04</pdfrwt>
<totfact> 0.98796381E-01</totfact>
</mgrwt>
</event>
<event>
 4    1  0.1033139E-008  0.1900780E+04  0.7818608E-02  0.8654468E-01
         -2   -1    0    0    0  501 -0.00000000000E+00  0.00000000000E+00  0.29759989752E+04  0.29759989752E+04  0.25500000000E-02 0.  1.
          2   -1    0    0  501    0  0.00000000000E+00 -0.00000000000E+00 -0.14312530866E+04  0.14312530866E+04  0.25500000000E-02 0. -1.
    8880022    1    1    2    0    0 -0.18942482897E+04 -0.37369304008E+02  0.16308494452E+04  0.25045228316E+04  0.15294330000E+03 0.  0.
    8880022    1    1    2    0    0  0.18942482897E+04  0.37369304008E+02 -0.86103556572E+02  0.19027292302E+04  0.15294330000E+03 0.  0.
<mgrwt>
<rscale>  0 0.19007800E+04</rscale>
<asrwt>0</asrwt>
<pdfrwt beam="1">  1        2 0.22019278E+00 0.19007800E+04</pdfrwt>
<pdfrwt beam="2">  1       -2 0.45784599E+00 0.19007800E+04</pdfrwt>
<totfact> 0.38475714E-02</totfact>
</mgrwt>
</event>
<event>
 4    1  0.1033139E-008  0.4300773E+03  0.7818608E-02  0.1033836E+00
         -2   -1    0    0    0  501 -0.00000000000E+00  0.00000000000E+00  0.26100345919E+03  0.26100345920E+03  0.25500000000E-02 0.  1.
          2   -1    0    0  501    0  0.00000000000E+00 -0.00000000000E+00 -0.22868962076E+04  0.22868962076E+04  0.25500000000E-02 0. -1.
    8880022    1    1    2    0    0  0.38936877448E+03  0.99833966797E+02 -0.20712568491E+04  0.21154364683E+04  0.15294330000E+03 0.  0.
    8880022    1    1    2    0    0 -0.38936877448E+03 -0.99833966797E+02  0.45364100631E+02  0.43246319855E+03  0.15294330000E+03 0.  1.
<mgrwt>
<rscale>  0 0.43007734E+03</rscale>
<asrwt>0</asrwt>
<pdfrwt beam="1">  1        2 0.35183017E+00 0.43007734E+03</pdfrwt>
<pdfrwt beam="2">  1       -2 0.40154380E-01 0.43007734E+03</pdfrwt>
<totfact> 0.29833055E+01</totfact>
</mgrwt>
</event>
<event>
 4    1  0.1033139E-008  0.7056024E+03  0.7818608E-02  0.9707699E-01
          2   -1    0    0  501    0  0.00000000000E+00  0.00000000000E+00  0.83280052833E+03  0.83280052833E+03  0.25500000000E-02 0. -1.
         -2   -1    0    0    0  501 -0.00000000000E+00 -0.00000000000E+00 -0.13298064529E+04  0.13298064529E+04  0.25500000000E-02 0.  1.
    8880022    1    1    2    0    0  0.36506067993E+03 -0.58413505579E+03 -0.10507375467E+04  0.12656714062E+04  0.15294330000E+03 0.  0.
    8880022    1    1    2    0    0 -0.36506067993E+03  0.58413505579E+03  0.55373162211E+03  0.89693557504E+03  0.15294330000E+03 0.  0.
<mgrwt>
<rscale>  0 0.70560238E+03</rscale>
<asrwt>0</asrwt>
<pdfrwt beam="1">  1        2 0.12812316E+00 0.70560238E+03</pdfrwt>
<pdfrwt beam="2">  1       -2 0.20458561E+00 0.70560238E+03</pdfrwt>
<totfact> 0.41703302E+00</totfact>
</mgrwt>
</event>
<event>
 4    1  0.1033139E-008  0.1929813E+03  0.7818608E-02  0.1155800E+00
         -2   -1    0    0    0  501 -0.00000000000E+00  0.00000000000E+00  0.20220986424E+03  0.20220986426E+03  0.25500000000E-02 0.  1.
          2   -1    0    0  501    0  0.00000000000E+00 -0.00000000000E+00 -0.22915102479E+03  0.22915102481E+03  0.25500000000E-02 0. -1.
    8880022    1    1    2    0    0  0.31698383290E+02  0.11333737379E+03  0.82082611730E+02  0.20971255557E+03  0.15294330000E+03 0.  1.
    8880022    1    1    2    0    0 -0.31698383290E+02 -0.11333737379E+03 -0.10902377228E+03  0.22164833349E+03  0.15294330000E+03 0.  0.
<mgrwt>
<rscale>  0 0.19298135E+03</rscale>
<asrwt>0</asrwt>
<pdfrwt beam="1">  1        2 0.35254004E-01 0.19298135E+03</pdfrwt>
<pdfrwt beam="2">  1       -2 0.31109210E-01 0.19298135E+03</pdfrwt>
<totfact> 0.13919244E+03</totfact>
</mgrwt>
</event>
<event>
 4    1  0.1033139E-008  0.1163682E+04  0.7818608E-02  0.9145253E-01
         -2   -1    0    0    0  501 -0.00000000000E+00  0.00000000000E+00  0.43613197295E+03  0.43613197296E+03  0.25500000000E-02 0.  1.
          2   -1    0    0  501    0  0.00000000000E+00 -0.00000000000E+00 -0.42444802870E+04  0.42444802870E+04  0.25500000000E-02 0. -1.
    8880022    1    1    2    0    0  0.11535877416E+04  0.60346280411E+00 -0.69154425796E+03  0.13536580645E+04  0.15294330000E+03 0.  0.
    8880022    1    1    2    0    0 -0.11535877416E+04 -0.60346280411E+00 -0.31168040561E+04  0.33269541955E+04  0.15294330000E+03 0.  0.
<mgrwt>
<rscale>  0 0.11636824E+04</rscale>
<asrwt>0</asrwt>
<pdfrwt beam="1">  1        2 0.65299694E+00 0.11636824E+04</pdfrwt>
<pdfrwt beam="2">  1       -2 0.67097230E-01 0.11636824E+04</pdfrwt>
<totfact> 0.44740989E-01</totfact>
</mgrwt>
</event>
<event>
 4    1  0.1033139E-008  0.5237048E+03  0.7818608E-02  0.1007770E+00
          2   -1    0    0  501    0  0.00000000000E+00  0.00000000000E+00  0.17771231722E+04  0.17771231722E+04  0.25500000000E-02 0. -1.
         -2   -1    0    0    0  501 -0.00000000000E+00 -0.00000000000E+00 -0.40041554943E+03  0.40041554944E+03  0.25500000000E-02 0.  1.
    8880022    1    1    2    0    0  0.49598446735E+03 -0.69817352986E+02 -0.16518219563E+03  0.54913738299E+03  0.15294330000E+03 0.  0.
    8880022    1    1    2    0    0 -0.49598446735E+03  0.69817352986E+02  0.15418898184E+04  0.16284013387E+04  0.15294330000E+03 0.  0.
<mgrwt>
<rscale>  0 0.52370479E+03</rscale>
<asrwt>0</asrwt>
<pdfrwt beam="1">  1        2 0.27340356E+00 0.52370479E+03</pdfrwt>
<pdfrwt beam="2">  1       -2 0.61602392E-01 0.52370479E+03</pdfrwt>
<totfact> 0.23189804E+01</totfact>
</mgrwt>
</event>
<event>
 4    1  0.1033139E-008  0.9131018E+03  0.7818608E-02  0.9409350E-01
         -2   -1    0    0    0  501 -0.00000000000E+00  0.00000000000E+00  0.17606523244E+04  0.17606523244E+04  0.25500000000E-02 0.  1.
          2   -1    0    0  501    0  0.00000000000E+00 -0.00000000000E+00 -0.63624829445E+03  0.63624829446E+03  0.25500000000E-02 0. -1.
    8880022    1    1    2    0    0  0.37308671991E+03  0.81924936372E+03 -0.43835849010E+02  0.91415340901E+03  0.15294330000E+03 0.  0.
    8880022    1    1    2    0    0 -0.37308671991E+03 -0.81924936372E+03  0.11682398789E+04  0.14827472098E+04  0.15294330000E+03 0.  0.
<mgrwt>
<rscale>  0 0.91310179E+03</rscale>
<asrwt>0</asrwt>
<pdfrwt beam="1">  1        2 0.97884353E-01 0.91310179E+03</pdfrwt>
<pdfrwt beam="2">  1       -2 0.27086959E+00 0.91310179E+03</pdfrwt>
<totfact> 0.22367208E+00</totfact>
</mgrwt>
</event>
<event>
 4    1  0.1033139E-008  0.1411717E+04  0.7818608E-02  0.8945380E-01
         -2   -1    0    0    0  501 -0.00000000000E+00  0.00000000000E+00  0.12507921685E+04  0.12507921685E+04  0.25500000000E-02 0.  1.
          2   -1    0    0  501    0  0.00000000000E+00 -0.00000000000E+00 -0.23867179900E+04  0.23867179900E+04  0.25500000000E-02 0. -1.
    8880022    1    1    2    0    0  0.93671037981E+03 -0.10450493168E+04  0.48064178714E+03  0.14912956081E+04  0.15294330000E+03 0.  0.
    8880022    1    1    2    0    0 -0.93671037981E+03  0.10450493168E+04 -0.16165676087E+04  0.21462145504E+04  0.15294330000E+03 0.  0.
<mgrwt>
<rscale>  0 0.14117174E+04</rscale>
<asrwt>0</asrwt>
<pdfrwt beam="1">  1        2 0.36718738E+00 0.14117174E+04</pdfrwt>
<pdfrwt beam="2">  1       -2 0.19242956E+00 0.14117174E+04</pdfrwt>
<totfact> 0.57335744E-01</totfact>
</mgrwt>
</event>
<event>
 4    1  0.1033139E-008  0.6815117E+03  0.7818608E-02  0.9749383E-01
          2   -1    0    0  501    0  0.00000000000E+00  0.00000000000E+00  0.11159748901E+04  0.11159748901E+04  0.25500000000E-02 0. -1.
         -2   -1    0    0    0  501 -0.00000000000E+00 -0.00000000000E+00 -0.47128321525E+03  0.47128321526E+03  0.25500000000E-02 0.  1.
    8880022    1    1    2    0    0  0.52906038167E+03  0.40144951859E+03  0.50999930237E+02  0.68341733174E+03  0.15294330000E+03 0.  0.
    8880022    1    1    2    0    0 -0.52906038167E+03 -0.40144951859E+03  0.59369174462E+03  0.90384077363E+03  0.15294330000E+03 0.  0.
<mgrwt>
<rscale>  0 0.68151174E+03</rscale>
<asrwt>0</asrwt>
<pdfrwt beam="1">  1        2 0.17168844E+00 0.68151174E+03</pdfrwt>
<pdfrwt beam="2">  1       -2 0.72505110E-01 0.68151174E+03</pdfrwt>
<totfact> 0.37543598E+01</totfact>
</mgrwt>
</event>
<event>
 4    1  0.1033139E-008  0.1020264E+04  0.7818608E-02  0.9286594E-01
         -2   -1    0    0    0  501 -0.00000000000E+00  0.00000000000E+00  0.20192773498E+04  0.20192773498E+04  0.25500000000E-02 0.  1.
          2   -1    0    0  501    0  0.00000000000E+00 -0.00000000000E+00 -0.86152045146E+03  0.86152045147E+03  0.25500000000E-02 0. -1.
    8880022    1    1    2    0    0 -0.61425646674E+03  0.80014795820E+03  0.14917302284E+04  0.18072627062E+04  0.15294330000E+03 0.  0.
    8880022    1    1    2    0    0  0.61425646674E+03 -0.80014795820E+03 -0.33397333012E+03  0.10735350950E+04  0.15294330000E+03 0.  0.
<mgrwt>
<rscale>  0 0.10202644E+04</rscale>
<asrwt>0</asrwt>
<pdfrwt beam="1">  1        2 0.13254161E+00 0.10202644E+04</pdfrwt>
<pdfrwt beam="2">  1       -2 0.31065805E+00 0.10202644E+04</pdfrwt>
<totfact> 0.85443971E-01</totfact>
</mgrwt>
</event>
<event>
 4    1  0.1033139E-008  0.7419402E+03  0.7818608E-02  0.9648080E-01
         -2   -1    0    0    0  501 -0.00000000000E+00  0.00000000000E+00  0.10443894331E+04  0.10443894331E+04  0.25500000000E-02 0.  1.
          2   -1    0    0  501    0  0.00000000000E+00 -0.00000000000E+00 -0.18412438900E+04  0.18412438900E+04  0.25500000000E-02 0. -1.
    8880022    1    1    2    0    0 -0.69939292526E+03 -0.19476418637E+03  0.82050764957E+03  0.11062133647E+04  0.15294330000E+03 0.  0.
    8880022    1    1    2    0    0  0.69939292526E+03  0.19476418637E+03 -0.16173621064E+04  0.17794199585E+04  0.15294330000E+03 0. -1.
<mgrwt>
<rscale>  0 0.74194016E+03</rscale>
<asrwt>0</asrwt>
<pdfrwt beam="1">  1        2 0.28326829E+00 0.74194016E+03</pdfrwt>
<pdfrwt beam="2">  1       -2 0.16067530E+00 0.74194016E+03</pdfrwt>
<totfact> 0.21125933E+00</totfact>
</mgrwt>
</event>
<event>
 4    1  0.1033139E-008  0.8079686E+03  0.7818608E-02  0.9548554E-01
          2   -1    0    0  501    0  0.00000000000E+00  0.00000000000E+00  0.17230133163E+04  0.17230133163E+04  0.25500000000E-02 0. -1.
         -2   -1    0    0    0  501 -0.00000000000E+00 -0.00000000000E+00 -0.92003131545E+03  0.92003131545E+03  0.25500000000E-02 0.  1.
    8880022    1    1    2    0    0  0.78712438436E+03 -0.99281694660E+02  0.14150126195E+04  0.16294397864E+04  0.15294330000E+03 0.  0.
    8880022    1    1    2    0    0 -0.78712438436E+03  0.99281694660E+02 -0.61203061860E+03  0.10136048453E+04  0.15294330000E+03 0.  0.
<mgrwt>
<rscale>  0 0.80796863E+03</rscale>
<asrwt>0</asrwt>
<pdfrwt beam="1">  1        2 0.26507897E+00 0.80796863E+03</pdfrwt>
<pdfrwt beam="2">  1       -2 0.14154328E+00 0.80796863E+03</pdfrwt>
<totfact> 0.33943215E+00</totfact>
</mgrwt>
</event>
<event>
 4    1  0.1033139E-008  0.4486291E+03  0.7818608E-02  0.1028132E+00
          2   -1    0    0  501    0  0.00000000000E+00  0.00000000000E+00  0.84757620590E+03  0.84757620590E+03  0.25500000000E-02 0. -1.
         -2   -1    0    0    0  501 -0.00000000000E+00 -0.00000000000E+00 -0.61291119733E+03  0.61291119734E+03  0.25500000000E-02 0.  1.
    8880022    1    1    2    0    0 -0.41470596940E+03 -0.76781594297E+02  0.68886900671E+03  0.82207579681E+03  0.15294330000E+03 0.  0.
    8880022    1    1    2    0    0  0.41470596940E+03  0.76781594297E+02 -0.45420399815E+03  0.63841160643E+03  0.15294330000E+03 0.  0.
<mgrwt>
<rscale>  0 0.44862914E+03</rscale>
<asrwt>0</asrwt>
<pdfrwt beam="1">  1        2 0.13039634E+00 0.44862914E+03</pdfrwt>
<pdfrwt beam="2">  1       -2 0.94294031E-01 0.44862914E+03</pdfrwt>
<totfact> 0.31746214E+01</totfact>
</mgrwt>
</event>
<event>
 4    1  0.1033139E-008  0.6549009E+03  0.7818608E-02  0.9797626E-01
          2   -1    0    0  501    0  0.00000000000E+00  0.00000000000E+00  0.11621744804E+04  0.11621744804E+04  0.25500000000E-02 0. -1.
         -2   -1    0    0    0  501 -0.00000000000E+00 -0.00000000000E+00 -0.55350657707E+03  0.55350657708E+03  0.25500000000E-02 0.  1.
    8880022    1    1    2    0    0  0.42034567604E+03  0.47834409365E+03  0.79955328179E+03  0.10335282593E+04  0.15294330000E+03 0.  0.
    8880022    1    1    2    0    0 -0.42034567604E+03 -0.47834409365E+03 -0.19088537850E+03  0.68215279816E+03  0.15294330000E+03 0.  0.
<mgrwt>
<rscale>  0 0.65490092E+03</rscale>
<asrwt>0</asrwt>
<pdfrwt beam="1">  1        2 0.17879607E+00 0.65490092E+03</pdfrwt>
<pdfrwt beam="2">  1       -2 0.85154858E-01 0.65490092E+03</pdfrwt>
<totfact> 0.24657394E+01</totfact>
</mgrwt>
</event>
<event>
 4    1  0.1033139E-008  0.2180107E+03  0.7818608E-02  0.1135375E+00
          2   -1    0    0  501    0  0.00000000000E+00  0.00000000000E+00  0.18119252530E+03  0.18119252532E+03  0.25500000000E-02 0. -1.
         -2   -1    0    0    0  501 -0.00000000000E+00 -0.00000000000E+00 -0.40166737931E+03  0.40166737932E+03  0.25500000000E-02 0.  1.
    8880022    1    1    2    0    0  0.10014063239E+03 -0.11878075573E+03 -0.28189596471E+03  0.35636217830E+03  0.15294330000E+03 0.  0.
    8880022    1    1    2    0    0 -0.10014063239E+03  0.11878075573E+03  0.61421110693E+02  0.22649772635E+03  0.15294330000E+03 0.  0.
<mgrwt>
<rscale>  0 0.21801070E+03</rscale>
<asrwt>0</asrwt>
<pdfrwt beam="1">  1        2 0.27875773E-01 0.21801070E+03</pdfrwt>
<pdfrwt beam="2">  1       -2 0.61794981E-01 0.21801070E+03</pdfrwt>
<totfact> 0.47426472E+02</totfact>
</mgrwt>
</event>
<event>
 4    1  0.1033139E-008  0.4926795E+03  0.7818608E-02  0.1015708E+00
          2   -1    0    0  501    0  0.00000000000E+00  0.00000000000E+00  0.71706720464E+03  0.71706720464E+03  0.25500000000E-02 0. -1.
         -2   -1    0    0    0  501 -0.00000000000E+00 -0.00000000000E+00 -0.10262134049E+04  0.10262134049E+04  0.25500000000E-02 0.  1.
    8880022    1    1    2    0    0  0.41908451322E+03  0.20906842727E+03  0.55896905398E+03  0.74510367925E+03  0.15294330000E+03 0.  0.
    8880022    1    1    2    0    0 -0.41908451322E+03 -0.20906842727E+03 -0.86811525425E+03  0.99817693030E+03  0.15294330000E+03 0.  0.
<mgrwt>
<rscale>  0 0.49267950E+03</rscale>
<asrwt>0</asrwt>
<pdfrwt beam="1">  1        2 0.11031803E+00 0.49267950E+03</pdfrwt>
<pdfrwt beam="2">  1       -2 0.15787899E+00 0.49267950E+03</pdfrwt>
<totfact> 0.10916126E+01</totfact>
</mgrwt>
</event>
<event>
 4    1  0.1033139E-008  0.1706772E+04  0.7818608E-02  0.8757511E-01
          2   -1    0    0  501    0  0.00000000000E+00  0.00000000000E+00  0.20050607013E+04  0.20050607013E+04  0.25500000000E-02 0. -1.
         -2   -1    0    0    0  501 -0.00000000000E+00 -0.00000000000E+00 -0.20212428172E+04  0.20212428172E+04  0.25500000000E-02 0.  1.
    8880022    1    1    2    0    0  0.16875062345E+03 -0.16915092886E+04  0.10594579340E+04  0.20088611732E+04  0.15294330000E+03 0.  0.
    8880022    1    1    2    0    0 -0.16875062345E+03  0.16915092886E+04 -0.10756400499E+04  0.20174423452E+04  0.15294330000E+03 0.  0.
<mgrwt>
<rscale>  0 0.17067724E+04</rscale>
<asrwt>0</asrwt>
<pdfrwt beam="1">  1        2 0.30847088E+00 0.17067724E+04</pdfrwt>
<pdfrwt beam="2">  1       -2 0.31096043E+00 0.17067724E+04</pdfrwt>
<totfact> 0.16559204E-01</totfact>
</mgrwt>
</event>
<event>
 4    1  0.1033139E-008  0.1195053E+04  0.7818608E-02  0.9117198E-01
          2   -1    0    0  501    0  0.00000000000E+00  0.00000000000E+00  0.27231585811E+04  0.27231585811E+04  0.25500000000E-02 0. -1.
         -2   -1    0    0    0  501 -0.00000000000E+00 -0.00000000000E+00 -0.90863536344E+03  0.90863536344E+03  0.25500000000E-02 0.  1.
    8880022    1    1    2    0    0 -0.11742892249E+04 -0.16063642501E+03 -0.27351785485E+03  0.12259538795E+04  0.15294330000E+03 0.  0.
    8880022    1    1    2    0    0  0.11742892249E+04  0.16063642501E+03  0.20880410725E+04  0.24058400650E+04  0.15294330000E+03 0.  0.
<mgrwt>
<rscale>  0 0.11950527E+04</rscale>
<asrwt>0</asrwt>
<pdfrwt beam="1">  1        2 0.41894747E+00 0.11950527E+04</pdfrwt>
<pdfrwt beam="2">  1       -2 0.13979006E+00 0.11950527E+04</pdfrwt>
<totfact> 0.91091889E-01</totfact>
</mgrwt>
</event>
<event>
 4    1  0.1033139E-008  0.1261329E+04  0.7818608E-02  0.9060806E-01
          2   -1    0    0  501    0  0.00000000000E+00  0.00000000000E+00  0.14935624997E+04  0.14935624997E+04  0.25500000000E-02 0. -1.
         -2   -1    0    0    0  501 -0.00000000000E+00 -0.00000000000E+00 -0.16617910515E+04  0.16617910515E+04  0.25500000000E-02 0.  1.
    8880022    1    1    2    0    0 -0.93021674759E+03 -0.83800787318E+03 -0.10294061672E+04  0.16280752756E+04  0.15294330000E+03 0.  0.
    8880022    1    1    2    0    0  0.93021674759E+03  0.83800787318E+03  0.86117761534E+03  0.15272782756E+04  0.15294330000E+03 0.  0.
<mgrwt>
<rscale>  0 0.12613295E+04</rscale>
<asrwt>0</asrwt>
<pdfrwt beam="1">  1        2 0.22977885E+00 0.12613295E+04</pdfrwt>
<pdfrwt beam="2">  1       -2 0.25566016E+00 0.12613295E+04</pdfrwt>
<totfact> 0.73256911E-01</totfact>
</mgrwt>
</event>
<event>
 4    1  0.1033139E-008  0.1177041E+04  0.7818608E-02  0.9133193E-01
         -2   -1    0    0    0  501 -0.00000000000E+00  0.00000000000E+00  0.75454307467E+03  0.75454307468E+03  0.25500000000E-02 0.  1.
          2   -1    0    0  501    0  0.00000000000E+00 -0.00000000000E+00 -0.35759778313E+04  0.35759778313E+04  0.25500000000E-02 0. -1.
    8880022    1    1    2    0    0 -0.13632715015E+03  0.11590723164E+04  0.99608452331E+02  0.11812481633E+04  0.15294330000E+03 0.  0.
    8880022    1    1    2    0    0  0.13632715015E+03 -0.11590723164E+04 -0.29210432089E+04  0.31492727427E+04  0.15294330000E+03 0.  0.
<mgrwt>
<rscale>  0 0.11770409E+04</rscale>
<asrwt>0</asrwt>
<pdfrwt beam="1">  1        2 0.55015042E+00 0.11770409E+04</pdfrwt>
<pdfrwt beam="2">  1       -2 0.11608355E+00 0.11770409E+04</pdfrwt>
<totfact> 0.41548385E-01</totfact>
</mgrwt>
</event>
<event>
 4    1  0.1033139E-008  0.1118505E+04  0.7818608E-02  0.9187341E-01
         -2   -1    0    0    0  501 -0.00000000000E+00  0.00000000000E+00  0.55960585726E+03  0.55960585726E+03  0.25500000000E-02 0.  1.
          2   -1    0    0  501    0  0.00000000000E+00 -0.00000000000E+00 -0.32361948905E+04  0.32361948905E+04  0.25500000000E-02 0. -1.
    8880022    1    1    2    0    0 -0.10963436266E+04 -0.16029060986E+03 -0.28297123781E+03  0.11537446865E+04  0.15294330000E+03 0.  0.
    8880022    1    1    2    0    0  0.10963436266E+04  0.16029060986E+03 -0.23936177954E+04  0.26420560612E+04  0.15294330000E+03 0.  0.
<mgrwt>
<rscale>  0 0.11185053E+04</rscale>
<asrwt>0</asrwt>
<pdfrwt beam="1">  1        2 0.49787613E+00 0.11185053E+04</pdfrwt>
<pdfrwt beam="2">  1       -2 0.86093211E-01 0.11185053E+04</pdfrwt>
<totfact> 0.14488671E+00</totfact>
</mgrwt>
</event>
<event>
 4    1  0.1033139E-008  0.8258186E+03  0.7818608E-02  0.9523380E-01
          2   -1    0    0  501    0  0.00000000000E+00  0.00000000000E+00  0.13241517669E+04  0.13241517669E+04  0.25500000000E-02 0. -1.
         -2   -1    0    0    0  501 -0.00000000000E+00 -0.00000000000E+00 -0.55320697433E+03  0.55320697433E+03  0.25500000000E-02 0.  1.
    8880022    1    1    2    0    0 -0.61075068057E+03 -0.53438599219E+03  0.13887957618E+03  0.83741505370E+03  0.15294330000E+03 0.  0.
    8880022    1    1    2    0    0  0.61075068057E+03  0.53438599219E+03  0.63206521640E+03  0.10399436875E+04  0.15294330000E+03 0.  0.
<mgrwt>
<rscale>  0 0.82581865E+03</rscale>
<asrwt>0</asrwt>
<pdfrwt beam="1">  1        2 0.20371566E+00 0.82581865E+03</pdfrwt>
<pdfrwt beam="2">  1       -2 0.85108765E-01 0.82581865E+03</pdfrwt>
<totfact> 0.19467433E+01</totfact>
</mgrwt>
</event>
<event>
 4    1  0.1033139E-008  0.8890500E+03  0.7818608E-02  0.9439374E-01
         -2   -1    0    0    0  501 -0.00000000000E+00  0.00000000000E+00  0.13962590125E+04  0.13962590125E+04  0.25500000000E-02 0.  1.
          2   -1    0    0  501    0  0.00000000000E+00 -0.00000000000E+00 -0.68111815845E+03  0.68111815845E+03  0.25500000000E-02 0. -1.
    8880022    1    1    2    0    0  0.85743618159E+03 -0.17838573587E+03  0.78441912621E+03  0.11856320234E+04  0.15294330000E+03 0.  0.
    8880022    1    1    2    0    0 -0.85743618159E+03  0.17838573587E+03 -0.69278272154E+02  0.89174514760E+03  0.15294330000E+03 0.  0.
<mgrwt>
<rscale>  0 0.88905002E+03</rscale>
<asrwt>0</asrwt>
<pdfrwt beam="1">  1        2 0.10478741E+00 0.88905002E+03</pdfrwt>
<pdfrwt beam="2">  1       -2 0.21480907E+00 0.88905002E+03</pdfrwt>
<totfact> 0.45515855E+00</totfact>
</mgrwt>
</event>
<event>
 4    1  0.1033139E-008  0.8403429E+03  0.7818608E-02  0.9503391E-01
          2   -1    0    0  501    0  0.00000000000E+00  0.00000000000E+00  0.19551891444E+04  0.19551891444E+04  0.25500000000E-02 0. -1.
         -2   -1    0    0    0  501 -0.00000000000E+00 -0.00000000000E+00 -0.12344469978E+04  0.12344469978E+04  0.25500000000E-02 0.  1.
    8880022    1    1    2    0    0  0.56746659400E+03  0.60063820976E+03 -0.98099808578E+03  0.12917172646E+04  0.15294330000E+03 0.  0.
    8880022    1    1    2    0    0 -0.56746659400E+03 -0.60063820976E+03  0.17017402324E+04  0.18979188776E+04  0.15294330000E+03 0.  0.
<mgrwt>
<rscale>  0 0.84034293E+03</rscale>
<asrwt>0</asrwt>
<pdfrwt beam="1">  1        2 0.30079833E+00 0.84034293E+03</pdfrwt>
<pdfrwt beam="2">  1       -2 0.18991492E+00 0.84034293E+03</pdfrwt>
<totfact> 0.11241046E+00</totfact>
</mgrwt>
</event>
<event>
 4    1  0.1033139E-008  0.8052806E+03  0.7818608E-02  0.9552405E-01
          2   -1    0    0  501    0  0.00000000000E+00  0.00000000000E+00  0.18363162700E+04  0.18363162700E+04  0.25500000000E-02 0. -1.
         -2   -1    0    0    0  501 -0.00000000000E+00 -0.00000000000E+00 -0.58392299439E+03  0.58392299440E+03  0.25500000000E-02 0.  1.
    8880022    1    1    2    0    0 -0.78564935602E+03  0.88545409261E+02  0.13869648459E+04  0.16037918621E+04  0.15294330000E+03 0.  0.
    8880022    1    1    2    0    0  0.78564935602E+03 -0.88545409261E+02 -0.13457157034E+03  0.81644740227E+03  0.15294330000E+03 0.  0.
<mgrwt>
<rscale>  0 0.80528061E+03</rscale>
<asrwt>0</asrwt>
<pdfrwt beam="1">  1        2 0.28251019E+00 0.80528061E+03</pdfrwt>
<pdfrwt beam="2">  1       -2 0.89834308E-01 0.80528061E+03</pdfrwt>
<totfact> 0.89484471E+00</totfact>
</mgrwt>
</event>
<event>
 4    1  0.1033139E-008  0.6125124E+03  0.7818608E-02  0.9879782E-01
          2   -1    0    0  501    0  0.00000000000E+00  0.00000000000E+00  0.42040284131E+03  0.42040284132E+03  0.25500000000E-02 0. -1.
         -2   -1    0    0    0  501 -0.00000000000E+00 -0.00000000000E+00 -0.12605758495E+04  0.12605758495E+04  0.25500000000E-02 0.  1.
    8880022    1    1    2    0    0  0.57415936349E+03  0.14873058778E+03 -0.87431028770E+03  0.10675157585E+04  0.15294330000E+03 0.  1.
    8880022    1    1    2    0    0 -0.57415936349E+03 -0.14873058778E+03  0.34137279546E+02  0.61346293229E+03  0.15294330000E+03 0.  0.
<mgrwt>
<rscale>  0 0.61251238E+03</rscale>
<asrwt>0</asrwt>
<pdfrwt beam="1">  1        2 0.64677361E-01 0.61251238E+03</pdfrwt>
<pdfrwt beam="2">  1       -2 0.19393474E+00 0.61251238E+03</pdfrwt>
<totfact> 0.11331769E+01</totfact>
</mgrwt>
</event>
<event>
 4    1  0.1033139E-008  0.7751275E+03  0.7818608E-02  0.9596734E-01
          2   -1    0    0  501    0  0.00000000000E+00  0.00000000000E+00  0.19308154217E+04  0.19308154217E+04  0.25500000000E-02 0. -1.
         -2   -1    0    0    0  501 -0.00000000000E+00 -0.00000000000E+00 -0.45105560441E+03  0.45105560442E+03  0.25500000000E-02 0.  1.
    8880022    1    1    2    0    0 -0.65539862050E+03 -0.38455636281E+03  0.14030898998E+04  0.16029609689E+04  0.15294330000E+03 0.  0.
    8880022    1    1    2    0    0  0.65539862050E+03  0.38455636281E+03  0.76669917469E+02  0.77891005719E+03  0.15294330000E+03 0.  0.
<mgrwt>
<rscale>  0 0.77512747E+03</rscale>
<asrwt>0</asrwt>
<pdfrwt beam="1">  1        2 0.29704853E+00 0.77512747E+03</pdfrwt>
<pdfrwt beam="2">  1       -2 0.69393170E-01 0.77512747E+03</pdfrwt>
<totfact> 0.14240601E+01</totfact>
</mgrwt>
</event>
<event>
 4    1  0.1033139E-008  0.8008912E+03  0.7818608E-02  0.9558728E-01
         -2   -1    0    0    0  501 -0.00000000000E+00  0.00000000000E+00  0.39511572752E+03  0.39511572752E+03  0.25500000000E-02 0.  1.
          2   -1    0    0  501    0  0.00000000000E+00 -0.00000000000E+00 -0.22546243820E+04  0.22546243820E+04  0.25500000000E-02 0. -1.
    8880022    1    1    2    0    0  0.49538877236E+03 -0.61043019250E+03 -0.16307763993E+04  0.18168264566E+04  0.15294330000E+03 0.  0.
    8880022    1    1    2    0    0 -0.49538877236E+03  0.61043019250E+03 -0.22873225515E+03  0.83291365294E+03  0.15294330000E+03 0.  0.
<mgrwt>
<rscale>  0 0.80089120E+03</rscale>
<asrwt>0</asrwt>
<pdfrwt beam="1">  1        2 0.34686528E+00 0.80089120E+03</pdfrwt>
<pdfrwt beam="2">  1       -2 0.60787036E-01 0.80089120E+03</pdfrwt>
<totfact> 0.12523846E+01</totfact>
</mgrwt>
</event>
<event>
 4    1  0.1033139E-008  0.8040740E+03  0.7818608E-02  0.9554139E-01
          2   -1    0    0  501    0  0.00000000000E+00  0.00000000000E+00  0.34560034366E+04  0.34560034366E+04  0.25500000000E-02 0. -1.
         -2   -1    0    0    0  501 -0.00000000000E+00 -0.00000000000E+00 -0.29266821130E+03  0.29266821131E+03  0.25500000000E-02 0.  1.
    8880022    1    1    2    0    0 -0.73041100719E+03  0.29940470066E+03  0.45583011450E+03  0.92429224843E+03  0.15294330000E+03 0.  0.
    8880022    1    1    2    0    0  0.73041100719E+03 -0.29940470066E+03  0.27075051108E+04  0.28243793994E+04  0.15294330000E+03 0.  0.
<mgrwt>
<rscale>  0 0.80407404E+03</rscale>
<asrwt>0</asrwt>
<pdfrwt beam="1">  1        2 0.53169282E+00 0.80407404E+03</pdfrwt>
<pdfrwt beam="2">  1       -2 0.45025880E-01 0.80407404E+03</pdfrwt>
<totfact> 0.43717449E+00</totfact>
</mgrwt>
</event>
<event>
 4    1  0.1033139E-008  0.4808690E+03  0.7818608E-02  0.1018897E+00
         -2   -1    0    0    0  501 -0.00000000000E+00  0.00000000000E+00  0.32545316920E+03  0.32545316921E+03  0.25500000000E-02 0.  1.
          2   -1    0    0  501    0  0.00000000000E+00 -0.00000000000E+00 -0.29120879845E+04  0.29120879845E+04  0.25500000000E-02 0. -1.
    8880022    1    1    2    0    0 -0.33356766739E+03  0.31076666928E+03  0.11419078395E+03  0.49424133742E+03  0.15294330000E+03 0.  0.
    8880022    1    1    2    0    0  0.33356766739E+03 -0.31076666928E+03 -0.27008255992E+04  0.27432998163E+04  0.15294330000E+03 0.  0.
<mgrwt>
<rscale>  0 0.48086897E+03</rscale>
<asrwt>0</asrwt>
<pdfrwt beam="1">  1        2 0.44801352E+00 0.48086897E+03</pdfrwt>
<pdfrwt beam="2">  1       -2 0.50069720E-01 0.48086897E+03</pdfrwt>
<totfact> 0.84129116E+00</totfact>
</mgrwt>
</event>
<event>
 4    1  0.1033139E-008  0.4949531E+03  0.7818608E-02  0.1015105E+00
         -2   -1    0    0    0  501 -0.00000000000E+00  0.00000000000E+00  0.43241943343E+03  0.43241943344E+03  0.25500000000E-02 0.  1.
          2   -1    0    0  501    0  0.00000000000E+00 -0.00000000000E+00 -0.14375206031E+04  0.14375206031E+04  0.25500000000E-02 0. -1.
    8880022    1    1    2    0    0  0.46078090937E+03 -0.96269651971E+02  0.22522486487E+03  0.54378744478E+03  0.15294330000E+03 0.  1.
    8880022    1    1    2    0    0 -0.46078090937E+03  0.96269651971E+02 -0.12303260345E+04  0.13261525918E+04  0.15294330000E+03 0.  0.
<mgrwt>
<rscale>  0 0.49495307E+03</rscale>
<asrwt>0</asrwt>
<pdfrwt beam="1">  1        2 0.22115701E+00 0.49495307E+03</pdfrwt>
<pdfrwt beam="2">  1       -2 0.66526067E-01 0.49495307E+03</pdfrwt>
<totfact> 0.30290827E+01</totfact>
</mgrwt>
</event>
<event>
 4    1  0.1033139E-008  0.3434732E+03  0.7818608E-02  0.1065326E+00
         -2   -1    0    0    0  501 -0.00000000000E+00  0.00000000000E+00  0.48719572715E+03  0.48719572716E+03  0.25500000000E-02 0.  1.
          2   -1    0    0  501    0  0.00000000000E+00 -0.00000000000E+00 -0.75156633796E+03  0.75156633797E+03  0.25500000000E-02 0. -1.
    8880022    1    1    2    0    0 -0.10997498545E+02 -0.30734545433E+03 -0.64211607456E+03  0.72820799192E+03  0.15294330000E+03 0.  0.
    8880022    1    1    2    0    0  0.10997498545E+02  0.30734545433E+03  0.37774546375E+03  0.51055407321E+03  0.15294330000E+03 0.  0.
<mgrwt>
<rscale>  0 0.34347318E+03</rscale>
<asrwt>0</asrwt>
<pdfrwt beam="1">  1        2 0.11562559E+00 0.34347318E+03</pdfrwt>
<pdfrwt beam="2">  1       -2 0.74953189E-01 0.34347318E+03</pdfrwt>
<totfact> 0.63215166E+01</totfact>
</mgrwt>
</event>
<event>
 4    1  0.1033139E-008  0.1154189E+04  0.7818608E-02  0.9153928E-01
          2   -1    0    0  501    0  0.00000000000E+00  0.00000000000E+00  0.85318622014E+03  0.85318622015E+03  0.25500000000E-02 0. -1.
         -2   -1    0    0    0  501 -0.00000000000E+00 -0.00000000000E+00 -0.18924756669E+04  0.18924756669E+04  0.25500000000E-02 0.  1.
    8880022    1    1    2    0    0 -0.10430195091E+04 -0.46996861300E+03 -0.10938611638E+04  0.15901836662E+04  0.15294330000E+03 0.  0.
    8880022    1    1    2    0    0  0.10430195091E+04  0.46996861300E+03  0.54571717041E+02  0.11554782209E+04  0.15294330000E+03 0.  0.
<mgrwt>
<rscale>  0 0.11541888E+04</rscale>
<asrwt>0</asrwt>
<pdfrwt beam="1">  1        2 0.13125942E+00 0.11541888E+04</pdfrwt>
<pdfrwt beam="2">  1       -2 0.29115010E+00 0.11541888E+04</pdfrwt>
<totfact> 0.11187796E+00</totfact>
</mgrwt>
</event>
<event>
 4    1  0.1759693E-008  0.9478221E+03  0.7818608E-02  0.9367700E-01
         -2   -1    0    0    0  501 -0.00000000000E+00  0.00000000000E+00  0.11685821132E+04  0.11685821132E+04  0.25500000000E-02 0.  1.
          2   -1    0    0  501    0  0.00000000000E+00 -0.00000000000E+00 -0.43725406893E+04  0.43725406893E+04  0.25500000000E-02 0. -1.
    8880022    1    1    2    0    0  0.13186424991E+02  0.93530803897E+03 -0.41172205042E+04  0.42249108089E+04  0.15294330000E+03 0.  0.
    8880022    1    1    2    0    0 -0.13186424991E+02 -0.93530803897E+03  0.91326192819E+03  0.13162119936E+04  0.15294330000E+03 0.  0.
<mgrwt>
<rscale>  0 0.94782206E+03</rscale>
<asrwt>0</asrwt>
<pdfrwt beam="1">  1        2 0.67269856E+00 0.94782206E+03</pdfrwt>
<pdfrwt beam="2">  1       -2 0.17978187E+00 0.94782206E+03</pdfrwt>
<totfact> 0.31931393E-02</totfact>
</mgrwt>
</event>
<event>
 4    1  0.1176555E-008  0.1415656E+04  0.7818608E-02  0.8942563E-01
         -2   -1    0    0    0  501 -0.00000000000E+00  0.00000000000E+00  0.15630497739E+04  0.15630497739E+04  0.25500000000E-02 0.  1.
          2   -1    0    0  501    0  0.00000000000E+00 -0.00000000000E+00 -0.28360274872E+04  0.28360274872E+04  0.25500000000E-02 0. -1.
    8880022    1    1    2    0    0  0.12254570042E+04 -0.69205884052E+03 -0.22645967485E+04  0.26706704016E+04  0.15294330000E+03 0.  0.
    8880022    1    1    2    0    0 -0.12254570042E+04  0.69205884052E+03  0.99161903523E+03  0.17284068595E+04  0.15294330000E+03 0.  0.
<mgrwt>
<rscale>  0 0.14156560E+04</rscale>
<asrwt>0</asrwt>
<pdfrwt beam="1">  1        2 0.43631192E+00 0.14156560E+04</pdfrwt>
<pdfrwt beam="2">  1       -2 0.24046920E+00 0.14156560E+04</pdfrwt>
<totfact> 0.15374547E-01</totfact>
</mgrwt>
</event>
<event>
 4    1  0.1033139E-008  0.1028105E+04  0.7818608E-02  0.9278246E-01
          2   -1    0    0  501    0  0.00000000000E+00  0.00000000000E+00  0.29614905222E+04  0.29614905222E+04  0.25500000000E-02 0. -1.
         -2   -1    0    0    0  501 -0.00000000000E+00 -0.00000000000E+00 -0.11716103478E+04  0.11716103478E+04  0.25500000000E-02 0.  1.
    8880022    1    1    2    0    0 -0.84642997863E+03  0.56317320946E+03  0.26182052736E+04  0.28128274530E+04  0.15294330000E+03 0.  0.
    8880022    1    1    2    0    0  0.84642997863E+03 -0.56317320946E+03 -0.82832509919E+03  0.13202734170E+04  0.15294330000E+03 0.  0.
<mgrwt>
<rscale>  0 0.10281048E+04</rscale>
<asrwt>0</asrwt>
<pdfrwt beam="1">  1        2 0.45561393E+00 0.10281048E+04</pdfrwt>
<pdfrwt beam="2">  1       -2 0.18024774E+00 0.10281048E+04</pdfrwt>
<totfact> 0.33593472E-01</totfact>
</mgrwt>
</event>
<event>
 4    1  0.1033139E-008  0.3806501E+03  0.7818608E-02  0.1050694E+00
          2   -1    0    0  501    0  0.00000000000E+00  0.00000000000E+00  0.21923420238E+04  0.21923420238E+04  0.25500000000E-02 0. -1.
         -2   -1    0    0    0  501 -0.00000000000E+00 -0.00000000000E+00 -0.31739079838E+03  0.31739079839E+03  0.25500000000E-02 0.  1.
    8880022    1    1    2    0    0 -0.30191600616E+03 -0.17421120073E+03 -0.17912083998E+03  0.42068841862E+03  0.15294330000E+03 0.  0.
    8880022    1    1    2    0    0  0.30191600616E+03  0.17421120073E+03  0.20540720654E+04  0.20890444035E+04  0.15294330000E+03 0.  0.
<mgrwt>
<rscale>  0 0.38065006E+03</rscale>
<asrwt>0</asrwt>
<pdfrwt beam="1">  1        2 0.33728338E+00 0.38065006E+03</pdfrwt>
<pdfrwt beam="2">  1       -2 0.48829354E-01 0.38065006E+03</pdfrwt>
<totfact> 0.23143745E+01</totfact>
</mgrwt>
</event>
<event>
 4    1  0.1033139E-008  0.1856998E+04  0.7818608E-02  0.8676562E-01
          2   -1    0    0  501    0  0.00000000000E+00  0.00000000000E+00  0.22510829332E+04  0.22510829332E+04  0.25500000000E-02 0. -1.
         -2   -1    0    0    0  501 -0.00000000000E+00 -0.00000000000E+00 -0.19171984106E+04  0.19171984106E+04  0.25500000000E-02 0.  1.
    8880022    1    1    2    0    0  0.15756675344E+04  0.97073275670E+03 -0.76736583392E+03  0.20093014308E+04  0.15294330000E+03 0.  0.
    8880022    1    1    2    0    0 -0.15756675344E+04 -0.97073275670E+03  0.11012503566E+04  0.21589799130E+04  0.15294330000E+03 0.  0.
<mgrwt>
<rscale>  0 0.18569981E+04</rscale>
<asrwt>0</asrwt>
<pdfrwt beam="1">  1        2 0.34632045E+00 0.18569981E+04</pdfrwt>
<pdfrwt beam="2">  1       -2 0.29495360E+00 0.18569981E+04</pdfrwt>
<totfact> 0.14856796E-01</totfact>
</mgrwt>
</event>
<event>
 4    1  0.1033139E-008  0.9400072E+03  0.7818608E-02  0.9376907E-01
         -2   -1    0    0    0  501 -0.00000000000E+00  0.00000000000E+00  0.15376232850E+04  0.15376232850E+04  0.25500000000E-02 0.  1.
          2   -1    0    0  501    0  0.00000000000E+00 -0.00000000000E+00 -0.63663548136E+03  0.63663548136E+03  0.25500000000E-02 0. -1.
    8880022    1    1    2    0    0  0.71326512666E+03 -0.59285307291E+03  0.78968075974E+03  0.12276845125E+04  0.15294330000E+03 0.  0.
    8880022    1    1    2    0    0 -0.71326512666E+03  0.59285307291E+03  0.11130704388E+03  0.94657425382E+03  0.15294330000E+03 0.  0.
<mgrwt>
<rscale>  0 0.94000721E+03</rscale>
<asrwt>0</asrwt>
<pdfrwt beam="1">  1        2 0.97943921E-01 0.94000721E+03</pdfrwt>
<pdfrwt beam="2">  1       -2 0.23655743E+00 0.94000721E+03</pdfrwt>
<totfact> 0.36021386E+00</totfact>
</mgrwt>
</event>
<event>
 4    1  0.1033139E-008  0.1975023E+04  0.7818608E-02  0.8618388E-01
         -2   -1    0    0    0  501 -0.00000000000E+00  0.00000000000E+00  0.27117878293E+04  0.27117878293E+04  0.25500000000E-02 0.  1.
          2   -1    0    0  501    0  0.00000000000E+00 -0.00000000000E+00 -0.18912626869E+04  0.18912626869E+04  0.25500000000E-02 0. -1.
    8880022    1    1    2    0    0 -0.15891735382E+04  0.11626916965E+04  0.15364452502E+04  0.25022750000E+04  0.15294330000E+03 0.  0.
    8880022    1    1    2    0    0  0.15891735382E+04 -0.11626916965E+04 -0.71592010778E+03  0.21007755162E+04  0.15294330000E+03 0.  0.
<mgrwt>
<rscale>  0 0.19750231E+04</rscale>
<asrwt>0</asrwt>
<pdfrwt beam="1">  1        2 0.29096349E+00 0.19750231E+04</pdfrwt>
<pdfrwt beam="2">  1       -2 0.41719813E+00 0.19750231E+04</pdfrwt>
<totfact> 0.39048167E-02</totfact>
</mgrwt>
</event>
<event>
 4    1  0.1033139E-008  0.1051067E+04  0.7818608E-02  0.9254243E-01
         -2   -1    0    0    0  501 -0.00000000000E+00  0.00000000000E+00  0.74677069614E+03  0.74677069614E+03  0.25500000000E-02 0.  1.
          2   -1    0    0  501    0  0.00000000000E+00 -0.00000000000E+00 -0.33014009921E+04  0.33014009921E+04  0.25500000000E-02 0. -1.
    8880022    1    1    2    0    0 -0.21460211934E+03  0.10174954333E+04  0.22637676262E+03  0.10751693439E+04  0.15294330000E+03 0.  0.
    8880022    1    1    2    0    0  0.21460211934E+03 -0.10174954333E+04 -0.27810070586E+04  0.29730023444E+04  0.15294330000E+03 0.  0.
<mgrwt>
<rscale>  0 0.10510674E+04</rscale>
<asrwt>0</asrwt>
<pdfrwt beam="1">  1        2 0.50790784E+00 0.10510674E+04</pdfrwt>
<pdfrwt beam="2">  1       -2 0.11488780E+00 0.10510674E+04</pdfrwt>
<totfact> 0.66834909E-01</totfact>
</mgrwt>
</event>
<event>
 4    1  0.1033139E-008  0.5278990E+03  0.7818608E-02  0.1006743E+00
          2   -1    0    0  501    0  0.00000000000E+00  0.00000000000E+00  0.11921612997E+04  0.11921612997E+04  0.25500000000E-02 0. -1.
         -2   -1    0    0    0  501 -0.00000000000E+00 -0.00000000000E+00 -0.36878521369E+03  0.36878521369E+03  0.25500000000E-02 0.  1.
    8880022    1    1    2    0    0  0.12290939072E+03  0.49008055498E+03  0.88394875841E+03  0.10295837650E+04  0.15294330000E+03 0.  0.
    8880022    1    1    2    0    0 -0.12290939072E+03 -0.49008055498E+03 -0.60572672393E+02  0.53136274837E+03  0.15294330000E+03 0.  0.
<mgrwt>
<rscale>  0 0.52789897E+03</rscale>
<asrwt>0</asrwt>
<pdfrwt beam="1">  1        2 0.18340943E+00 0.52789897E+03</pdfrwt>
<pdfrwt beam="2">  1       -2 0.56736186E-01 0.52789897E+03</pdfrwt>
<totfact> 0.58134908E+01</totfact>
</mgrwt>
</event>
<event>
 4    1  0.1033139E-008  0.5386238E+03  0.7818608E-02  0.1004162E+00
          2   -1    0    0  501    0  0.00000000000E+00  0.00000000000E+00  0.11109981831E+04  0.11109981831E+04  0.25500000000E-02 0. -1.
         -2   -1    0    0    0  501 -0.00000000000E+00 -0.00000000000E+00 -0.12046194175E+04  0.12046194175E+04  0.25500000000E-02 0.  1.
    8880022    1    1    2    0    0 -0.10816978287E+03 -0.50499830535E+03 -0.10714718155E+04  0.11992362131E+04  0.15294330000E+03 0.  0.
    8880022    1    1    2    0    0  0.10816978287E+03  0.50499830535E+03  0.97785058118E+03  0.11163813875E+04  0.15294330000E+03 0. -1.
<mgrwt>
<rscale>  0 0.53862384E+03</rscale>
<asrwt>0</asrwt>
<pdfrwt beam="1">  1        2 0.17092280E+00 0.53862384E+03</pdfrwt>
<pdfrwt beam="2">  1       -2 0.18532606E+00 0.53862384E+03</pdfrwt>
<totfact> 0.37982255E+00</totfact>
</mgrwt>
</event>
<event>
 4    1  0.1033139E-008  0.7221798E+03  0.7818608E-02  0.9680036E-01
          2   -1    0    0  501    0  0.00000000000E+00  0.00000000000E+00  0.12912939120E+04  0.12912939120E+04  0.25500000000E-02 0. -1.
         -2   -1    0    0    0  501 -0.00000000000E+00 -0.00000000000E+00 -0.94476363660E+03  0.94476363660E+03  0.25500000000E-02 0.  1.
    8880022    1    1    2    0    0 -0.68584501722E+03 -0.16663905827E+03 -0.67267259281E+03  0.98693061231E+03  0.15294330000E+03 0.  0.
    8880022    1    1    2    0    0  0.68584501722E+03  0.16663905827E+03  0.10192028682E+04  0.12491269363E+04  0.15294330000E+03 0. -1.
<mgrwt>
<rscale>  0 0.72217977E+03</rscale>
<asrwt>0</asrwt>
<pdfrwt beam="1">  1        2 0.19866060E+00 0.72217977E+03</pdfrwt>
<pdfrwt beam="2">  1       -2 0.14534825E+00 0.72217977E+03</pdfrwt>
<totfact> 0.55911254E+00</totfact>
</mgrwt>
</event>
<event>
 4    1  0.1033139E-008  0.3374562E+03  0.7818608E-02  0.1067885E+00
         -2   -1    0    0    0  501 -0.00000000000E+00  0.00000000000E+00  0.39835535695E+03  0.39835535696E+03  0.25500000000E-02 0.  1.
          2   -1    0    0  501    0  0.00000000000E+00 -0.00000000000E+00 -0.55511827067E+03  0.55511827068E+03  0.25500000000E-02 0. -1.
    8880022    1    1    2    0    0 -0.30029559803E+03  0.17538501464E+02  0.25363890122E+03  0.42214854075E+03  0.15294330000E+03 0.  0.
    8880022    1    1    2    0    0  0.30029559803E+03 -0.17538501464E+02 -0.41040181495E+03  0.53132508689E+03  0.15294330000E+03 0.  0.
<mgrwt>
<rscale>  0 0.33745622E+03</rscale>
<asrwt>0</asrwt>
<pdfrwt beam="1">  1        2 0.85402811E-01 0.33745622E+03</pdfrwt>
<pdfrwt beam="2">  1       -2 0.61285439E-01 0.33745622E+03</pdfrwt>
<totfact> 0.14020350E+02</totfact>
</mgrwt>
</event>
<event>
 4    1  0.1033139E-008  0.2199598E+03  0.7818608E-02  0.1133913E+00
          2   -1    0    0  501    0  0.00000000000E+00  0.00000000000E+00  0.90544819730E+03  0.90544819730E+03  0.25500000000E-02 0. -1.
         -2   -1    0    0    0  501 -0.00000000000E+00 -0.00000000000E+00 -0.11591566433E+04  0.11591566433E+04  0.25500000000E-02 0.  1.
    8880022    1    1    2    0    0  0.11969626836E+03  0.10326407019E+03 -0.11350824523E+04  0.11561982924E+04  0.15294330000E+03 0.  0.
    8880022    1    1    2    0    0 -0.11969626836E+03 -0.10326407019E+03  0.88137400628E+03  0.90840654820E+03  0.15294330000E+03 0. -1.
<mgrwt>
<rscale>  0 0.21995981E+03</rscale>
<asrwt>0</asrwt>
<pdfrwt beam="1">  1        2 0.13929972E+00 0.21995981E+03</pdfrwt>
<pdfrwt beam="2">  1       -2 0.17833179E+00 0.21995981E+03</pdfrwt>
<totfact> 0.62479342E+00</totfact>
</mgrwt>
</event>
<event>
 4    1  0.1033139E-008  0.1074034E+04  0.7818608E-02  0.9230876E-01
         -2   -1    0    0    0  501 -0.00000000000E+00  0.00000000000E+00  0.11497833462E+04  0.11497833462E+04  0.25500000000E-02 0.  1.
          2   -1    0    0  501    0  0.00000000000E+00 -0.00000000000E+00 -0.16705773077E+04  0.16705773077E+04  0.25500000000E-02 0. -1.
    8880022    1    1    2    0    0 -0.10551858456E+04 -0.12938785571E+03  0.63085878001E+03  0.12456054107E+04  0.15294330000E+03 0.  0.
    8880022    1    1    2    0    0  0.10551858456E+04  0.12938785571E+03 -0.11516527416E+04  0.15747552432E+04  0.15294330000E+03 0.  0.
<mgrwt>
<rscale>  0 0.10740345E+04</rscale>
<asrwt>0</asrwt>
<pdfrwt beam="1">  1        2 0.25701189E+00 0.10740345E+04</pdfrwt>
<pdfrwt beam="2">  1       -2 0.17688975E+00 0.10740345E+04</pdfrwt>
<totfact> 0.19112553E+00</totfact>
</mgrwt>
</event>
<event>
 4    1  0.1033139E-008  0.2746094E+03  0.7818608E-02  0.1098670E+00
         -2   -1    0    0    0  501 -0.00000000000E+00  0.00000000000E+00  0.23216698341E+02  0.23216698481E+02  0.25500000000E-02 0.  1.
          2   -1    0    0  501    0  0.00000000000E+00 -0.00000000000E+00 -0.46867867969E+04  0.46867867969E+04  0.25500000000E-02 0. -1.
    8880022    1    1    2    0    0  0.18902513944E+03  0.12762514336E+03 -0.10270100604E+04  0.10630898352E+04  0.15294330000E+03 0.  1.
    8880022    1    1    2    0    0 -0.18902513944E+03 -0.12762514336E+03 -0.36365600382E+04  0.36469136602E+04  0.15294330000E+03 0. -1.
<mgrwt>
<rscale>  0 0.27460942E+03</rscale>
<asrwt>0</asrwt>
<pdfrwt beam="1">  1        2 0.72104337E+00 0.27460942E+03</pdfrwt>
<pdfrwt beam="2">  1       -2 0.35718035E-02 0.27460942E+03</pdfrwt>
<totfact> 0.36454748E+01</totfact>
</mgrwt>
</event>
<event>
 4    1  0.1033139E-008  0.1596371E+04  0.7818608E-02  0.8822781E-01
          2   -1    0    0  501    0  0.00000000000E+00  0.00000000000E+00  0.20095234681E+04  0.20095234681E+04  0.25500000000E-02 0. -1.
         -2   -1    0    0    0  501 -0.00000000000E+00 -0.00000000000E+00 -0.16433698294E+04  0.16433698294E+04  0.25500000000E-02 0.  1.
    8880022    1    1    2    0    0 -0.11422186436E+04  0.11046921700E+04 -0.68964471659E+03  0.17389680010E+04  0.15294330000E+03 0.  0.
    8880022    1    1    2    0    0  0.11422186436E+04 -0.11046921700E+04  0.10557983553E+04  0.19139252965E+04  0.15294330000E+03 0.  0.
<mgrwt>
<rscale>  0 0.15963708E+04</rscale>
<asrwt>0</asrwt>
<pdfrwt beam="1">  1        2 0.30915746E+00 0.15963708E+04</pdfrwt>
<pdfrwt beam="2">  1       -2 0.25282613E+00 0.15963708E+04</pdfrwt>
<totfact> 0.37812595E-01</totfact>
</mgrwt>
</event>
<event>
 4    1  0.1033139E-008  0.6163822E+03  0.7818608E-02  0.9871989E-01
         -2   -1    0    0    0  501 -0.00000000000E+00  0.00000000000E+00  0.32498754084E+03  0.32498754085E+03  0.25500000000E-02 0.  1.
          2   -1    0    0  501    0  0.00000000000E+00 -0.00000000000E+00 -0.15829152372E+04  0.15829152372E+04  0.25500000000E-02 0. -1.
    8880022    1    1    2    0    0  0.42947399929E+03 -0.41483425569E+03 -0.11167464814E+04  0.12755585963E+04  0.15294330000E+03 0.  0.
    8880022    1    1    2    0    0 -0.42947399929E+03  0.41483425569E+03 -0.14118121495E+03  0.63234418178E+03  0.15294330000E+03 0.  0.
<mgrwt>
<rscale>  0 0.61638221E+03</rscale>
<asrwt>0</asrwt>
<pdfrwt beam="1">  1        2 0.24352542E+00 0.61638221E+03</pdfrwt>
<pdfrwt beam="2">  1       -2 0.49998084E-01 0.61638221E+03</pdfrwt>
<totfact> 0.44877288E+01</totfact>
</mgrwt>
</event>
<event>
 4    1  0.1033139E-008  0.1019177E+04  0.7818608E-02  0.9287758E-01
         -2   -1    0    0    0  501 -0.00000000000E+00  0.00000000000E+00  0.10185669068E+04  0.10185669069E+04  0.25500000000E-02 0.  1.
          2   -1    0    0  501    0  0.00000000000E+00 -0.00000000000E+00 -0.17974691181E+04  0.17974691181E+04  0.25500000000E-02 0. -1.
    8880022    1    1    2    0    0 -0.34540501698E+03 -0.94658627576E+03 -0.13155948406E+04  0.16641849780E+04  0.15294330000E+03 0.  0.
    8880022    1    1    2    0    0  0.34540501698E+03  0.94658627576E+03  0.53669262931E+03  0.11518510470E+04  0.15294330000E+03 0.  0.
<mgrwt>
<rscale>  0 0.10191770E+04</rscale>
<asrwt>0</asrwt>
<pdfrwt beam="1">  1        2 0.27653371E+00 0.10191770E+04</pdfrwt>
<pdfrwt beam="2">  1       -2 0.15670260E+00 0.10191770E+04</pdfrwt>
<totfact> 0.22906195E+00</totfact>
</mgrwt>
</event>
<event>
 4    1  0.1033139E-008  0.1509021E+04  0.7818608E-02  0.8878476E-01
         -2   -1    0    0    0  501 -0.00000000000E+00  0.00000000000E+00  0.19712285761E+04  0.19712285761E+04  0.25500000000E-02 0.  1.
          2   -1    0    0  501    0  0.00000000000E+00 -0.00000000000E+00 -0.14219630414E+04  0.14219630414E+04  0.25500000000E-02 0. -1.
    8880022    1    1    2    0    0  0.10307886621E+04  0.10914341144E+04 -0.46022698094E+03  0.15776419806E+04  0.15294330000E+03 0.  0.
    8880022    1    1    2    0    0 -0.10307886621E+04 -0.10914341144E+04  0.10094925156E+04  0.18155496369E+04  0.15294330000E+03 0.  0.
<mgrwt>
<rscale>  0 0.15090213E+04</rscale>
<asrwt>0</asrwt>
<pdfrwt beam="1">  1        2 0.21876354E+00 0.15090213E+04</pdfrwt>
<pdfrwt beam="2">  1       -2 0.30326594E+00 0.15090213E+04</pdfrwt>
<totfact> 0.40146013E-01</totfact>
</mgrwt>
</event>
<event>
 4    1  0.1033139E-008  0.1015921E+04  0.7818608E-02  0.9291253E-01
          2   -1    0    0  501    0  0.00000000000E+00  0.00000000000E+00  0.25433343061E+04  0.25433343061E+04  0.25500000000E-02 0. -1.
         -2   -1    0    0    0  501 -0.00000000000E+00 -0.00000000000E+00 -0.81786257278E+03  0.81786257279E+03  0.25500000000E-02 0.  1.
    8880022    1    1    2    0    0 -0.77850439400E+03  0.63453508368E+03  0.20556335833E+04  0.22929729492E+04  0.15294330000E+03 0.  0.
    8880022    1    1    2    0    0  0.77850439400E+03 -0.63453508368E+03 -0.33016184994E+03  0.10682239297E+04  0.15294330000E+03 0.  0.
<mgrwt>
<rscale>  0 0.10159210E+04</rscale>
<asrwt>0</asrwt>
<pdfrwt beam="1">  1        2 0.39128219E+00 0.10159210E+04</pdfrwt>
<pdfrwt beam="2">  1       -2 0.12582501E+00 0.10159210E+04</pdfrwt>
<totfact> 0.15572590E+00</totfact>
</mgrwt>
</event>
<event>
 4    1  0.1033139E-008  0.9430002E+03  0.7818608E-02  0.9373370E-01
          2   -1    0    0  501    0  0.00000000000E+00  0.00000000000E+00  0.14169728338E+04  0.14169728338E+04  0.25500000000E-02 0. -1.
         -2   -1    0    0    0  501 -0.00000000000E+00 -0.00000000000E+00 -0.70047549511E+03  0.70047549512E+03  0.25500000000E-02 0.  1.
    8880022    1    1    2    0    0 -0.92887534771E+03 -0.55210939655E+02  0.16688535360E+02  0.94314782493E+03  0.15294330000E+03 0.  1.
    8880022    1    1    2    0    0  0.92887534771E+03  0.55210939655E+02  0.69980880331E+03  0.11743005040E+04  0.15294330000E+03 0.  0.
<mgrwt>
<rscale>  0 0.94300017E+03</rscale>
<asrwt>0</asrwt>
<pdfrwt beam="1">  1        2 0.21799582E+00 0.94300017E+03</pdfrwt>
<pdfrwt beam="2">  1       -2 0.10776546E+00 0.94300017E+03</pdfrwt>
<totfact> 0.97722911E+00</totfact>
</mgrwt>
</event>
<event>
 4    1  0.1033139E-008  0.1274284E+04  0.7818608E-02  0.9050210E-01
          2   -1    0    0  501    0  0.00000000000E+00  0.00000000000E+00  0.38867443550E+04  0.38867443550E+04  0.25500000000E-02 0. -1.
         -2   -1    0    0    0  501 -0.00000000000E+00 -0.00000000000E+00 -0.92365785690E+03  0.92365785690E+03  0.25500000000E-02 0.  1.
    8880022    1    1    2    0    0 -0.10196323314E+04  0.74883813920E+03 -0.29845297091E+03  0.13087683060E+04  0.15294330000E+03 0.  0.
    8880022    1    1    2    0    0  0.10196323314E+04 -0.74883813920E+03  0.32615394690E+04  0.35016339059E+04  0.15294330000E+03 0.  0.
<mgrwt>
<rscale>  0 0.12742842E+04</rscale>
<asrwt>0</asrwt>
<pdfrwt beam="1">  1        2 0.59796065E+00 0.12742842E+04</pdfrwt>
<pdfrwt beam="2">  1       -2 0.14210121E+00 0.12742842E+04</pdfrwt>
<totfact> 0.14439783E-01</totfact>
</mgrwt>
</event>
<event>
 4    1  0.1033139E-008  0.7430455E+03  0.7818608E-02  0.9646324E-01
         -2   -1    0    0    0  501 -0.00000000000E+00  0.00000000000E+00  0.37481034398E+03  0.37481034399E+03  0.25500000000E-02 0.  1.
          2   -1    0    0  501    0  0.00000000000E+00 -0.00000000000E+00 -0.18471604769E+04  0.18471604769E+04  0.25500000000E-02 0. -1.
    8880022    1    1    2    0    0 -0.30314126226E+03 -0.66093139927E+03 -0.23619516479E+03  0.77968246634E+03  0.15294330000E+03 0.  0.
    8880022    1    1    2    0    0  0.30314126226E+03  0.66093139927E+03 -0.12361549681E+04  0.14422883545E+04  0.15294330000E+03 0.  0.
<mgrwt>
<rscale>  0 0.74304548E+03</rscale>
<asrwt>0</asrwt>
<pdfrwt beam="1">  1        2 0.28417853E+00 0.74304548E+03</pdfrwt>
<pdfrwt beam="2">  1       -2 0.57663131E-01 0.74304548E+03</pdfrwt>
<totfact> 0.23594148E+01</totfact>
</mgrwt>
</event>
<event>
 4    1  0.1033139E-008  0.4401291E+03  0.7818608E-02  0.1030707E+00
         -2   -1    0    0    0  501 -0.00000000000E+00  0.00000000000E+00  0.11399335648E+04  0.11399335648E+04  0.25500000000E-02 0.  1.
          2   -1    0    0  501    0  0.00000000000E+00 -0.00000000000E+00 -0.22613372730E+03  0.22613372731E+03  0.25500000000E-02 0. -1.
    8880022    1    1    2    0    0  0.28369588584E+03  0.29973096569E+03  0.11639304230E+03  0.45525926761E+03  0.15294330000E+03 0.  0.
    8880022    1    1    2    0    0 -0.28369588584E+03 -0.29973096569E+03  0.79740679516E+03  0.91080802445E+03  0.15294330000E+03 0.  0.
<mgrwt>
<rscale>  0 0.44012914E+03</rscale>
<asrwt>0</asrwt>
<pdfrwt beam="1">  1        2 0.34789804E-01 0.44012914E+03</pdfrwt>
<pdfrwt beam="2">  1       -2 0.17537439E+00 0.44012914E+03</pdfrwt>
<totfact> 0.30625828E+01</totfact>
</mgrwt>
</event>
<event>
 4    1  0.1033139E-008  0.4023298E+03  0.7818608E-02  0.1042976E+00
          2   -1    0    0  501    0  0.00000000000E+00  0.00000000000E+00  0.16466255414E+04  0.16466255414E+04  0.25500000000E-02 0. -1.
         -2   -1    0    0    0  501 -0.00000000000E+00 -0.00000000000E+00 -0.16732166687E+03  0.16732166689E+03  0.25500000000E-02 0.  1.
    8880022    1    1    2    0    0 -0.36568303497E+03 -0.68946029953E+02  0.13221571490E+04  0.13820162144E+04  0.15294330000E+03 0.  0.
    8880022    1    1    2    0    0  0.36568303497E+03  0.68946029953E+02  0.15714672547E+03  0.43193099386E+03  0.15294330000E+03 0.  0.
<mgrwt>
<rscale>  0 0.40232983E+03</rscale>
<asrwt>0</asrwt>
<pdfrwt beam="1">  1        2 0.25332700E+00 0.40232983E+03</pdfrwt>
<pdfrwt beam="2">  1       -2 0.25741796E-01 0.40232983E+03</pdfrwt>
<totfact> 0.15135312E+02</totfact>
</mgrwt>
</event>
<event>
 4    1  0.1033139E-008  0.1604983E+04  0.7818608E-02  0.8817493E-01
         -2   -1    0    0    0  501 -0.00000000000E+00  0.00000000000E+00  0.12515231202E+04  0.12515231202E+04  0.25500000000E-02 0.  1.
          2   -1    0    0  501    0  0.00000000000E+00 -0.00000000000E+00 -0.20789486208E+04  0.20789486208E+04  0.25500000000E-02 0. -1.
    8880022    1    1    2    0    0 -0.24076978375E+03  0.15794326227E+04 -0.24762305146E+03  0.16239723911E+04  0.15294330000E+03 0.  0.
    8880022    1    1    2    0    0  0.24076978375E+03 -0.15794326227E+04 -0.57980244911E+03  0.17064993499E+04  0.15294330000E+03 0.  0.
<mgrwt>
<rscale>  0 0.16049826E+04</rscale>
<asrwt>0</asrwt>
<pdfrwt beam="1">  1        2 0.31983825E+00 0.16049826E+04</pdfrwt>
<pdfrwt beam="2">  1       -2 0.19254202E+00 0.16049826E+04</pdfrwt>
<totfact> 0.83715874E-01</totfact>
</mgrwt>
</event>
<event>
 4    1  0.1033139E-008  0.7360387E+03  0.7818608E-02  0.9657512E-01
          2   -1    0    0  501    0  0.00000000000E+00  0.00000000000E+00  0.20290178194E+04  0.20290178194E+04  0.25500000000E-02 0. -1.
         -2   -1    0    0    0  501 -0.00000000000E+00 -0.00000000000E+00 -0.53479991087E+03  0.53479991088E+03  0.25500000000E-02 0.  1.
    8880022    1    1    2    0    0  0.68351402381E+03 -0.22620762616E+03  0.16542287017E+04  0.18105870765E+04  0.15294330000E+03 0. -1.
    8880022    1    1    2    0    0 -0.68351402381E+03  0.22620762616E+03 -0.16001079320E+03  0.75323065381E+03  0.15294330000E+03 0.  0.
<mgrwt>
<rscale>  0 0.73603870E+03</rscale>
<asrwt>0</asrwt>
<pdfrwt beam="1">  1        2 0.31215658E+00 0.73603870E+03</pdfrwt>
<pdfrwt beam="2">  1       -2 0.82276911E-01 0.73603870E+03</pdfrwt>
<totfact> 0.86734325E+00</totfact>
</mgrwt>
</event>
<event>
 4    1  0.1033139E-008  0.5984140E+03  0.7818608E-02  0.9908702E-01
          2   -1    0    0  501    0  0.00000000000E+00  0.00000000000E+00  0.24426767204E+04  0.24426767204E+04  0.25500000000E-02 0. -1.
         -2   -1    0    0    0  501 -0.00000000000E+00 -0.00000000000E+00 -0.25756282171E+03  0.25756282172E+03  0.25500000000E-02 0.  1.
    8880022    1    1    2    0    0  0.51788524282E+03  0.25788086164E+03  0.19787271159E+04  0.20672349445E+04  0.15294330000E+03 0.  0.
    8880022    1    1    2    0    0 -0.51788524282E+03 -0.25788086164E+03  0.20638678285E+03  0.63300459768E+03  0.15294330000E+03 0.  0.
<mgrwt>
<rscale>  0 0.59841400E+03</rscale>
<asrwt>0</asrwt>
<pdfrwt beam="1">  1        2 0.37579643E+00 0.59841400E+03</pdfrwt>
<pdfrwt beam="2">  1       -2 0.39625048E-01 0.59841400E+03</pdfrwt>
<totfact> 0.24218088E+01</totfact>
</mgrwt>
</event>
<event>
 4    1  0.1033139E-008  0.2085290E+04  0.7818608E-02  0.8567751E-01
          2   -1    0    0  501    0  0.00000000000E+00  0.00000000000E+00  0.21485744304E+04  0.21485744304E+04  0.25500000000E-02 0. -1.
         -2   -1    0    0    0  501 -0.00000000000E+00 -0.00000000000E+00 -0.22825023865E+04  0.22825023865E+04  0.25500000000E-02 0.  1.
    8880022    1    1    2    0    0  0.12638795407E+04 -0.16515601101E+04  0.67882448279E+03  0.21929971779E+04  0.15294330000E+03 0.  0.
    8880022    1    1    2    0    0 -0.12638795407E+04  0.16515601101E+04 -0.81275243899E+03  0.22380796390E+04  0.15294330000E+03 0.  0.
<mgrwt>
<rscale>  0 0.20852899E+04</rscale>
<asrwt>0</asrwt>
<pdfrwt beam="1">  1        2 0.33054991E+00 0.20852899E+04</pdfrwt>
<pdfrwt beam="2">  1       -2 0.35115421E+00 0.20852899E+04</pdfrwt>
<totfact> 0.74281398E-02</totfact>
</mgrwt>
</event>
<event>
 4    1  0.1033139E-008  0.1520653E+04  0.7818608E-02  0.8870834E-01
          2   -1    0    0  501    0  0.00000000000E+00  0.00000000000E+00  0.14831369055E+04  0.14831369055E+04  0.25500000000E-02 0. -1.
         -2   -1    0    0    0  501 -0.00000000000E+00 -0.00000000000E+00 -0.28725771078E+04  0.28725771078E+04  0.25500000000E-02 0.  1.
    8880022    1    1    2    0    0 -0.14434853495E+04  0.45314874641E+03  0.77793754949E+03  0.17080902272E+04  0.15294330000E+03 0.  0.
    8880022    1    1    2    0    0  0.14434853495E+04 -0.45314874641E+03 -0.21673777518E+04  0.26476237861E+04  0.15294330000E+03 0.  0.
<mgrwt>
<rscale>  0 0.15206529E+04</rscale>
<asrwt>0</asrwt>
<pdfrwt beam="1">  1        2 0.22817491E+00 0.15206529E+04</pdfrwt>
<pdfrwt beam="2">  1       -2 0.44193494E+00 0.15206529E+04</pdfrwt>
<totfact> 0.47813524E-02</totfact>
</mgrwt>
</event>
<event>
 4    1  0.1033139E-008  0.7837726E+03  0.7818608E-02  0.9583807E-01
          2   -1    0    0  501    0  0.00000000000E+00  0.00000000000E+00  0.26273437678E+04  0.26273437678E+04  0.25500000000E-02 0. -1.
         -2   -1    0    0    0  501 -0.00000000000E+00 -0.00000000000E+00 -0.32176946487E+03  0.32176946489E+03  0.25500000000E-02 0.  1.
    8880022    1    1    2    0    0  0.86530501763E+02 -0.76381952402E+03  0.38183018042E+03  0.87183354644E+03  0.15294330000E+03 0.  0.
    8880022    1    1    2    0    0 -0.86530501763E+02  0.76381952402E+03  0.19237441225E+04  0.20772796863E+04  0.15294330000E+03 0.  0.
<mgrwt>
<rscale>  0 0.78377257E+03</rscale>
<asrwt>0</asrwt>
<pdfrwt beam="1">  1        2 0.40420675E+00 0.78377257E+03</pdfrwt>
<pdfrwt beam="2">  1       -2 0.49502992E-01 0.78377257E+03</pdfrwt>
<totfact> 0.11844336E+01</totfact>
</mgrwt>
</event>
<event>
 4    1  0.1033139E-008  0.1490108E+04  0.7818608E-02  0.8891058E-01
          2   -1    0    0  501    0  0.00000000000E+00  0.00000000000E+00  0.33695003413E+04  0.33695003413E+04  0.25500000000E-02 0. -1.
         -2   -1    0    0    0  501 -0.00000000000E+00 -0.00000000000E+00 -0.10420324062E+04  0.10420324062E+04  0.25500000000E-02 0.  1.
    8880022    1    1    2    0    0 -0.14643455675E+04  0.22961067639E+03  0.25010995104E+04  0.29113432325E+04  0.15294330000E+03 0.  0.
    8880022    1    1    2    0    0  0.14643455675E+04 -0.22961067639E+03 -0.17363157529E+03  0.15001895149E+04  0.15294330000E+03 0.  0.
<mgrwt>
<rscale>  0 0.14901076E+04</rscale>
<asrwt>0</asrwt>
<pdfrwt beam="1">  1        2 0.51838466E+00 0.14901076E+04</pdfrwt>
<pdfrwt beam="2">  1       -2 0.16031268E+00 0.14901076E+04</pdfrwt>
<totfact> 0.23837661E-01</totfact>
</mgrwt>
</event>
<event>
 4    1  0.1033139E-008  0.7412304E+03  0.7818608E-02  0.9649210E-01
          2   -1    0    0  501    0  0.00000000000E+00  0.00000000000E+00  0.16715227923E+04  0.16715227923E+04  0.25500000000E-02 0. -1.
         -2   -1    0    0    0  501 -0.00000000000E+00 -0.00000000000E+00 -0.44824865306E+03  0.44824865307E+03  0.25500000000E-02 0.  1.
    8880022    1    1    2    0    0  0.35251300167E+03 -0.63384975041E+03  0.64269000582E+02  0.74401147834E+03  0.15294330000E+03 0.  0.
    8880022    1    1    2    0    0 -0.35251300167E+03  0.63384975041E+03  0.11590051386E+04  0.13757599670E+04  0.15294330000E+03 0.  0.
<mgrwt>
<rscale>  0 0.74123045E+03</rscale>
<asrwt>0</asrwt>
<pdfrwt beam="1">  1        2 0.25715735E+00 0.74123045E+03</pdfrwt>
<pdfrwt beam="2">  1       -2 0.68961332E-01 0.74123045E+03</pdfrwt>
<totfact> 0.20089255E+01</totfact>
</mgrwt>
</event>
<event>
 4    1  0.1033139E-008  0.3689454E+03  0.7818608E-02  0.1055097E+00
         -2   -1    0    0    0  501 -0.00000000000E+00  0.00000000000E+00  0.28024413260E+03  0.28024413261E+03  0.25500000000E-02 0.  1.
          2   -1    0    0  501    0  0.00000000000E+00 -0.00000000000E+00 -0.16351377686E+04  0.16351377686E+04  0.25500000000E-02 0. -1.
    8880022    1    1    2    0    0  0.30981611321E+03  0.12939473135E+03 -0.14803937247E+04  0.15256756711E+04  0.15294330000E+03 0.  0.
    8880022    1    1    2    0    0 -0.30981611321E+03 -0.12939473135E+03  0.12550008863E+03  0.38970623009E+03  0.15294330000E+03 0.  0.
<mgrwt>
<rscale>  0 0.36894535E+03</rscale>
<asrwt>0</asrwt>
<pdfrwt beam="1">  1        2 0.25155965E+00 0.36894535E+03</pdfrwt>
<pdfrwt beam="2">  1       -2 0.43114483E-01 0.36894535E+03</pdfrwt>
<totfact> 0.58900065E+01</totfact>
</mgrwt>
</event>
<event>
 4    1  0.1033139E-008  0.1121152E+04  0.7818608E-02  0.9184818E-01
         -2   -1    0    0    0  501 -0.00000000000E+00  0.00000000000E+00  0.74637183018E+03  0.74637183018E+03  0.25500000000E-02 0.  1.
          2   -1    0    0  501    0  0.00000000000E+00 -0.00000000000E+00 -0.34580878328E+04  0.34580878328E+04  0.25500000000E-02 0. -1.
    8880022    1    1    2    0    0  0.89520687307E+03  0.65741469700E+03 -0.28615454585E+04  0.30733407708E+04  0.15294330000E+03 0.  0.
    8880022    1    1    2    0    0 -0.89520687307E+03 -0.65741469700E+03  0.14982945586E+03  0.11311188922E+04  0.15294330000E+03 0.  0.
<mgrwt>
<rscale>  0 0.11211517E+04</rscale>
<asrwt>0</asrwt>
<pdfrwt beam="1">  1        2 0.53201350E+00 0.11211517E+04</pdfrwt>
<pdfrwt beam="2">  1       -2 0.11482644E+00 0.11211517E+04</pdfrwt>
<totfact> 0.51970226E-01</totfact>
</mgrwt>
</event>
<event>
 4    1  0.1033139E-008  0.6089855E+03  0.7818608E-02  0.9886937E-01
         -2   -1    0    0    0  501 -0.00000000000E+00  0.00000000000E+00  0.52426458232E+03  0.52426458232E+03  0.25500000000E-02 0.  1.
          2   -1    0    0  501    0  0.00000000000E+00 -0.00000000000E+00 -0.29135324410E+04  0.29135324410E+04  0.25500000000E-02 0. -1.
    8880022    1    1    2    0    0  0.49168302196E+03  0.32514539375E+03  0.30110693230E+03  0.67935907946E+03  0.15294330000E+03 0.  0.
    8880022    1    1    2    0    0 -0.49168302196E+03 -0.32514539375E+03 -0.26903747910E+04  0.27584379439E+04  0.15294330000E+03 0.  0.
<mgrwt>
<rscale>  0 0.60898553E+03</rscale>
<asrwt>0</asrwt>
<pdfrwt beam="1">  1        2 0.44823575E+00 0.60898553E+03</pdfrwt>
<pdfrwt beam="2">  1       -2 0.80656091E-01 0.60898553E+03</pdfrwt>
<totfact> 0.29376212E+00</totfact>
</mgrwt>
</event>
<event>
 4    1  0.1033139E-008  0.6378317E+03  0.7818608E-02  0.9829884E-01
         -2   -1    0    0    0  501 -0.00000000000E+00  0.00000000000E+00  0.35943564395E+03  0.35943564396E+03  0.25500000000E-02 0.  1.
          2   -1    0    0  501    0  0.00000000000E+00 -0.00000000000E+00 -0.26789745404E+04  0.26789745404E+04  0.25500000000E-02 0. -1.
    8880022    1    1    2    0    0 -0.58708069185E+03  0.19691094266E+03 -0.52694395811E+01  0.63785349265E+03  0.15294330000E+03 0.  0.
    8880022    1    1    2    0    0  0.58708069185E+03 -0.19691094266E+03 -0.23142694568E+04  0.24005566917E+04  0.15294330000E+03 0.  0.
<mgrwt>
<rscale>  0 0.63783173E+03</rscale>
<asrwt>0</asrwt>
<pdfrwt beam="1">  1        2 0.41214992E+00 0.63783173E+03</pdfrwt>
<pdfrwt beam="2">  1       -2 0.55297793E-01 0.63783173E+03</pdfrwt>
<totfact> 0.90465398E+00</totfact>
</mgrwt>
</event>
<event>
 4    1  0.1033139E-008  0.7837075E+03  0.7818608E-02  0.9583904E-01
          2   -1    0    0  501    0  0.00000000000E+00  0.00000000000E+00  0.15795597915E+04  0.15795597915E+04  0.25500000000E-02 0. -1.
         -2   -1    0    0    0  501 -0.00000000000E+00 -0.00000000000E+00 -0.44014322793E+03  0.44014322794E+03  0.25500000000E-02 0.  1.
    8880022    1    1    2    0    0 -0.12136442030E+03  0.75899701304E+03  0.91447796429E+03  0.12043535148E+04  0.15294330000E+03 0.  0.
    8880022    1    1    2    0    0  0.12136442030E+03 -0.75899701304E+03  0.22493859926E+03  0.81534950467E+03  0.15294330000E+03 0.  0.
<mgrwt>
<rscale>  0 0.78370750E+03</rscale>
<asrwt>0</asrwt>
<pdfrwt beam="1">  1        2 0.24300919E+00 0.78370750E+03</pdfrwt>
<pdfrwt beam="2">  1       -2 0.67714344E-01 0.78370750E+03</pdfrwt>
<totfact> 0.23363106E+01</totfact>
</mgrwt>
</event>
<event>
 4    1  0.1033139E-008  0.1005066E+04  0.7818608E-02  0.9303006E-01
         -2   -1    0    0    0  501 -0.00000000000E+00  0.00000000000E+00  0.67114276730E+03  0.67114276731E+03  0.25500000000E-02 0.  1.
          2   -1    0    0  501    0  0.00000000000E+00 -0.00000000000E+00 -0.32008009941E+04  0.32008009941E+04  0.25500000000E-02 0. -1.
    8880022    1    1    2    0    0  0.37665350127E+03  0.91918371366E+03  0.14426595298E+03  0.10153673609E+04  0.15294330000E+03 0.  0.
    8880022    1    1    2    0    0 -0.37665350127E+03 -0.91918371366E+03 -0.26739241797E+04  0.28565764004E+04  0.15294330000E+03 0.  0.
<mgrwt>
<rscale>  0 0.10050663E+04</rscale>
<asrwt>0</asrwt>
<pdfrwt beam="1">  1        2 0.49243091E+00 0.10050663E+04</pdfrwt>
<pdfrwt beam="2">  1       -2 0.10325274E+00 0.10050663E+04</pdfrwt>
<totfact> 0.10146154E+00</totfact>
</mgrwt>
</event>
<event>
 4    1  0.1033139E-008  0.7618576E+03  0.7818608E-02  0.9616929E-01
         -2   -1    0    0    0  501 -0.00000000000E+00  0.00000000000E+00  0.96872999491E+03  0.96872999492E+03  0.25500000000E-02 0.  1.
          2   -1    0    0  501    0  0.00000000000E+00 -0.00000000000E+00 -0.19226515099E+04  0.19226515099E+04  0.25500000000E-02 0. -1.
    8880022    1    1    2    0    0  0.25510627245E+03 -0.70139582355E+03  0.72249777649E+03  0.10499666669E+04  0.15294330000E+03 0.  0.
    8880022    1    1    2    0    0 -0.25510627245E+03  0.70139582355E+03 -0.16764192915E+04  0.18414148379E+04  0.15294330000E+03 0.  0.
<mgrwt>
<rscale>  0 0.76185757E+03</rscale>
<asrwt>0</asrwt>
<pdfrwt beam="1">  1        2 0.29579254E+00 0.76185757E+03</pdfrwt>
<pdfrwt beam="2">  1       -2 0.14903538E+00 0.76185757E+03</pdfrwt>
<totfact> 0.23242491E+00</totfact>
</mgrwt>
</event>
<event>
 4    1  0.1033139E-008  0.1090847E+04  0.7818608E-02  0.9214159E-01
         -2   -1    0    0    0  501 -0.00000000000E+00  0.00000000000E+00  0.10995517410E+04  0.10995517410E+04  0.25500000000E-02 0.  1.
          2   -1    0    0  501    0  0.00000000000E+00 -0.00000000000E+00 -0.21583590009E+04  0.21583590009E+04  0.25500000000E-02 0. -1.
    8880022    1    1    2    0    0 -0.30918929897E+03  0.10348710066E+04 -0.16796297356E+04  0.20027740074E+04  0.15294330000E+03 0.  0.
    8880022    1    1    2    0    0  0.30918929897E+03 -0.10348710066E+04  0.62082247570E+03  0.12551367345E+04  0.15294330000E+03 0.  0.
<mgrwt>
<rscale>  0 0.10908472E+04</rscale>
<asrwt>0</asrwt>
<pdfrwt beam="1">  1        2 0.33205523E+00 0.10908472E+04</pdfrwt>
<pdfrwt beam="2">  1       -2 0.16916181E+00 0.10908472E+04</pdfrwt>
<totfact> 0.11623236E+00</totfact>
</mgrwt>
</event>
<event>
 4    1  0.1033139E-008  0.8269421E+03  0.7818608E-02  0.9521818E-01
          2   -1    0    0  501    0  0.00000000000E+00  0.00000000000E+00  0.20761955017E+04  0.20761955017E+04  0.25500000000E-02 0. -1.
         -2   -1    0    0    0  501 -0.00000000000E+00 -0.00000000000E+00 -0.86490580997E+03  0.86490580998E+03  0.25500000000E-02 0.  1.
    8880022    1    1    2    0    0 -0.57300118719E+03  0.57629093392E+03 -0.55150733039E+03  0.99397866654E+03  0.15294330000E+03 0.  0.
    8880022    1    1    2    0    0  0.57300118719E+03 -0.57629093392E+03  0.17627970221E+04  0.19471226452E+04  0.15294330000E+03 0.  0.
<mgrwt>
<rscale>  0 0.82694211E+03</rscale>
<asrwt>0</asrwt>
<pdfrwt beam="1">  1        2 0.31941469E+00 0.82694211E+03</pdfrwt>
<pdfrwt beam="2">  1       -2 0.13306243E+00 0.82694211E+03</pdfrwt>
<totfact> 0.25427740E+00</totfact>
</mgrwt>
</event>
<event>
 4    1  0.1033139E-008  0.6938962E+03  0.7818608E-02  0.9727728E-01
         -2   -1    0    0    0  501 -0.00000000000E+00  0.00000000000E+00  0.49693322942E+03  0.49693322942E+03  0.25500000000E-02 0.  1.
          2   -1    0    0  501    0  0.00000000000E+00 -0.00000000000E+00 -0.30325119276E+04  0.30325119276E+04  0.25500000000E-02 0. -1.
    8880022    1    1    2    0    0 -0.57840235219E+03  0.35149828510E+03  0.18795920166E+03  0.71890238555E+03  0.15294330000E+03 0.  0.
    8880022    1    1    2    0    0  0.57840235219E+03 -0.35149828510E+03 -0.27235378998E+04  0.28105427715E+04  0.15294330000E+03 0.  0.
<mgrwt>
<rscale>  0 0.69389623E+03</rscale>
<asrwt>0</asrwt>
<pdfrwt beam="1">  1        2 0.46654029E+00 0.69389623E+03</pdfrwt>
<pdfrwt beam="2">  1       -2 0.76451268E-01 0.69389623E+03</pdfrwt>
<totfact> 0.27483872E+00</totfact>
</mgrwt>
</event>
<event>
 4    1  0.1033139E-008  0.7157448E+03  0.7818608E-02  0.9690679E-01
          2   -1    0    0  501    0  0.00000000000E+00  0.00000000000E+00  0.37476140309E+04  0.37476140309E+04  0.25500000000E-02 0. -1.
         -2   -1    0    0    0  501 -0.00000000000E+00 -0.00000000000E+00 -0.16823013809E+03  0.16823013811E+03  0.25500000000E-02 0.  1.
    8880022    1    1    2    0    0  0.67021487250E+03 -0.19927610255E+03  0.94203213843E+03  0.11830955765E+04  0.15294330000E+03 0.  0.
    8880022    1    1    2    0    0 -0.67021487250E+03  0.19927610255E+03  0.26373517544E+04  0.27327485925E+04  0.15294330000E+03 0.  0.
<mgrwt>
<rscale>  0 0.71574478E+03</rscale>
<asrwt>0</asrwt>
<pdfrwt beam="1">  1        2 0.57655598E+00 0.71574478E+03</pdfrwt>
<pdfrwt beam="2">  1       -2 0.25881561E-01 0.71574478E+03</pdfrwt>
<totfact> 0.79539947E+00</totfact>
</mgrwt>
</event>
<event>
 4    1  0.1033139E-008  0.9244847E+03  0.7818608E-02  0.9395481E-01
          2   -1    0    0  501    0  0.00000000000E+00  0.00000000000E+00  0.20269170776E+04  0.20269170776E+04  0.25500000000E-02 0. -1.
         -2   -1    0    0    0  501 -0.00000000000E+00 -0.00000000000E+00 -0.44566517412E+03  0.44566517413E+03  0.25500000000E-02 0.  1.
    8880022    1    1    2    0    0 -0.62325296227E+02 -0.90961307611E+03  0.50370711304E+03  0.10528024029E+04  0.15294330000E+03 0.  0.
    8880022    1    1    2    0    0  0.62325296227E+02  0.90961307611E+03  0.10775447905E+04  0.14197798489E+04  0.15294330000E+03 0.  0.
<mgrwt>
<rscale>  0 0.92448475E+03</rscale>
<asrwt>0</asrwt>
<pdfrwt beam="1">  1        2 0.31183340E+00 0.92448475E+03</pdfrwt>
<pdfrwt beam="2">  1       -2 0.68563872E-01 0.92448475E+03</pdfrwt>
<totfact> 0.12705371E+01</totfact>
</mgrwt>
</event>
<event>
 4    1  0.1033139E-008  0.1960650E+04  0.7818608E-02  0.8625242E-01
         -2   -1    0    0    0  501 -0.00000000000E+00  0.00000000000E+00  0.21326983434E+04  0.21326983434E+04  0.25500000000E-02 0.  1.
          2   -1    0    0  501    0  0.00000000000E+00 -0.00000000000E+00 -0.25845513621E+04  0.25845513621E+04  0.25500000000E-02 0. -1.
    8880022    1    1    2    0    0 -0.12736754324E+04 -0.14827372004E+04  0.10715183939E+04  0.22343459969E+04  0.15294330000E+03 0.  0.
    8880022    1    1    2    0    0  0.12736754324E+04  0.14827372004E+04 -0.15233714126E+04  0.24829037086E+04  0.15294330000E+03 0.  0.
<mgrwt>
<rscale>  0 0.19606505E+04</rscale>
<asrwt>0</asrwt>
<pdfrwt beam="1">  1        2 0.39762328E+00 0.19606505E+04</pdfrwt>
<pdfrwt beam="2">  1       -2 0.32810744E+00 0.19606505E+04</pdfrwt>
<totfact> 0.58874394E-02</totfact>
</mgrwt>
</event>
<event>
 4    1  0.1033139E-008  0.9084199E+03  0.7818608E-02  0.9415117E-01
         -2   -1    0    0    0  501 -0.00000000000E+00  0.00000000000E+00  0.92310790392E+03  0.92310790392E+03  0.25500000000E-02 0.  1.
          2   -1    0    0  501    0  0.00000000000E+00 -0.00000000000E+00 -0.18309681809E+04  0.18309681809E+04  0.25500000000E-02 0. -1.
    8880022    1    1    2    0    0 -0.39409962707E+03  0.80406505130E+03  0.53115987681E+03  0.10523105960E+04  0.15294330000E+03 0.  0.
    8880022    1    1    2    0    0  0.39409962707E+03 -0.80406505130E+03 -0.14390201538E+04  0.17017654888E+04  0.15294330000E+03 0.  0.
<mgrwt>
<rscale>  0 0.90841993E+03</rscale>
<asrwt>0</asrwt>
<pdfrwt beam="1">  1        2 0.28168741E+00 0.90841993E+03</pdfrwt>
<pdfrwt beam="2">  1       -2 0.14201660E+00 0.90841993E+03</pdfrwt>
<totfact> 0.28932429E+00</totfact>
</mgrwt>
</event>
<event>
 4    1  0.1033139E-008  0.5888570E+03  0.7818608E-02  0.9928798E-01
          2   -1    0    0  501    0  0.00000000000E+00  0.00000000000E+00  0.15477941584E+04  0.15477941584E+04  0.25500000000E-02 0. -1.
         -2   -1    0    0    0  501 -0.00000000000E+00 -0.00000000000E+00 -0.69114347254E+03  0.69114347254E+03  0.25500000000E-02 0.  1.
    8880022    1    1    2    0    0  0.56400161430E+03 -0.72546790461E+02 -0.49199502956E+03  0.76734061529E+03  0.15294330000E+03 0.  0.
    8880022    1    1    2    0    0 -0.56400161430E+03  0.72546790461E+02  0.13486457155E+04  0.14715970157E+04  0.15294330000E+03 0.  0.
<mgrwt>
<rscale>  0 0.58885695E+03</rscale>
<asrwt>0</asrwt>
<pdfrwt beam="1">  1        2 0.23812218E+00 0.58885695E+03</pdfrwt>
<pdfrwt beam="2">  1       -2 0.10632977E+00 0.58885695E+03</pdfrwt>
<totfact> 0.89525678E+00</totfact>
</mgrwt>
</event>
<event>
 4    1  0.1738631E-008  0.1503645E+04  0.7818608E-02  0.8882033E-01
         -2   -1    0    0    0  501 -0.00000000000E+00  0.00000000000E+00  0.20537061700E+04  0.20537061700E+04  0.25500000000E-02 0.  1.
          2   -1    0    0  501    0  0.00000000000E+00 -0.00000000000E+00 -0.23339917074E+04  0.23339917074E+04  0.25500000000E-02 0. -1.
    8880022    1    1    2    0    0  0.55914290805E+03 -0.13874131395E+04 -0.17347466670E+04  0.22957120166E+04  0.15294330000E+03 0.  0.
    8880022    1    1    2    0    0 -0.55914290805E+03  0.13874131395E+04  0.14544611296E+04  0.20919858608E+04  0.15294330000E+03 0.  0.
<mgrwt>
<rscale>  0 0.15036448E+04</rscale>
<asrwt>0</asrwt>
<pdfrwt beam="1">  1        2 0.35907565E+00 0.15036448E+04</pdfrwt>
<pdfrwt beam="2">  1       -2 0.31595480E+00 0.15036448E+04</pdfrwt>
<totfact> 0.10313019E-01</totfact>
</mgrwt>
</event>
<event>
 4    1  0.1033139E-008  0.7224550E+03  0.7818608E-02  0.9679583E-01
          2   -1    0    0  501    0  0.00000000000E+00  0.00000000000E+00  0.11062475825E+04  0.11062475825E+04  0.25500000000E-02 0. -1.
         -2   -1    0    0    0  501 -0.00000000000E+00 -0.00000000000E+00 -0.77734882559E+03  0.77734882559E+03  0.25500000000E-02 0.  1.
    8880022    1    1    2    0    0  0.58491654670E+03  0.39550248247E+03 -0.42599833010E+03  0.83869887952E+03  0.15294330000E+03 0.  0.
    8880022    1    1    2    0    0 -0.58491654670E+03 -0.39550248247E+03  0.75489708702E+03  0.10448975286E+04  0.15294330000E+03 0.  0.
<mgrwt>
<rscale>  0 0.72245500E+03</rscale>
<asrwt>0</asrwt>
<pdfrwt beam="1">  1        2 0.17019194E+00 0.72245500E+03</pdfrwt>
<pdfrwt beam="2">  1       -2 0.11959213E+00 0.72245500E+03</pdfrwt>
<totfact> 0.11815458E+01</totfact>
</mgrwt>
</event>
<event>
 4    1  0.1033139E-008  0.2308386E+03  0.7818608E-02  0.1126051E+00
          2   -1    0    0  501    0  0.00000000000E+00  0.00000000000E+00  0.14830071368E+04  0.14830071368E+04  0.25500000000E-02 0. -1.
         -2   -1    0    0    0  501 -0.00000000000E+00 -0.00000000000E+00 -0.62638446445E+03  0.62638446446E+03  0.25500000000E-02 0.  1.
    8880022    1    1    2    0    0 -0.16514522903E+03  0.51204187953E+02  0.14523100986E+04  0.14705410879E+04  0.15294330000E+03 0.  0.
    8880022    1    1    2    0    0  0.16514522903E+03 -0.51204187953E+02 -0.59568742631E+03  0.63885051335E+03  0.15294330000E+03 0.  1.
<mgrwt>
<rscale>  0 0.23083862E+03</rscale>
<asrwt>0</asrwt>
<pdfrwt beam="1">  1        2 0.22815495E+00 0.23083862E+03</pdfrwt>
<pdfrwt beam="2">  1       -2 0.96366840E-01 0.23083862E+03</pdfrwt>
<totfact> 0.13489936E+01</totfact>
</mgrwt>
</event>
<event>
 4    1  0.1033139E-008  0.1372790E+04  0.7818608E-02  0.8973753E-01
         -2   -1    0    0    0  501 -0.00000000000E+00  0.00000000000E+00  0.14594940795E+04  0.14594940795E+04  0.25500000000E-02 0.  1.
          2   -1    0    0  501    0  0.00000000000E+00 -0.00000000000E+00 -0.18629338492E+04  0.18629338492E+04  0.25500000000E-02 0. -1.
    8880022    1    1    2    0    0  0.62718087002E+03  0.12115301769E+04 -0.11219781509E+04  0.17729601906E+04  0.15294330000E+03 0.  0.
    8880022    1    1    2    0    0 -0.62718087002E+03 -0.12115301769E+04  0.71853838114E+03  0.15494677381E+04  0.15294330000E+03 0.  0.
<mgrwt>
<rscale>  0 0.13727902E+04</rscale>
<asrwt>0</asrwt>
<pdfrwt beam="1">  1        2 0.28660521E+00 0.13727902E+04</pdfrwt>
<pdfrwt beam="2">  1       -2 0.22453755E+00 0.13727902E+04</pdfrwt>
<totfact> 0.70080973E-01</totfact>
</mgrwt>
</event>
<event>
 4    1  0.1033139E-008  0.3632904E+03  0.7818608E-02  0.1057289E+00
          2   -1    0    0  501    0  0.00000000000E+00  0.00000000000E+00  0.68673177980E+03  0.68673177980E+03  0.25500000000E-02 0. -1.
         -2   -1    0    0    0  501 -0.00000000000E+00 -0.00000000000E+00 -0.61590803643E+03  0.61590803644E+03  0.25500000000E-02 0.  1.
    8880022    1    1    2    0    0 -0.33534316593E+02  0.32781660686E+03  0.57563996987E+03  0.68069178491E+03  0.15294330000E+03 0.  0.
    8880022    1    1    2    0    0  0.33534316593E+02 -0.32781660686E+03 -0.50481622650E+03  0.62194803133E+03  0.15294330000E+03 0.  0.
<mgrwt>
<rscale>  0 0.36329042E+03</rscale>
<asrwt>0</asrwt>
<pdfrwt beam="1">  1        2 0.10565104E+00 0.36329042E+03</pdfrwt>
<pdfrwt beam="2">  1       -2 0.94755083E-01 0.36329042E+03</pdfrwt>
<totfact> 0.41608744E+01</totfact>
</mgrwt>
</event>
<event>
 4    1  0.1033139E-008  0.1652554E+03  0.7818608E-02  0.1182888E+00
          2   -1    0    0  501    0  0.00000000000E+00  0.00000000000E+00  0.17120738485E+04  0.17120738485E+04  0.25500000000E-02 0. -1.
         -2   -1    0    0    0  501 -0.00000000000E+00 -0.00000000000E+00 -0.19027558318E+02  0.19027558489E+02  0.25500000000E-02 0.  1.
    8880022    1    1    2    0    0  0.47899642483E+02 -0.40290555203E+02  0.49848185070E+03  0.52516046412E+03  0.15294330000E+03 0.  1.
    8880022    1    1    2    0    0 -0.47899642483E+02  0.40290555203E+02  0.11945644395E+04  0.12059409429E+04  0.15294330000E+03 0. -1.
<mgrwt>
<rscale>  0 0.16525543E+03</rscale>
<asrwt>0</asrwt>
<pdfrwt beam="1">  1        2 0.26339601E+00 0.16525543E+03</pdfrwt>
<pdfrwt beam="2">  1       -2 0.29273163E-02 0.16525543E+03</pdfrwt>
<totfact> 0.45973630E+03</totfact>
</mgrwt>
</event>
<event>
 4    1  0.1033139E-008  0.4740202E+03  0.7818608E-02  0.1020792E+00
          2   -1    0    0  501    0  0.00000000000E+00  0.00000000000E+00  0.33502926309E+04  0.33502926309E+04  0.25500000000E-02 0. -1.
         -2   -1    0    0    0  501 -0.00000000000E+00 -0.00000000000E+00 -0.87905267646E+03  0.87905267647E+03  0.25500000000E-02 0.  1.
    8880022    1    1    2    0    0  0.13241344180E+03  0.42868421173E+03 -0.79678289130E+03  0.92712356341E+03  0.15294330000E+03 0.  0.
    8880022    1    1    2    0    0 -0.13241344180E+03 -0.42868421173E+03  0.32680228457E+04  0.33022217439E+04  0.15294330000E+03 0. -1.
<mgrwt>
<rscale>  0 0.47402017E+03</rscale>
<asrwt>0</asrwt>
<pdfrwt beam="1">  1        2 0.51542964E+00 0.47402017E+03</pdfrwt>
<pdfrwt beam="2">  1       -2 0.13523887E+00 0.47402017E+03</pdfrwt>
<totfact> 0.47869292E-01</totfact>
</mgrwt>
</event>
<event>
 4    1  0.1033139E-008  0.8075576E+03  0.7818608E-02  0.9549142E-01
         -2   -1    0    0    0  501 -0.00000000000E+00  0.00000000000E+00  0.10685227414E+04  0.10685227414E+04  0.25500000000E-02 0.  1.
          2   -1    0    0  501    0  0.00000000000E+00 -0.00000000000E+00 -0.26880100791E+04  0.26880100791E+04  0.25500000000E-02 0. -1.
    8880022    1    1    2    0    0  0.65534940648E+03 -0.44640212539E+03 -0.24610638619E+04  0.25901707835E+04  0.15294330000E+03 0.  0.
    8880022    1    1    2    0    0 -0.65534940648E+03  0.44640212539E+03  0.84157652424E+03  0.11663620370E+04  0.15294330000E+03 0.  0.
<mgrwt>
<rscale>  0 0.80755765E+03</rscale>
<asrwt>0</asrwt>
<pdfrwt beam="1">  1        2 0.41354001E+00 0.80755765E+03</pdfrwt>
<pdfrwt beam="2">  1       -2 0.16438811E+00 0.80755765E+03</pdfrwt>
<totfact> 0.66084665E-01</totfact>
</mgrwt>
</event>
<event>
 4    1  0.1033139E-008  0.9921157E+03  0.7818608E-02  0.9317235E-01
         -2   -1    0    0    0  501 -0.00000000000E+00  0.00000000000E+00  0.51551961570E+03  0.51551961571E+03  0.25500000000E-02 0.  1.
          2   -1    0    0  501    0  0.00000000000E+00 -0.00000000000E+00 -0.30704618579E+04  0.30704618579E+04  0.25500000000E-02 0. -1.
    8880022    1    1    2    0    0 -0.97910436604E+03 -0.47503848653E+02 -0.17487055612E+03  0.10074092215E+04  0.15294330000E+03 0.  0.
    8880022    1    1    2    0    0  0.97910436604E+03  0.47503848653E+02 -0.23800716860E+04  0.25785722520E+04  0.15294330000E+03 0.  0.
<mgrwt>
<rscale>  0 0.99211573E+03</rscale>
<asrwt>0</asrwt>
<pdfrwt beam="1">  1        2 0.47237873E+00 0.99211573E+03</pdfrwt>
<pdfrwt beam="2">  1       -2 0.79310712E-01 0.99211573E+03</pdfrwt>
<totfact> 0.22689634E+00</totfact>
</mgrwt>
</event>
<event>
 4    1  0.1033139E-008  0.1886015E+03  0.7818608E-02  0.1159729E+00
          2   -1    0    0  501    0  0.00000000000E+00  0.00000000000E+00  0.17469401310E+04  0.17469401310E+04  0.25500000000E-02 0. -1.
         -2   -1    0    0    0  501 -0.00000000000E+00 -0.00000000000E+00 -0.11183534390E+03  0.11183534393E+03  0.25500000000E-02 0.  1.
    8880022    1    1    2    0    0 -0.10485087681E+03 -0.34426402554E+02 -0.22982160075E+02  0.18999662170E+03  0.15294330000E+03 0.  1.
    8880022    1    1    2    0    0  0.10485087681E+03  0.34426402554E+02  0.16580869472E+04  0.16687788532E+04  0.15294330000E+03 0.  0.
<mgrwt>
<rscale>  0 0.18860153E+03</rscale>
<asrwt>0</asrwt>
<pdfrwt beam="1">  1        2 0.26876000E+00 0.18860153E+03</pdfrwt>
<pdfrwt beam="2">  1       -2 0.17205439E-01 0.18860153E+03</pdfrwt>
<totfact> 0.28138465E+02</totfact>
</mgrwt>
</event>
<event>
 4    1  0.1033139E-008  0.2187236E+04  0.7818608E-02  0.8523759E-01
          2   -1    0    0  501    0  0.00000000000E+00  0.00000000000E+00  0.49125798157E+04  0.49125798157E+04  0.25500000000E-02 0. -1.
         -2   -1    0    0    0  501 -0.00000000000E+00 -0.00000000000E+00 -0.14840843411E+04  0.14840843411E+04  0.25500000000E-02 0.  1.
    8880022    1    1    2    0    0  0.21108507572E+04  0.55219562556E+03 -0.16113069841E+03  0.21931633964E+04  0.15294330000E+03 0.  0.
    8880022    1    1    2    0    0 -0.21108507572E+04 -0.55219562556E+03  0.35896261730E+04  0.42035007604E+04  0.15294330000E+03 0.  0.
<mgrwt>
<rscale>  0 0.21872363E+04</rscale>
<asrwt>0</asrwt>
<pdfrwt beam="1">  1        2 0.75578150E+00 0.21872363E+04</pdfrwt>
<pdfrwt beam="2">  1       -2 0.22832067E+00 0.21872363E+04</pdfrwt>
<totfact> 0.33893196E-03</totfact>
</mgrwt>
</event>
<event>
 4    1  0.1033139E-008  0.8333685E+03  0.7818608E-02  0.9512935E-01
          2   -1    0    0  501    0  0.00000000000E+00  0.00000000000E+00  0.11849417773E+04  0.11849417773E+04  0.25500000000E-02 0. -1.
         -2   -1    0    0    0  501 -0.00000000000E+00 -0.00000000000E+00 -0.23770180789E+04  0.23770180789E+04  0.25500000000E-02 0.  1.
    8880022    1    1    2    0    0 -0.26995942099E+03 -0.77345546115E+03  0.94985598903E+03  0.12636176211E+04  0.15294330000E+03 0.  0.
    8880022    1    1    2    0    0  0.26995942099E+03  0.77345546115E+03 -0.21419322906E+04  0.22983422352E+04  0.15294330000E+03 0.  0.
<mgrwt>
<rscale>  0 0.83336852E+03</rscale>
<asrwt>0</asrwt>
<pdfrwt beam="1">  1        2 0.18229874E+00 0.83336852E+03</pdfrwt>
<pdfrwt beam="2">  1       -2 0.36569509E+00 0.83336852E+03</pdfrwt>
<totfact> 0.25019628E-01</totfact>
</mgrwt>
</event>
<event>
 4    1  0.1033139E-008  0.1088488E+04  0.7818608E-02  0.9216486E-01
         -2   -1    0    0    0  501 -0.00000000000E+00  0.00000000000E+00  0.34758551210E+04  0.34758551210E+04  0.25500000000E-02 0.  1.
          2   -1    0    0  501    0  0.00000000000E+00 -0.00000000000E+00 -0.11791146899E+04  0.11791146899E+04  0.25500000000E-02 0. -1.
    8880022    1    1    2    0    0  0.98303810233E+03  0.44164423787E+03  0.31108037857E+04  0.32957404918E+04  0.15294330000E+03 0.  0.
    8880022    1    1    2    0    0 -0.98303810233E+03 -0.44164423787E+03 -0.81406335462E+03  0.13592293191E+04  0.15294330000E+03 0.  0.
<mgrwt>
<rscale>  0 0.10884876E+04</rscale>
<asrwt>0</asrwt>
<pdfrwt beam="1">  1        2 0.18140226E+00 0.10884876E+04</pdfrwt>
<pdfrwt beam="2">  1       -2 0.53474694E+00 0.10884876E+04</pdfrwt>
<totfact> 0.19736304E-02</totfact>
</mgrwt>
</event>
<event>
 4    1  0.1033139E-008  0.7659385E+03  0.7818608E-02  0.9610672E-01
         -2   -1    0    0    0  501 -0.00000000000E+00  0.00000000000E+00  0.11311361950E+04  0.11311361950E+04  0.25500000000E-02 0.  1.
          2   -1    0    0  501    0  0.00000000000E+00 -0.00000000000E+00 -0.22120428819E+04  0.22120428819E+04  0.25500000000E-02 0. -1.
    8880022    1    1    2    0    0  0.34065749639E+03  0.66874704285E+03  0.92210084184E+03  0.11987208819E+04  0.15294330000E+03 0.  0.
    8880022    1    1    2    0    0 -0.34065749639E+03 -0.66874704285E+03 -0.20030075287E+04  0.21444581950E+04  0.15294330000E+03 0.  0.
<mgrwt>
<rscale>  0 0.76593850E+03</rscale>
<asrwt>0</asrwt>
<pdfrwt beam="1">  1        2 0.34031429E+00 0.76593850E+03</pdfrwt>
<pdfrwt beam="2">  1       -2 0.17402095E+00 0.76593850E+03</pdfrwt>
<totfact> 0.10580621E+00</totfact>
</mgrwt>
</event>
<event>
 4    1  0.1033139E-008  0.4840869E+03  0.7818608E-02  0.1018018E+00
          2   -1    0    0  501    0  0.00000000000E+00  0.00000000000E+00  0.16452221772E+04  0.16452221772E+04  0.25500000000E-02 0. -1.
         -2   -1    0    0    0  501 -0.00000000000E+00 -0.00000000000E+00 -0.66364120146E+03  0.66364120147E+03  0.25500000000E-02 0.  1.
    8880022    1    1    2    0    0 -0.45651059707E+03  0.50463570904E+02 -0.53228013597E+03  0.71948752136E+03  0.15294330000E+03 0.  0.
    8880022    1    1    2    0    0  0.45651059707E+03 -0.50463570904E+02  0.15138611117E+04  0.15893758573E+04  0.15294330000E+03 0.  0.
<mgrwt>
<rscale>  0 0.48408692E+03</rscale>
<asrwt>0</asrwt>
<pdfrwt beam="1">  1        2 0.25311110E+00 0.48408692E+03</pdfrwt>
<pdfrwt beam="2">  1       -2 0.10209865E+00 0.48408692E+03</pdfrwt>
<totfact> 0.89142509E+00</totfact>
</mgrwt>
</event>
<event>
 4    1  0.1033139E-008  0.3154599E+03  0.7818608E-02  0.1077758E+00
         -2   -1    0    0    0  501 -0.00000000000E+00  0.00000000000E+00  0.42211804448E+04  0.42211804448E+04  0.25500000000E-02 0.  1.
          2   -1    0    0  501    0  0.00000000000E+00 -0.00000000000E+00 -0.38202441081E+03  0.38202441082E+03  0.25500000000E-02 0. -1.
    8880022    1    1    2    0    0 -0.25737073663E+03 -0.99416419262E+02 -0.30987637617E+03  0.44219717550E+03  0.15294330000E+03 0.  0.
    8880022    1    1    2    0    0  0.25737073663E+03  0.99416419262E+02  0.41490324101E+04  0.41610076801E+04  0.15294330000E+03 0.  0.
<mgrwt>
<rscale>  0 0.31545994E+03</rscale>
<asrwt>0</asrwt>
<pdfrwt beam="1">  1        2 0.58772986E-01 0.31545994E+03</pdfrwt>
<pdfrwt beam="2">  1       -2 0.64941238E+00 0.31545994E+03</pdfrwt>
<totfact> 0.33000350E-02</totfact>
</mgrwt>
</event>
<event>
 4    1  0.1033139E-008  0.9025751E+03  0.7818608E-02  0.9422368E-01
          2   -1    0    0  501    0  0.00000000000E+00  0.00000000000E+00  0.23925668964E+04  0.23925668964E+04  0.25500000000E-02 0. -1.
         -2   -1    0    0    0  501 -0.00000000000E+00 -0.00000000000E+00 -0.63339863948E+03  0.63339863949E+03  0.25500000000E-02 0.  1.
    8880022    1    1    2    0    0  0.37671157918E+03  0.80581542457E+03 -0.14929070267E+03  0.91483849902E+03  0.15294330000E+03 0.  0.
    8880022    1    1    2    0    0 -0.37671157918E+03 -0.80581542457E+03  0.19084589596E+04  0.21111270369E+04  0.15294330000E+03 0.  0.
<mgrwt>
<rscale>  0 0.90257507E+03</rscale>
<asrwt>0</asrwt>
<pdfrwt beam="1">  1        2 0.36808722E+00 0.90257507E+03</pdfrwt>
<pdfrwt beam="2">  1       -2 0.97445944E-01 0.90257507E+03</pdfrwt>
<totfact> 0.35985982E+00</totfact>
</mgrwt>
</event>
<event>
 4    1  0.1033139E-008  0.4535881E+03  0.7818608E-02  0.1026657E+00
          2   -1    0    0  501    0  0.00000000000E+00  0.00000000000E+00  0.41191483184E+03  0.41191483185E+03  0.25500000000E-02 0. -1.
         -2   -1    0    0    0  501 -0.00000000000E+00 -0.00000000000E+00 -0.71187708929E+03  0.71187708930E+03  0.25500000000E-02 0.  1.
    8880022    1    1    2    0    0  0.38727979620E+03 -0.17990231849E+03  0.15694253169E+03  0.47997197419E+03  0.15294330000E+03 0. -1.
    8880022    1    1    2    0    0 -0.38727979620E+03  0.17990231849E+03 -0.45690478914E+03  0.64381994695E+03  0.15294330000E+03 0.  1.
<mgrwt>
<rscale>  0 0.45358807E+03</rscale>
<asrwt>0</asrwt>
<pdfrwt beam="1">  1        2 0.63371513E-01 0.45358807E+03</pdfrwt>
<pdfrwt beam="2">  1       -2 0.10951955E+00 0.45358807E+03</pdfrwt>
<totfact> 0.52863415E+01</totfact>
</mgrwt>
</event>
<event>
 4    1  0.1033139E-008  0.1141350E+04  0.7818608E-02  0.9165800E-01
          2   -1    0    0  501    0  0.00000000000E+00  0.00000000000E+00  0.15805577489E+04  0.15805577489E+04  0.25500000000E-02 0. -1.
         -2   -1    0    0    0  501 -0.00000000000E+00 -0.00000000000E+00 -0.10094739056E+04  0.10094739056E+04  0.25500000000E-02 0.  1.
    8880022    1    1    2    0    0 -0.11188225570E+04  0.16590666549E+03  0.84035393814E+03  0.14173479919E+04  0.15294330000E+03 0.  0.
    8880022    1    1    2    0    0  0.11188225570E+04 -0.16590666549E+03 -0.26927009489E+03  0.11726836627E+04  0.15294330000E+03 0.  0.
<mgrwt>
<rscale>  0 0.11413503E+04</rscale>
<asrwt>0</asrwt>
<pdfrwt beam="1">  1        2 0.24316273E+00 0.11413503E+04</pdfrwt>
<pdfrwt beam="2">  1       -2 0.15530368E+00 0.11413503E+04</pdfrwt>
<totfact> 0.30524837E+00</totfact>
</mgrwt>
</event>
<event>
 4    1  0.1033139E-008  0.1196900E+04  0.7818608E-02  0.9115574E-01
          2   -1    0    0  501    0  0.00000000000E+00  0.00000000000E+00  0.12360245435E+04  0.12360245435E+04  0.25500000000E-02 0. -1.
         -2   -1    0    0    0  501 -0.00000000000E+00 -0.00000000000E+00 -0.26110367359E+04  0.26110367359E+04  0.25500000000E-02 0.  1.
    8880022    1    1    2    0    0 -0.78965115127E+03 -0.88635717133E+03 -0.21219360330E+04  0.24362229284E+04  0.15294330000E+03 0.  1.
    8880022    1    1    2    0    0  0.78965115127E+03  0.88635717133E+03  0.74692384057E+03  0.14108383509E+04  0.15294330000E+03 0.  0.
<mgrwt>
<rscale>  0 0.11969000E+04</rscale>
<asrwt>0</asrwt>
<pdfrwt beam="1">  1        2 0.19015762E+00 0.11969000E+04</pdfrwt>
<pdfrwt beam="2">  1       -2 0.40169796E+00 0.11969000E+04</pdfrwt>
<totfact> 0.12843152E-01</totfact>
</mgrwt>
</event>
<event>
 4    1  0.1033139E-008  0.4989300E+03  0.7818608E-02  0.1014059E+00
          2   -1    0    0  501    0  0.00000000000E+00  0.00000000000E+00  0.68559841345E+03  0.68559841345E+03  0.25500000000E-02 0. -1.
         -2   -1    0    0    0  501 -0.00000000000E+00 -0.00000000000E+00 -0.67427449885E+03  0.67427449886E+03  0.25500000000E-02 0.  1.
    8880022    1    1    2    0    0 -0.47317346113E+03 -0.40575321599E+02  0.46757665480E+03  0.68378290573E+03  0.15294330000E+03 0.  0.
    8880022    1    1    2    0    0  0.47317346113E+03  0.40575321599E+02 -0.45625274020E+03  0.67609000658E+03  0.15294330000E+03 0.  0.
<mgrwt>
<rscale>  0 0.49892999E+03</rscale>
<asrwt>0</asrwt>
<pdfrwt beam="1">  1        2 0.10547668E+00 0.49892999E+03</pdfrwt>
<pdfrwt beam="2">  1       -2 0.10373454E+00 0.49892999E+03</pdfrwt>
<totfact> 0.33083837E+01</totfact>
</mgrwt>
</event>
<event>
 4    1  0.1033139E-008  0.1749500E+04  0.7818608E-02  0.8733626E-01
          2   -1    0    0  501    0  0.00000000000E+00  0.00000000000E+00  0.31396899932E+04  0.31396899932E+04  0.25500000000E-02 0. -1.
         -2   -1    0    0    0  501 -0.00000000000E+00 -0.00000000000E+00 -0.15673944983E+04  0.15673944983E+04  0.25500000000E-02 0.  1.
    8880022    1    1    2    0    0 -0.10211878116E+04  0.14122796774E+04 -0.66092580116E+03  0.18701799382E+04  0.15294330000E+03 0.  0.
    8880022    1    1    2    0    0  0.10211878116E+04 -0.14122796774E+04  0.22332212961E+04  0.28369045532E+04  0.15294330000E+03 0.  0.
<mgrwt>
<rscale>  0 0.17495000E+04</rscale>
<asrwt>0</asrwt>
<pdfrwt beam="1">  1        2 0.48302923E+00 0.17495000E+04</pdfrwt>
<pdfrwt beam="2">  1       -2 0.24113762E+00 0.17495000E+04</pdfrwt>
<totfact> 0.94436046E-02</totfact>
</mgrwt>
</event>
<event>
 4    1  0.1033139E-008  0.1175570E+04  0.7818608E-02  0.9134513E-01
         -2   -1    0    0    0  501 -0.00000000000E+00  0.00000000000E+00  0.52640627422E+03  0.52640627422E+03  0.25500000000E-02 0.  1.
          2   -1    0    0  501    0  0.00000000000E+00 -0.00000000000E+00 -0.35448552000E+04  0.35448552000E+04  0.25500000000E-02 0. -1.
    8880022    1    1    2    0    0  0.66873720152E+03  0.95465416003E+03 -0.25460186842E+04  0.28043139631E+04  0.15294330000E+03 0.  0.
    8880022    1    1    2    0    0 -0.66873720152E+03 -0.95465416003E+03 -0.47243024158E+03  0.12669475112E+04  0.15294330000E+03 0.  0.
<mgrwt>
<rscale>  0 0.11755704E+04</rscale>
<asrwt>0</asrwt>
<pdfrwt beam="1">  1        2 0.54536232E+00 0.11755704E+04</pdfrwt>
<pdfrwt beam="2">  1       -2 0.80985583E-01 0.11755704E+04</pdfrwt>
<totfact> 0.10245191E+00</totfact>
</mgrwt>
</event>
<event>
 4    1  0.1033139E-008  0.4396612E+03  0.7818608E-02  0.1030851E+00
         -2   -1    0    0    0  501 -0.00000000000E+00  0.00000000000E+00  0.15522213278E+03  0.15522213280E+03  0.25500000000E-02 0.  1.
          2   -1    0    0  501    0  0.00000000000E+00 -0.00000000000E+00 -0.22506706406E+04  0.22506706406E+04  0.25500000000E-02 0. -1.
    8880022    1    1    2    0    0  0.35748267690E+03 -0.20522299669E+03 -0.24373913905E+03  0.50270345491E+03  0.15294330000E+03 0.  0.
    8880022    1    1    2    0    0 -0.35748267690E+03  0.20522299669E+03 -0.18517093687E+04  0.19031893185E+04  0.15294330000E+03 0.  0.
<mgrwt>
<rscale>  0 0.43966123E+03</rscale>
<asrwt>0</asrwt>
<pdfrwt beam="1">  1        2 0.34625700E+00 0.43966123E+03</pdfrwt>
<pdfrwt beam="2">  1       -2 0.23880330E-01 0.43966123E+03</pdfrwt>
<totfact> 0.81503222E+01</totfact>
</mgrwt>
</event>
<event>
 4    1  0.1033139E-008  0.5145183E+03  0.7818608E-02  0.1010057E+00
          2   -1    0    0  501    0  0.00000000000E+00  0.00000000000E+00  0.11801898254E+04  0.11801898254E+04  0.25500000000E-02 0. -1.
         -2   -1    0    0    0  501 -0.00000000000E+00 -0.00000000000E+00 -0.65155835293E+03  0.65155835294E+03  0.25500000000E-02 0.  1.
    8880022    1    1    2    0    0 -0.45192169392E+03  0.19262459367E+03 -0.47733426316E+03  0.70183837407E+03  0.15294330000E+03 0.  0.
    8880022    1    1    2    0    0  0.45192169392E+03 -0.19262459367E+03  0.10059657356E+04  0.11299098043E+04  0.15294330000E+03 0.  0.
<mgrwt>
<rscale>  0 0.51451832E+03</rscale>
<asrwt>0</asrwt>
<pdfrwt beam="1">  1        2 0.18156766E+00 0.51451832E+03</pdfrwt>
<pdfrwt beam="2">  1       -2 0.10023975E+00 0.51451832E+03</pdfrwt>
<totfact> 0.16834208E+01</totfact>
</mgrwt>
</event>
<event>
 4    1  0.1033139E-008  0.1334485E+04  0.7818608E-02  0.9002657E-01
         -2   -1    0    0    0  501 -0.00000000000E+00  0.00000000000E+00  0.14307949627E+04  0.14307949627E+04  0.25500000000E-02 0.  1.
          2   -1    0    0  501    0  0.00000000000E+00 -0.00000000000E+00 -0.23456657778E+04  0.23456657778E+04  0.25500000000E-02 0. -1.
    8880022    1    1    2    0    0 -0.23577676389E+03 -0.13045564264E+04  0.83621576858E+03  0.15748354253E+04  0.15294330000E+03 0.  0.
    8880022    1    1    2    0    0  0.23577676389E+03  0.13045564264E+04 -0.17510865837E+04  0.22016253153E+04  0.15294330000E+03 0.  0.
<mgrwt>
<rscale>  0 0.13344848E+04</rscale>
<asrwt>0</asrwt>
<pdfrwt beam="1">  1        2 0.36087166E+00 0.13344848E+04</pdfrwt>
<pdfrwt beam="2">  1       -2 0.22012230E+00 0.13344848E+04</pdfrwt>
<totfact> 0.40316479E-01</totfact>
</mgrwt>
</event>
<event>
 4    1  0.1033139E-008  0.8004976E+03  0.7818608E-02  0.9559297E-01
         -2   -1    0    0    0  501 -0.00000000000E+00  0.00000000000E+00  0.11122295642E+04  0.11122295642E+04  0.25500000000E-02 0.  1.
          2   -1    0    0  501    0  0.00000000000E+00 -0.00000000000E+00 -0.77767521476E+03  0.77767521476E+03  0.25500000000E-02 0. -1.
    8880022    1    1    2    0    0  0.43911082806E+03  0.65160301935E+03 -0.31377217868E+03  0.85979616612E+03  0.15294330000E+03 0.  0.
    8880022    1    1    2    0    0 -0.43911082806E+03 -0.65160301935E+03  0.64832652808E+03  0.10301086128E+04  0.15294330000E+03 0.  0.
<mgrwt>
<rscale>  0 0.80049764E+03</rscale>
<asrwt>0</asrwt>
<pdfrwt beam="1">  1        2 0.11964234E+00 0.80049764E+03</pdfrwt>
<pdfrwt beam="2">  1       -2 0.17111224E+00 0.80049764E+03</pdfrwt>
<totfact> 0.75740778E+00</totfact>
</mgrwt>
</event>
<event>
 4    1  0.1033139E-008  0.3770136E+03  0.7818608E-02  0.1052043E+00
          2   -1    0    0  501    0  0.00000000000E+00  0.00000000000E+00  0.62549789741E+03  0.62549789742E+03  0.25500000000E-02 0. -1.
         -2   -1    0    0    0  501 -0.00000000000E+00 -0.00000000000E+00 -0.41054482008E+03  0.41054482009E+03  0.25500000000E-02 0.  1.
    8880022    1    1    2    0    0 -0.24022432731E+03  0.24706256106E+03  0.45361682442E+03  0.58983685280E+03  0.15294330000E+03 0.  0.
    8880022    1    1    2    0    0  0.24022432731E+03 -0.24706256106E+03 -0.23866374709E+03  0.44620586471E+03  0.15294330000E+03 0.  1.
<mgrwt>
<rscale>  0 0.37701365E+03</rscale>
<asrwt>0</asrwt>
<pdfrwt beam="1">  1        2 0.96230446E-01 0.37701365E+03</pdfrwt>
<pdfrwt beam="2">  1       -2 0.63160741E-01 0.37701365E+03</pdfrwt>
<totfact> 0.11390521E+02</totfact>
</mgrwt>
</event>
<event>
 4    1  0.1033139E-008  0.6699233E+03  0.7818608E-02  0.9770096E-01
          2   -1    0    0  501    0  0.00000000000E+00  0.00000000000E+00  0.53955048079E+03  0.53955048080E+03  0.25500000000E-02 0. -1.
         -2   -1    0    0    0  501 -0.00000000000E+00 -0.00000000000E+00 -0.21249013045E+04  0.21249013045E+04  0.25500000000E-02 0.  1.
    8880022    1    1    2    0    0 -0.64528096338E+03 -0.94963637637E+02  0.24658652054E+03  0.71386425831E+03  0.15294330000E+03 0.  0.
    8880022    1    1    2    0    0  0.64528096338E+03  0.94963637637E+02 -0.18319373442E+04  0.19505875270E+04  0.15294330000E+03 0.  0.
<mgrwt>
<rscale>  0 0.66992333E+03</rscale>
<asrwt>0</asrwt>
<pdfrwt beam="1">  1        2 0.83007768E-01 0.66992333E+03</pdfrwt>
<pdfrwt beam="2">  1       -2 0.32690789E+00 0.66992333E+03</pdfrwt>
<totfact> 0.13003538E+00</totfact>
</mgrwt>
</event>
<event>
 4    1  0.1033139E-008  0.9724187E+03  0.7818608E-02  0.9339324E-01
         -2   -1    0    0    0  501 -0.00000000000E+00  0.00000000000E+00  0.78500729774E+03  0.78500729775E+03  0.25500000000E-02 0.  1.
          2   -1    0    0  501    0  0.00000000000E+00 -0.00000000000E+00 -0.13496355181E+04  0.13496355181E+04  0.25500000000E-02 0. -1.
    8880022    1    1    2    0    0 -0.91593415589E+03  0.28856738681E+03  0.67603172445E+02  0.97476579576E+03  0.15294330000E+03 0. -1.
    8880022    1    1    2    0    0  0.91593415589E+03 -0.28856738681E+03 -0.63223139279E+03  0.11598770201E+04  0.15294330000E+03 0.  0.
<mgrwt>
<rscale>  0 0.97241872E+03</rscale>
<asrwt>0</asrwt>
<pdfrwt beam="1">  1        2 0.20763623E+00 0.97241872E+03</pdfrwt>
<pdfrwt beam="2">  1       -2 0.12077035E+00 0.97241872E+03</pdfrwt>
<totfact> 0.80515043E+00</totfact>
</mgrwt>
</event>
<event>
 4    1  0.1033139E-008  0.3121943E+03  0.7818608E-02  0.1079299E+00
          2   -1    0    0  501    0  0.00000000000E+00  0.00000000000E+00  0.70338306574E+03  0.70338306575E+03  0.25500000000E-02 0. -1.
         -2   -1    0    0    0  501 -0.00000000000E+00 -0.00000000000E+00 -0.24506735850E+04  0.24506735850E+04  0.25500000000E-02 0.  1.
    8880022    1    1    2    0    0 -0.19290913983E+03  0.19198870659E+03  0.65815007175E+03  0.72844132890E+03  0.15294330000E+03 0.  0.
    8880022    1    1    2    0    0  0.19290913983E+03 -0.19198870659E+03 -0.24054405911E+04  0.24256153219E+04  0.15294330000E+03 0.  0.
<mgrwt>
<rscale>  0 0.31219425E+03</rscale>
<asrwt>0</asrwt>
<pdfrwt beam="1">  1        2 0.10821278E+00 0.31219425E+03</pdfrwt>
<pdfrwt beam="2">  1       -2 0.37702670E+00 0.31219425E+03</pdfrwt>
<totfact> 0.51984419E-01</totfact>
</mgrwt>
</event>
<event>
 4    1  0.1033139E-008  0.2113552E+03  0.7818608E-02  0.1140497E+00
          2   -1    0    0  501    0  0.00000000000E+00  0.00000000000E+00  0.10955929068E+04  0.10955929068E+04  0.25500000000E-02 0. -1.
         -2   -1    0    0    0  501 -0.00000000000E+00 -0.00000000000E+00 -0.69292134940E+03  0.69292134940E+03  0.25500000000E-02 0.  1.
    8880022    1    1    2    0    0 -0.27008869920E+02 -0.14335234763E+03  0.10688837769E+04  0.10895795318E+04  0.15294330000E+03 0.  0.
    8880022    1    1    2    0    0  0.27008869920E+02  0.14335234763E+03 -0.66621221946E+03  0.69893472442E+03  0.15294330000E+03 0.  0.
<mgrwt>
<rscale>  0 0.21135522E+03</rscale>
<asrwt>0</asrwt>
<pdfrwt beam="1">  1        2 0.16855275E+00 0.21135522E+03</pdfrwt>
<pdfrwt beam="2">  1       -2 0.10660328E+00 0.21135522E+03</pdfrwt>
<totfact> 0.17627873E+01</totfact>
</mgrwt>
</event>
<event>
 4    1  0.1033139E-008  0.6982687E+03  0.7818608E-02  0.9720198E-01
          2   -1    0    0  501    0  0.00000000000E+00  0.00000000000E+00  0.25413758942E+04  0.25413758942E+04  0.25500000000E-02 0. -1.
         -2   -1    0    0    0  501 -0.00000000000E+00 -0.00000000000E+00 -0.59089982876E+03  0.59089982877E+03  0.25500000000E-02 0.  1.
    8880022    1    1    2    0    0 -0.68114085951E+03 -0.15316396397E+02  0.22622517123E+04  0.23675645557E+04  0.15294330000E+03 0.  0.
    8880022    1    1    2    0    0  0.68114085951E+03  0.15316396397E+02 -0.31177564682E+03  0.76471116734E+03  0.15294330000E+03 0.  0.
<mgrwt>
<rscale>  0 0.69826866E+03</rscale>
<asrwt>0</asrwt>
<pdfrwt beam="1">  1        2 0.39098092E+00 0.69826866E+03</pdfrwt>
<pdfrwt beam="2">  1       -2 0.90907663E-01 0.69826866E+03</pdfrwt>
<totfact> 0.36118793E+00</totfact>
</mgrwt>
</event>
<event>
 4    1  0.1033139E-008  0.6206781E+03  0.7818608E-02  0.9863411E-01
         -2   -1    0    0    0  501 -0.00000000000E+00  0.00000000000E+00  0.61948243070E+03  0.61948243070E+03  0.25500000000E-02 0.  1.
          2   -1    0    0  501    0  0.00000000000E+00 -0.00000000000E+00 -0.83158066874E+03  0.83158066874E+03  0.25500000000E-02 0. -1.
    8880022    1    1    2    0    0 -0.59978465907E+03  0.45912820805E+02  0.25829194650E+03  0.67227673394E+03  0.15294330000E+03 0.  0.
    8880022    1    1    2    0    0  0.59978465907E+03 -0.45912820805E+02 -0.47039018453E+03  0.77878636550E+03  0.15294330000E+03 0.  0.
<mgrwt>
<rscale>  0 0.62067808E+03</rscale>
<asrwt>0</asrwt>
<pdfrwt beam="1">  1        2 0.12793549E+00 0.62067808E+03</pdfrwt>
<pdfrwt beam="2">  1       -2 0.95304989E-01 0.62067808E+03</pdfrwt>
<totfact> 0.31078435E+01</totfact>
</mgrwt>
</event>
<event>
 4    1  0.1033139E-008  0.8976283E+03  0.7818608E-02  0.9428551E-01
         -2   -1    0    0    0  501 -0.00000000000E+00  0.00000000000E+00  0.48612871523E+03  0.48612871524E+03  0.25500000000E-02 0.  1.
          2   -1    0    0  501    0  0.00000000000E+00 -0.00000000000E+00 -0.42656509238E+04  0.42656509238E+04  0.25500000000E-02 0. -1.
    8880022    1    1    2    0    0  0.88377161079E+03  0.35952979590E+02 -0.37475815413E+04  0.38535832596E+04  0.15294330000E+03 0.  0.
    8880022    1    1    2    0    0 -0.88377161079E+03 -0.35952979590E+02 -0.31940667234E+02  0.89819637943E+03  0.15294330000E+03 0.  0.
<mgrwt>
<rscale>  0 0.89762828E+03</rscale>
<asrwt>0</asrwt>
<pdfrwt beam="1">  1        2 0.65625396E+00 0.89762828E+03</pdfrwt>
<pdfrwt beam="2">  1       -2 0.74789036E-01 0.89762828E+03</pdfrwt>
<totfact> 0.35591328E-01</totfact>
</mgrwt>
</event>
<event>
 4    1  0.1033139E-008  0.1256636E+04  0.7818608E-02  0.9064678E-01
          2   -1    0    0  501    0  0.00000000000E+00  0.00000000000E+00  0.32143459953E+04  0.32143459953E+04  0.25500000000E-02 0. -1.
         -2   -1    0    0    0  501 -0.00000000000E+00 -0.00000000000E+00 -0.77872409041E+03  0.77872409041E+03  0.25500000000E-02 0.  1.
    8880022    1    1    2    0    0  0.12399910217E+04  0.13477664688E+03  0.24308202239E+04  0.27364248742E+04  0.15294330000E+03 0.  0.
    8880022    1    1    2    0    0 -0.12399910217E+04 -0.13477664688E+03  0.48016809931E+01  0.12566452115E+04  0.15294330000E+03 0.  0.
<mgrwt>
<rscale>  0 0.12566360E+04</rscale>
<asrwt>0</asrwt>
<pdfrwt beam="1">  1        2 0.49451476E+00 0.12566360E+04</pdfrwt>
<pdfrwt beam="2">  1       -2 0.11980371E+00 0.12566360E+04</pdfrwt>
<totfact> 0.66573145E-01</totfact>
</mgrwt>
</event>
<event>
 4    1  0.1033139E-008  0.8120988E+03  0.7818608E-02  0.9542668E-01
         -2   -1    0    0    0  501 -0.00000000000E+00  0.00000000000E+00  0.37999544596E+03  0.37999544597E+03  0.25500000000E-02 0.  1.
          2   -1    0    0  501    0  0.00000000000E+00 -0.00000000000E+00 -0.17913373617E+04  0.17913373617E+04  0.25500000000E-02 0. -1.
    8880022    1    1    2    0    0 -0.64312280402E+03  0.47170519803E+03 -0.51409460629E+03  0.96114392894E+03  0.15294330000E+03 0.  0.
    8880022    1    1    2    0    0  0.64312280402E+03 -0.47170519803E+03 -0.89724730948E+03  0.12101888788E+04  0.15294330000E+03 0.  0.
<mgrwt>
<rscale>  0 0.81209876E+03</rscale>
<asrwt>0</asrwt>
<pdfrwt beam="1">  1        2 0.27559036E+00 0.81209876E+03</pdfrwt>
<pdfrwt beam="2">  1       -2 0.58460839E-01 0.81209876E+03</pdfrwt>
<totfact> 0.24379628E+01</totfact>
</mgrwt>
</event>
<event>
 4    1  0.1033139E-008  0.1207522E+04  0.7818608E-02  0.9106298E-01
          2   -1    0    0  501    0  0.00000000000E+00  0.00000000000E+00  0.25826501937E+04  0.25826501937E+04  0.25500000000E-02 0. -1.
         -2   -1    0    0    0  501 -0.00000000000E+00 -0.00000000000E+00 -0.76399288218E+03  0.76399288218E+03  0.25500000000E-02 0.  1.
    8880022    1    1    2    0    0 -0.58738279068E+03 -0.10438863693E+04  0.54433394940E+02  0.12087480888E+04  0.15294330000E+03 0.  0.
    8880022    1    1    2    0    0  0.58738279068E+03  0.10438863693E+04  0.17642239166E+04  0.21378949871E+04  0.15294330000E+03 0.  0.
<mgrwt>
<rscale>  0 0.12075218E+04</rscale>
<asrwt>0</asrwt>
<pdfrwt beam="1">  1        2 0.39733080E+00 0.12075218E+04</pdfrwt>
<pdfrwt beam="2">  1       -2 0.11753737E+00 0.12075218E+04</pdfrwt>
<totfact> 0.17085654E+00</totfact>
</mgrwt>
</event>
<event>
 4    1  0.1033139E-008  0.3310303E+03  0.7818608E-02  0.1070682E+00
          2   -1    0    0  501    0  0.00000000000E+00  0.00000000000E+00  0.62973983212E+03  0.62973983213E+03  0.25500000000E-02 0. -1.
         -2   -1    0    0    0  501 -0.00000000000E+00 -0.00000000000E+00 -0.31538916837E+03  0.31538916838E+03  0.25500000000E-02 0.  1.
    8880022    1    1    2    0    0  0.21284512398E+03 -0.20220380920E+03  0.47357082677E+03  0.57779789567E+03  0.15294330000E+03 0.  0.
    8880022    1    1    2    0    0 -0.21284512398E+03  0.20220380920E+03 -0.15922016302E+03  0.36733110484E+03  0.15294330000E+03 0.  0.
<mgrwt>
<rscale>  0 0.33103033E+03</rscale>
<asrwt>0</asrwt>
<pdfrwt beam="1">  1        2 0.96883050E-01 0.33103033E+03</pdfrwt>
<pdfrwt beam="2">  1       -2 0.48521411E-01 0.33103033E+03</pdfrwt>
<totfact> 0.19511212E+02</totfact>
</mgrwt>
</event>
<event>
 4    1  0.1033139E-008  0.6180969E+03  0.7818608E-02  0.9868556E-01
          2   -1    0    0  501    0  0.00000000000E+00  0.00000000000E+00  0.14768067097E+04  0.14768067097E+04  0.25500000000E-02 0. -1.
         -2   -1    0    0    0  501 -0.00000000000E+00 -0.00000000000E+00 -0.42285899683E+03  0.42285899684E+03  0.25500000000E-02 0.  1.
    8880022    1    1    2    0    0 -0.56200068537E+03 -0.20689924213E+03 -0.64842925466E+02  0.62148879696E+03  0.15294330000E+03 0.  1.
    8880022    1    1    2    0    0  0.56200068537E+03  0.20689924213E+03  0.11187906384E+04  0.12781769096E+04  0.15294330000E+03 0.  0.
<mgrwt>
<rscale>  0 0.61809685E+03</rscale>
<asrwt>0</asrwt>
<pdfrwt beam="1">  1        2 0.22720104E+00 0.61809685E+03</pdfrwt>
<pdfrwt beam="2">  1       -2 0.65055229E-01 0.61809685E+03</pdfrwt>
<totfact> 0.29653693E+01</totfact>
</mgrwt>
</event>
<event>
 4    1  0.1033139E-008  0.7035165E+03  0.7818608E-02  0.9711237E-01
          2   -1    0    0  501    0  0.00000000000E+00  0.00000000000E+00  0.53980720104E+03  0.53980720105E+03  0.25500000000E-02 0. -1.
         -2   -1    0    0    0  501 -0.00000000000E+00 -0.00000000000E+00 -0.18222155459E+04  0.18222155459E+04  0.25500000000E-02 0.  1.
    8880022    1    1    2    0    0 -0.25681126568E+03  0.63686090712E+03  0.19124992509E+03  0.72904871446E+03  0.15294330000E+03 0.  0.
    8880022    1    1    2    0    0  0.25681126568E+03 -0.63686090712E+03 -0.14736582699E+04  0.16329740325E+04  0.15294330000E+03 0.  0.
<mgrwt>
<rscale>  0 0.70351652E+03</rscale>
<asrwt>0</asrwt>
<pdfrwt beam="1">  1        2 0.83047263E-01 0.70351652E+03</pdfrwt>
<pdfrwt beam="2">  1       -2 0.28034085E+00 0.70351652E+03</pdfrwt>
<totfact> 0.24635940E+00</totfact>
</mgrwt>
</event>
<event>
 4    1  0.1033139E-008  0.1688992E+04  0.7818608E-02  0.8767668E-01
          2   -1    0    0  501    0  0.00000000000E+00  0.00000000000E+00  0.32345804342E+04  0.32345804342E+04  0.25500000000E-02 0. -1.
         -2   -1    0    0    0  501 -0.00000000000E+00 -0.00000000000E+00 -0.10236001339E+04  0.10236001339E+04  0.25500000000E-02 0.  1.
    8880022    1    1    2    0    0  0.16813367305E+04 -0.49074519443E+02  0.31342891968E+03  0.17178273634E+04  0.15294330000E+03 0.  0.
    8880022    1    1    2    0    0 -0.16813367305E+04  0.49074519443E+02  0.18975513807E+04  0.25403532048E+04  0.15294330000E+03 0.  0.
<mgrwt>
<rscale>  0 0.16889918E+04</rscale>
<asrwt>0</asrwt>
<pdfrwt beam="1">  1        2 0.49762777E+00 0.16889918E+04</pdfrwt>
<pdfrwt beam="2">  1       -2 0.15747694E+00 0.16889918E+04</pdfrwt>
<totfact> 0.30068444E-01</totfact>
</mgrwt>
</event>
<event>
 4    1  0.1033139E-008  0.3040256E+03  0.7818608E-02  0.1083245E+00
          2   -1    0    0  501    0  0.00000000000E+00  0.00000000000E+00  0.82968754820E+03  0.82968754820E+03  0.25500000000E-02 0. -1.
         -2   -1    0    0    0  501 -0.00000000000E+00 -0.00000000000E+00 -0.65009465888E+03  0.65009465889E+03  0.25500000000E-02 0.  1.
    8880022    1    1    2    0    0 -0.10317191794E+03 -0.24165154513E+03 -0.58372079421E+03  0.65815008358E+03  0.15294330000E+03 0.  0.
    8880022    1    1    2    0    0  0.10317191794E+03  0.24165154513E+03  0.76331368352E+03  0.82163212351E+03  0.15294330000E+03 0.  0.
<mgrwt>
<rscale>  0 0.30402560E+03</rscale>
<asrwt>0</asrwt>
<pdfrwt beam="1">  1        2 0.12764424E+00 0.30402560E+03</pdfrwt>
<pdfrwt beam="2">  1       -2 0.10001456E+00 0.30402560E+03</pdfrwt>
<totfact> 0.29240212E+01</totfact>
</mgrwt>
</event>
<event>
 4    1  0.1033139E-008  0.3953266E+03  0.7818608E-02  0.1045410E+00
          2   -1    0    0  501    0  0.00000000000E+00  0.00000000000E+00  0.73577460113E+03  0.73577460114E+03  0.25500000000E-02 0. -1.
         -2   -1    0    0    0  501 -0.00000000000E+00 -0.00000000000E+00 -0.57933882751E+03  0.57933882751E+03  0.25500000000E-02 0.  1.
    8880022    1    1    2    0    0 -0.35588221556E+03  0.78989129449E+02 -0.44509335476E+03  0.59530763593E+03  0.15294330000E+03 0.  1.
    8880022    1    1    2    0    0  0.35588221556E+03 -0.78989129449E+02  0.60152912839E+03  0.71980579272E+03  0.15294330000E+03 0.  0.
<mgrwt>
<rscale>  0 0.39532656E+03</rscale>
<asrwt>0</asrwt>
<pdfrwt beam="1">  1        2 0.11319609E+00 0.39532656E+03</pdfrwt>
<pdfrwt beam="2">  1       -2 0.89129051E-01 0.39532656E+03</pdfrwt>
<totfact> 0.43738615E+01</totfact>
</mgrwt>
</event>
<event>
 4    1  0.1033139E-008  0.4014889E+03  0.7818608E-02  0.1043265E+00
         -2   -1    0    0    0  501 -0.00000000000E+00  0.00000000000E+00  0.13470322026E+03  0.13470322028E+03  0.25500000000E-02 0.  1.
          2   -1    0    0  501    0  0.00000000000E+00 -0.00000000000E+00 -0.27088966217E+04  0.27088966217E+04  0.25500000000E-02 0. -1.
    8880022    1    1    2    0    0 -0.27909837058E+03  0.24475653112E+03 -0.22478288289E+03  0.46013113070E+03  0.15294330000E+03 0.  0.
    8880022    1    1    2    0    0  0.27909837058E+03 -0.24475653112E+03 -0.23494105186E+04  0.23834687113E+04  0.15294330000E+03 0. -1.
<mgrwt>
<rscale>  0 0.40148887E+03</rscale>
<asrwt>0</asrwt>
<pdfrwt beam="1">  1        2 0.41675329E+00 0.40148887E+03</pdfrwt>
<pdfrwt beam="2">  1       -2 0.20723574E-01 0.40148887E+03</pdfrwt>
<totfact> 0.58664715E+01</totfact>
</mgrwt>
</event>
<event>
 4    1  0.1033139E-008  0.1231761E+04  0.7818608E-02  0.9085502E-01
         -2   -1    0    0    0  501 -0.00000000000E+00  0.00000000000E+00  0.17229469871E+04  0.17229469871E+04  0.25500000000E-02 0.  1.
          2   -1    0    0  501    0  0.00000000000E+00 -0.00000000000E+00 -0.14811488408E+04  0.14811488408E+04  0.25500000000E-02 0. -1.
    8880022    1    1    2    0    0  0.99006835015E+03 -0.71666474204E+03 -0.89921464847E+03  0.15250646962E+04  0.15294330000E+03 0.  0.
    8880022    1    1    2    0    0 -0.99006835015E+03  0.71666474204E+03  0.11410127948E+04  0.16790311317E+04  0.15294330000E+03 0.  0.
<mgrwt>
<rscale>  0 0.12317611E+04</rscale>
<asrwt>0</asrwt>
<pdfrwt beam="1">  1        2 0.22786905E+00 0.12317611E+04</pdfrwt>
<pdfrwt beam="2">  1       -2 0.26506877E+00 0.12317611E+04</pdfrwt>
<totfact> 0.65479247E-01</totfact>
</mgrwt>
</event>
<event>
 4    1  0.1033139E-008  0.1148659E+04  0.7818608E-02  0.9159021E-01
         -2   -1    0    0    0  501 -0.00000000000E+00  0.00000000000E+00  0.57833277440E+03  0.57833277441E+03  0.25500000000E-02 0.  1.
          2   -1    0    0  501    0  0.00000000000E+00 -0.00000000000E+00 -0.24213364644E+04  0.24213364644E+04  0.25500000000E-02 0. -1.
    8880022    1    1    2    0    0  0.40070706488E+03 -0.10655799430E+04 -0.12820425817E+04  0.17213516786E+04  0.15294330000E+03 0.  0.
    8880022    1    1    2    0    0 -0.40070706488E+03  0.10655799430E+04 -0.56096110827E+03  0.12783175603E+04  0.15294330000E+03 0.  0.
<mgrwt>
<rscale>  0 0.11486594E+04</rscale>
<asrwt>0</asrwt>
<pdfrwt beam="1">  1        2 0.37251330E+00 0.11486594E+04</pdfrwt>
<pdfrwt beam="2">  1       -2 0.88974274E-01 0.11486594E+04</pdfrwt>
<totfact> 0.41509698E+00</totfact>
</mgrwt>
</event>
<event>
 4    1  0.1033139E-008  0.5158475E+03  0.7818608E-02  0.1009723E+00
          2   -1    0    0  501    0  0.00000000000E+00  0.00000000000E+00  0.15950113905E+04  0.15950113905E+04  0.25500000000E-02 0. -1.
         -2   -1    0    0    0  501 -0.00000000000E+00 -0.00000000000E+00 -0.22250899719E+03  0.22250899721E+03  0.25500000000E-02 0.  1.
    8880022    1    1    2    0    0 -0.17975176497E+03  0.45868973528E+03  0.11408352374E+04  0.12520398006E+04  0.15294330000E+03 0.  0.
    8880022    1    1    2    0    0  0.17975176497E+03 -0.45868973528E+03  0.23166715582E+03  0.56548058707E+03  0.15294330000E+03 0.  0.
<mgrwt>
<rscale>  0 0.51584748E+03</rscale>
<asrwt>0</asrwt>
<pdfrwt beam="1">  1        2 0.24538637E+00 0.51584748E+03</pdfrwt>
<pdfrwt beam="2">  1       -2 0.34232153E-01 0.51584748E+03</pdfrwt>
<totfact> 0.93974974E+01</totfact>
</mgrwt>
</event>
<event>
 4    1  0.1033139E-008  0.1986688E+03  0.7818608E-02  0.1150867E+00
         -2   -1    0    0    0  501 -0.00000000000E+00  0.00000000000E+00  0.10997768282E+03  0.10997768285E+03  0.25500000000E-02 0.  1.
          2   -1    0    0  501    0  0.00000000000E+00 -0.00000000000E+00 -0.90387785573E+03  0.90387785574E+03  0.25500000000E-02 0. -1.
    8880022    1    1    2    0    0  0.62328744282E+02 -0.11042089853E+03 -0.33213824562E+01  0.19869658224E+03  0.15294330000E+03 0.  0.
    8880022    1    1    2    0    0 -0.62328744282E+02  0.11042089853E+03 -0.79057879045E+03  0.81515895636E+03  0.15294330000E+03 0. -1.
<mgrwt>
<rscale>  0 0.19866882E+03</rscale>
<asrwt>0</asrwt>
<pdfrwt beam="1">  1        2 0.13905813E+00 0.19866882E+03</pdfrwt>
<pdfrwt beam="2">  1       -2 0.16919644E-01 0.19866882E+03</pdfrwt>
<totfact> 0.84939917E+02</totfact>
</mgrwt>
</event>
<event>
 4    1  0.1252272E-008  0.1561707E+04  0.7818608E-02  0.8844425E-01
          2   -1    0    0  501    0  0.00000000000E+00  0.00000000000E+00  0.30676711778E+04  0.30676711778E+04  0.25500000000E-02 0. -1.
         -2   -1    0    0    0  501 -0.00000000000E+00 -0.00000000000E+00 -0.16975949997E+04  0.16975949997E+04  0.25500000000E-02 0.  1.
    8880022    1    1    2    0    0  0.53416776498E+03  0.14595209990E+04 -0.10522682560E+04  0.18831348553E+04  0.15294330000E+03 0.  0.
    8880022    1    1    2    0    0 -0.53416776498E+03 -0.14595209990E+04  0.24223444341E+04  0.28821313221E+04  0.15294330000E+03 0.  0.
<mgrwt>
<rscale>  0 0.15617069E+04</rscale>
<asrwt>0</asrwt>
<pdfrwt beam="1">  1        2 0.47194940E+00 0.15617069E+04</pdfrwt>
<pdfrwt beam="2">  1       -2 0.26116847E+00 0.15617069E+04</pdfrwt>
<totfact> 0.80832804E-02</totfact>
</mgrwt>
</event>
<event>
 4    1  0.1033139E-008  0.2009168E+04  0.7818608E-02  0.8602346E-01
         -2   -1    0    0    0  501 -0.00000000000E+00  0.00000000000E+00  0.28407803748E+04  0.28407803748E+04  0.25500000000E-02 0.  1.
          2   -1    0    0  501    0  0.00000000000E+00 -0.00000000000E+00 -0.15496866107E+04  0.15496866107E+04  0.25500000000E-02 0. -1.
    8880022    1    1    2    0    0 -0.16743032600E+04 -0.11000337128E+04  0.12959505226E+02  0.20092100879E+04  0.15294330000E+03 0.  0.
    8880022    1    1    2    0    0  0.16743032600E+04  0.11000337128E+04  0.12781342589E+04  0.23812568976E+04  0.15294330000E+03 0.  0.
<mgrwt>
<rscale>  0 0.20091683E+04</rscale>
<asrwt>0</asrwt>
<pdfrwt beam="1">  1        2 0.23841333E+00 0.20091683E+04</pdfrwt>
<pdfrwt beam="2">  1       -2 0.43704313E+00 0.20091683E+04</pdfrwt>
<totfact> 0.44776410E-02</totfact>
</mgrwt>
</event>
<event>
 4    1  0.1033139E-008  0.1082986E+04  0.7818608E-02  0.9221935E-01
          2   -1    0    0  501    0  0.00000000000E+00  0.00000000000E+00  0.39549299056E+04  0.39549299056E+04  0.25500000000E-02 0. -1.
         -2   -1    0    0    0  501 -0.00000000000E+00 -0.00000000000E+00 -0.41375543659E+03  0.41375543660E+03  0.25500000000E-02 0.  1.
    8880022    1    1    2    0    0 -0.48282609770E+03  0.95725969477E+03  0.60803792411E+03  0.12420019863E+04  0.15294330000E+03 0.  0.
    8880022    1    1    2    0    0  0.48282609770E+03 -0.95725969477E+03  0.29331365450E+04  0.31266833559E+04  0.15294330000E+03 0.  0.
<mgrwt>
<rscale>  0 0.10829861E+04</rscale>
<asrwt>0</asrwt>
<pdfrwt beam="1">  1        2 0.60845075E+00 0.10829861E+04</pdfrwt>
<pdfrwt beam="2">  1       -2 0.63654683E-01 0.10829861E+04</pdfrwt>
<totfact> 0.88071201E-01</totfact>
</mgrwt>
</event>
<event>
 4    1  0.1033139E-008  0.1364387E+04  0.7818608E-02  0.8980008E-01
          2   -1    0    0  501    0  0.00000000000E+00  0.00000000000E+00  0.17715829860E+04  0.17715829860E+04  0.25500000000E-02 0. -1.
         -2   -1    0    0    0  501 -0.00000000000E+00 -0.00000000000E+00 -0.11533163285E+04  0.11533163285E+04  0.25500000000E-02 0.  1.
    8880022    1    1    2    0    0 -0.67811777572E+03  0.11740174992E+04  0.74518247221E+03  0.15546219399E+04  0.15294330000E+03 0.  0.
    8880022    1    1    2    0    0  0.67811777572E+03 -0.11740174992E+04 -0.12691581472E+03  0.13702773746E+04  0.15294330000E+03 0.  1.
<mgrwt>
<rscale>  0 0.13643872E+04</rscale>
<asrwt>0</asrwt>
<pdfrwt beam="1">  1        2 0.27255123E+00 0.13643872E+04</pdfrwt>
<pdfrwt beam="2">  1       -2 0.17743328E+00 0.13643872E+04</pdfrwt>
<totfact> 0.16131145E+00</totfact>
</mgrwt>
</event>
<event>
 4    1  0.1033139E-008  0.6719888E+03  0.7818608E-02  0.9766372E-01
          2   -1    0    0  501    0  0.00000000000E+00  0.00000000000E+00  0.14382889438E+04  0.14382889438E+04  0.25500000000E-02 0. -1.
         -2   -1    0    0    0  501 -0.00000000000E+00 -0.00000000000E+00 -0.43683716451E+03  0.43683716451E+03  0.25500000000E-02 0.  1.
    8880022    1    1    2    0    0  0.28376187162E+03 -0.58962408006E+03  0.34795413300E+01  0.67199785401E+03  0.15294330000E+03 0.  0.
    8880022    1    1    2    0    0 -0.28376187162E+03  0.58962408006E+03  0.99797223799E+03  0.12031282543E+04  0.15294330000E+03 0.  0.
<mgrwt>
<rscale>  0 0.67198885E+03</rscale>
<asrwt>0</asrwt>
<pdfrwt beam="1">  1        2 0.22127522E+00 0.67198885E+03</pdfrwt>
<pdfrwt beam="2">  1       -2 0.67205718E-01 0.67198885E+03</pdfrwt>
<totfact> 0.28843718E+01</totfact>
</mgrwt>
</event>
<event>
 4    1  0.1033139E-008  0.7196293E+03  0.7818608E-02  0.9684240E-01
          2   -1    0    0  501    0  0.00000000000E+00  0.00000000000E+00  0.19971809759E+04  0.19971809759E+04  0.25500000000E-02 0. -1.
         -2   -1    0    0    0  501 -0.00000000000E+00 -0.00000000000E+00 -0.92720159895E+03  0.92720159895E+03  0.25500000000E-02 0.  1.
    8880022    1    1    2    0    0 -0.48048805295E+03  0.51342570022E+03 -0.70601602141E+03  0.10081294531E+04  0.15294330000E+03 0.  0.
    8880022    1    1    2    0    0  0.48048805295E+03 -0.51342570022E+03  0.17759953984E+04  0.19162531218E+04  0.15294330000E+03 0.  0.
<mgrwt>
<rscale>  0 0.71962933E+03</rscale>
<asrwt>0</asrwt>
<pdfrwt beam="1">  1        2 0.30725861E+00 0.71962933E+03</pdfrwt>
<pdfrwt beam="2">  1       -2 0.14264640E+00 0.71962933E+03</pdfrwt>
<totfact> 0.23926330E+00</totfact>
</mgrwt>
</event>
<event>
 4    1  0.1033139E-008  0.8233261E+03  0.7818608E-02  0.9526854E-01
          2   -1    0    0  501    0  0.00000000000E+00  0.00000000000E+00  0.36595538694E+04  0.36595538694E+04  0.25500000000E-02 0. -1.
         -2   -1    0    0    0  501 -0.00000000000E+00 -0.00000000000E+00 -0.33718085982E+03  0.33718085983E+03  0.25500000000E-02 0.  1.
    8880022    1    1    2    0    0  0.13040408863E+03 -0.79841655564E+03  0.31967984991E+03  0.88321066689E+03  0.15294330000E+03 0.  0.
    8880022    1    1    2    0    0 -0.13040408863E+03  0.79841655564E+03  0.30026931596E+04  0.31135240623E+04  0.15294330000E+03 0.  0.
<mgrwt>
<rscale>  0 0.82332611E+03</rscale>
<asrwt>0</asrwt>
<pdfrwt beam="1">  1        2 0.56300828E+00 0.82332611E+03</pdfrwt>
<pdfrwt beam="2">  1       -2 0.51873979E-01 0.82332611E+03</pdfrwt>
<totfact> 0.23615940E+00</totfact>
</mgrwt>
</event>
<event>
 4    1  0.1033139E-008  0.9740606E+03  0.7818608E-02  0.9337461E-01
         -2   -1    0    0    0  501 -0.00000000000E+00  0.00000000000E+00  0.62374424983E+03  0.62374424983E+03  0.25500000000E-02 0.  1.
          2   -1    0    0  501    0  0.00000000000E+00 -0.00000000000E+00 -0.29107553704E+04  0.29107553704E+04  0.25500000000E-02 0. -1.
    8880022    1    1    2    0    0  0.94121228283E+03 -0.19880102973E+03 -0.23645865358E+04  0.25573547953E+04  0.15294330000E+03 0.  0.
    8880022    1    1    2    0    0 -0.94121228283E+03  0.19880102973E+03  0.77575415260E+02  0.97714482490E+03  0.15294330000E+03 0.  0.
<mgrwt>
<rscale>  0 0.97406061E+03</rscale>
<asrwt>0</asrwt>
<pdfrwt beam="1">  1        2 0.44780851E+00 0.97406061E+03</pdfrwt>
<pdfrwt beam="2">  1       -2 0.95960655E-01 0.97406061E+03</pdfrwt>
<totfact> 0.18405607E+00</totfact>
</mgrwt>
</event>
<event>
 4    1  0.1033139E-008  0.3941421E+03  0.7818608E-02  0.1045827E+00
          2   -1    0    0  501    0  0.00000000000E+00  0.00000000000E+00  0.47724423997E+03  0.47724423998E+03  0.25500000000E-02 0. -1.
         -2   -1    0    0    0  501 -0.00000000000E+00 -0.00000000000E+00 -0.18732618307E+04  0.18732618307E+04  0.25500000000E-02 0.  1.
    8880022    1    1    2    0    0 -0.19240177838E+03  0.30811997565E+03  0.37026538262E+03  0.54078135165E+03  0.15294330000E+03 0.  0.
    8880022    1    1    2    0    0  0.19240177838E+03 -0.30811997565E+03 -0.17662829734E+04  0.18097247190E+04  0.15294330000E+03 0.  0.
<mgrwt>
<rscale>  0 0.39414213E+03</rscale>
<asrwt>0</asrwt>
<pdfrwt beam="1">  1        2 0.73422192E-01 0.39414213E+03</pdfrwt>
<pdfrwt beam="2">  1       -2 0.28819412E+00 0.39414213E+03</pdfrwt>
<totfact> 0.27249875E+00</totfact>
</mgrwt>
</event>
<event>
 4    1  0.1092310E-008  0.1023831E+04  0.7818608E-02  0.9282787E-01
          2   -1    0    0  501    0  0.00000000000E+00  0.00000000000E+00  0.21011783044E+04  0.21011783044E+04  0.25500000000E-02 0. -1.
         -2   -1    0    0    0  501 -0.00000000000E+00 -0.00000000000E+00 -0.14083510750E+04  0.14083510750E+04  0.25500000000E-02 0.  1.
    8880022    1    1    2    0    0 -0.93003082644E+03 -0.39984996538E+03 -0.10637147403E+04  0.14763868174E+04  0.15294330000E+03 0.  0.
    8880022    1    1    2    0    0  0.93003082644E+03  0.39984996538E+03  0.17565419697E+04  0.20331425620E+04  0.15294330000E+03 0.  0.
<mgrwt>
<rscale>  0 0.10238305E+04</rscale>
<asrwt>0</asrwt>
<pdfrwt beam="1">  1        2 0.32325820E+00 0.10238305E+04</pdfrwt>
<pdfrwt beam="2">  1       -2 0.21666940E+00 0.10238305E+04</pdfrwt>
<totfact> 0.60722590E-01</totfact>
</mgrwt>
</event>
<event>
 4    1  0.1033139E-008  0.6067000E+03  0.7818608E-02  0.9891602E-01
         -2   -1    0    0    0  501 -0.00000000000E+00  0.00000000000E+00  0.18151054490E+03  0.18151054492E+03  0.25500000000E-02 0.  1.
          2   -1    0    0  501    0  0.00000000000E+00 -0.00000000000E+00 -0.43066138311E+04  0.43066138311E+04  0.25500000000E-02 0. -1.
    8880022    1    1    2    0    0 -0.58625441575E+03 -0.31607127394E+02 -0.43020650391E+03  0.74374897614E+03  0.15294330000E+03 0.  0.
    8880022    1    1    2    0    0  0.58625441575E+03  0.31607127394E+02 -0.36948967823E+04  0.37443753999E+04  0.15294330000E+03 0.  0.
<mgrwt>
<rscale>  0 0.60670001E+03</rscale>
<asrwt>0</asrwt>
<pdfrwt beam="1">  1        2 0.66255590E+00 0.60670001E+03</pdfrwt>
<pdfrwt beam="2">  1       -2 0.27924702E-01 0.60670001E+03</pdfrwt>
<totfact> 0.25565759E+00</totfact>
</mgrwt>
</event>
<event>
 4    1  0.1033139E-008  0.1066528E+04  0.7818608E-02  0.9238444E-01
          2   -1    0    0  501    0  0.00000000000E+00  0.00000000000E+00  0.32106378901E+04  0.32106378901E+04  0.25500000000E-02 0. -1.
         -2   -1    0    0    0  501 -0.00000000000E+00 -0.00000000000E+00 -0.43902245340E+03  0.43902245341E+03  0.25500000000E-02 0.  1.
    8880022    1    1    2    0    0 -0.19109284238E+02  0.10553319070E+04  0.21875147044E+04  0.24336603776E+04  0.15294330000E+03 0.  0.
    8880022    1    1    2    0    0  0.19109284238E+02 -0.10553319070E+04  0.58410073231E+03  0.12159999659E+04  0.15294330000E+03 0.  0.
<mgrwt>
<rscale>  0 0.10665281E+04</rscale>
<asrwt>0</asrwt>
<pdfrwt beam="1">  1        2 0.49394428E+00 0.10665281E+04</pdfrwt>
<pdfrwt beam="2">  1       -2 0.67541917E-01 0.10665281E+04</pdfrwt>
<totfact> 0.26092566E+00</totfact>
</mgrwt>
</event>
<event>
 4    1  0.1033139E-008  0.9979487E+03  0.7818608E-02  0.9310798E-01
          2   -1    0    0  501    0  0.00000000000E+00  0.00000000000E+00  0.18456212594E+04  0.18456212594E+04  0.25500000000E-02 0. -1.
         -2   -1    0    0    0  501 -0.00000000000E+00 -0.00000000000E+00 -0.63454119644E+03  0.63454119644E+03  0.25500000000E-02 0.  1.
    8880022    1    1    2    0    0 -0.61521608710E+03  0.77072630536E+03  0.12587036889E+03  0.10058552949E+04  0.15294330000E+03 0.  0.
    8880022    1    1    2    0    0  0.61521608710E+03 -0.77072630536E+03  0.10852096941E+04  0.14743071609E+04  0.15294330000E+03 0.  0.
<mgrwt>
<rscale>  0 0.99794866E+03</rscale>
<asrwt>0</asrwt>
<pdfrwt beam="1">  1        2 0.28394173E+00 0.99794866E+03</pdfrwt>
<pdfrwt beam="2">  1       -2 0.97621723E-01 0.99794866E+03</pdfrwt>
<totfact> 0.71101526E+00</totfact>
</mgrwt>
</event>
<event>
 4    1  0.1033139E-008  0.7789493E+03  0.7818608E-02  0.9590997E-01
          2   -1    0    0  501    0  0.00000000000E+00  0.00000000000E+00  0.20620638867E+04  0.20620638867E+04  0.25500000000E-02 0. -1.
         -2   -1    0    0    0  501 -0.00000000000E+00 -0.00000000000E+00 -0.46046937101E+03  0.46046937102E+03  0.25500000000E-02 0.  1.
    8880022    1    1    2    0    0 -0.13983091282E+03 -0.75087797149E+03  0.15585848614E+04  0.17423974390E+04  0.15294330000E+03 0.  0.
    8880022    1    1    2    0    0  0.13983091282E+03  0.75087797149E+03  0.43009654261E+02  0.78013581870E+03  0.15294330000E+03 0.  0.
<mgrwt>
<rscale>  0 0.77894933E+03</rscale>
<asrwt>0</asrwt>
<pdfrwt beam="1">  1        2 0.31724061E+00 0.77894933E+03</pdfrwt>
<pdfrwt beam="2">  1       -2 0.70841439E-01 0.77894933E+03</pdfrwt>
<totfact> 0.11533644E+01</totfact>
</mgrwt>
</event>
<event>
 4    1  0.1033139E-008  0.3778276E+03  0.7818608E-02  0.1051740E+00
         -2   -1    0    0    0  501 -0.00000000000E+00  0.00000000000E+00  0.46217743275E+03  0.46217743276E+03  0.25500000000E-02 0.  1.
          2   -1    0    0  501    0  0.00000000000E+00 -0.00000000000E+00 -0.11364939922E+04  0.11364939922E+04  0.25500000000E-02 0. -1.
    8880022    1    1    2    0    0  0.26805878061E+03  0.21795985970E+03 -0.10192796541E+04  0.10870532078E+04  0.15294330000E+03 0.  0.
    8880022    1    1    2    0    0 -0.26805878061E+03 -0.21795985970E+03  0.34496309474E+03  0.51161821708E+03  0.15294330000E+03 0.  0.
<mgrwt>
<rscale>  0 0.37782756E+03</rscale>
<asrwt>0</asrwt>
<pdfrwt beam="1">  1        2 0.17484523E+00 0.37782756E+03</pdfrwt>
<pdfrwt beam="2">  1       -2 0.71104221E-01 0.37782756E+03</pdfrwt>
<totfact> 0.39761983E+01</totfact>
</mgrwt>
</event>
<event>
 4    1  0.1033139E-008  0.9895956E+03  0.7818608E-02  0.9320030E-01
          2   -1    0    0  501    0  0.00000000000E+00  0.00000000000E+00  0.23623798518E+04  0.23623798518E+04  0.25500000000E-02 0. -1.
         -2   -1    0    0    0  501 -0.00000000000E+00 -0.00000000000E+00 -0.47027922419E+03  0.47027922420E+03  0.25500000000E-02 0.  1.
    8880022    1    1    2    0    0 -0.97762303278E+03 -0.12689165575E+02  0.14336566262E+04  0.17420306496E+04  0.15294330000E+03 0.  0.
    8880022    1    1    2    0    0  0.97762303278E+03  0.12689165575E+02  0.45844400143E+03  0.10906284265E+04  0.15294330000E+03 0.  0.
<mgrwt>
<rscale>  0 0.98959561E+03</rscale>
<asrwt>0</asrwt>
<pdfrwt beam="1">  1        2 0.36344305E+00 0.98959561E+03</pdfrwt>
<pdfrwt beam="2">  1       -2 0.72350651E-01 0.98959561E+03</pdfrwt>
<totfact> 0.72927786E+00</totfact>
</mgrwt>
</event>
<event>
 4    1  0.1033139E-008  0.7470580E+03  0.7818608E-02  0.9639977E-01
         -2   -1    0    0    0  501 -0.00000000000E+00  0.00000000000E+00  0.29917123083E+03  0.29917123084E+03  0.25500000000E-02 0.  1.
          2   -1    0    0  501    0  0.00000000000E+00 -0.00000000000E+00 -0.22136319999E+04  0.22136319999E+04  0.25500000000E-02 0. -1.
    8880022    1    1    2    0    0 -0.16641441954E+03  0.71204651121E+03 -0.14555007051E+04  0.16360250453E+04  0.15294330000E+03 0.  0.
    8880022    1    1    2    0    0  0.16641441954E+03 -0.71204651121E+03 -0.45896006392E+03  0.87677818544E+03  0.15294330000E+03 0.  0.
<mgrwt>
<rscale>  0 0.74705799E+03</rscale>
<asrwt>0</asrwt>
<pdfrwt beam="1">  1        2 0.34055876E+00 0.74705799E+03</pdfrwt>
<pdfrwt beam="2">  1       -2 0.46026345E-01 0.74705799E+03</pdfrwt>
<totfact> 0.23584141E+01</totfact>
</mgrwt>
</event>
<event>
 4    1  0.1033139E-008  0.4788777E+03  0.7818608E-02  0.1019444E+00
          2   -1    0    0  501    0  0.00000000000E+00  0.00000000000E+00  0.92307109899E+03  0.92307109900E+03  0.25500000000E-02 0. -1.
         -2   -1    0    0    0  501 -0.00000000000E+00 -0.00000000000E+00 -0.36675981988E+03  0.36675981989E+03  0.25500000000E-02 0.  1.
    8880022    1    1    2    0    0  0.34883546716E+03  0.29025169681E+03  0.64446533731E+03  0.80290687795E+03  0.15294330000E+03 0.  0.
    8880022    1    1    2    0    0 -0.34883546716E+03 -0.29025169681E+03 -0.88154058199E+02  0.48692404093E+03  0.15294330000E+03 0.  0.
<mgrwt>
<rscale>  0 0.47887773E+03</rscale>
<asrwt>0</asrwt>
<pdfrwt beam="1">  1        2 0.14201094E+00 0.47887773E+03</pdfrwt>
<pdfrwt beam="2">  1       -2 0.56424588E-01 0.47887773E+03</pdfrwt>
<totfact> 0.86631091E+01</totfact>
</mgrwt>
</event>
<event>
 4    1  0.1033139E-008  0.2149015E+03  0.7818608E-02  0.1137742E+00
          2   -1    0    0  501    0  0.00000000000E+00  0.00000000000E+00  0.52451962999E+04  0.52451962999E+04  0.25500000000E-02 0. -1.
         -2   -1    0    0    0  501 -0.00000000000E+00 -0.00000000000E+00 -0.31515630868E+03  0.31515630869E+03  0.25500000000E-02 0.  1.
    8880022    1    1    2    0    0 -0.10647933325E+03 -0.10701930933E+03  0.52060853044E+04  0.52105188638E+04  0.15294330000E+03 0. -1.
    8880022    1    1    2    0    0  0.10647933325E+03  0.10701930933E+03 -0.27604531320E+03  0.34983374470E+03  0.15294330000E+03 0.  0.
<mgrwt>
<rscale>  0 0.21490145E+03</rscale>
<asrwt>0</asrwt>
<pdfrwt beam="1">  1        2 0.80695326E+00 0.21490145E+03</pdfrwt>
<pdfrwt beam="2">  1       -2 0.48485587E-01 0.21490145E+03</pdfrwt>
<totfact> 0.10771152E-01</totfact>
</mgrwt>
</event>
<event>
 4    1  0.1033139E-008  0.1287051E+04  0.7818608E-02  0.9039898E-01
         -2   -1    0    0    0  501 -0.00000000000E+00  0.00000000000E+00  0.87789627759E+03  0.87789627759E+03  0.25500000000E-02 0.  1.
          2   -1    0    0  501    0  0.00000000000E+00 -0.00000000000E+00 -0.34391364504E+04  0.34391364504E+04  0.25500000000E-02 0. -1.
    8880022    1    1    2    0    0  0.65525258580E+03  0.10971561657E+04 -0.27307606316E+04  0.30188661585E+04  0.15294330000E+03 0.  0.
    8880022    1    1    2    0    0 -0.65525258580E+03 -0.10971561657E+04  0.16952045879E+03  0.12981665694E+04  0.15294330000E+03 0.  0.
<mgrwt>
<rscale>  0 0.12870506E+04</rscale>
<asrwt>0</asrwt>
<pdfrwt beam="1">  1        2 0.52909791E+00 0.12870506E+04</pdfrwt>
<pdfrwt beam="2">  1       -2 0.13506097E+00 0.12870506E+04</pdfrwt>
<totfact> 0.34674747E-01</totfact>
</mgrwt>
</event>
<event>
 4    1  0.1033139E-008  0.9971251E+03  0.7818608E-02  0.9311704E-01
          2   -1    0    0  501    0  0.00000000000E+00  0.00000000000E+00  0.23481115710E+04  0.23481115710E+04  0.25500000000E-02 0. -1.
         -2   -1    0    0    0  501 -0.00000000000E+00 -0.00000000000E+00 -0.73831466598E+03  0.73831466598E+03  0.25500000000E-02 0.  1.
    8880022    1    1    2    0    0 -0.28554129496E+03  0.94304457883E+03  0.18127152591E+04  0.20688632561E+04  0.15294330000E+03 0.  0.
    8880022    1    1    2    0    0  0.28554129496E+03 -0.94304457883E+03 -0.20291835403E+03  0.10175629809E+04  0.15294330000E+03 0.  0.
<mgrwt>
<rscale>  0 0.99712515E+03</rscale>
<asrwt>0</asrwt>
<pdfrwt beam="1">  1        2 0.36124794E+00 0.99712515E+03</pdfrwt>
<pdfrwt beam="2">  1       -2 0.11358687E+00 0.99712515E+03</pdfrwt>
<totfact> 0.26003134E+00</totfact>
</mgrwt>
</event>
<event>
 4    1  0.1033139E-008  0.1213540E+04  0.7818608E-02  0.9101086E-01
          2   -1    0    0  501    0  0.00000000000E+00  0.00000000000E+00  0.20489625228E+04  0.20489625228E+04  0.25500000000E-02 0. -1.
         -2   -1    0    0    0  501 -0.00000000000E+00 -0.00000000000E+00 -0.15436200460E+04  0.15436200460E+04  0.25500000000E-02 0.  1.
    8880022    1    1    2    0    0 -0.37900093025E+03  0.11426491387E+04  0.15657802721E+04  0.19809967877E+04  0.15294330000E+03 0.  0.
    8880022    1    1    2    0    0  0.37900093025E+03 -0.11426491387E+04 -0.10604377953E+04  0.16115857811E+04  0.15294330000E+03 0.  0.
<mgrwt>
<rscale>  0 0.12135404E+04</rscale>
<asrwt>0</asrwt>
<pdfrwt beam="1">  1        2 0.31522500E+00 0.12135404E+04</pdfrwt>
<pdfrwt beam="2">  1       -2 0.23748001E+00 0.12135404E+04</pdfrwt>
<totfact> 0.46774887E-01</totfact>
</mgrwt>
</event>
<event>
 4    1  0.1039897E-008  0.8505510E+03  0.7818608E-02  0.9489598E-01
          2   -1    0    0  501    0  0.00000000000E+00  0.00000000000E+00  0.14785015406E+04  0.14785015406E+04  0.25500000000E-02 0. -1.
         -2   -1    0    0    0  501 -0.00000000000E+00 -0.00000000000E+00 -0.11517201447E+04  0.11517201447E+04  0.25500000000E-02 0.  1.
    8880022    1    1    2    0    0  0.29487237286E+03 -0.78300419953E+03 -0.83397466256E+03  0.11911971640E+04  0.15294330000E+03 0.  0.
    8880022    1    1    2    0    0 -0.29487237286E+03  0.78300419953E+03  0.11607560585E+04  0.14390245214E+04  0.15294330000E+03 0.  0.
<mgrwt>
<rscale>  0 0.85055097E+03</rscale>
<asrwt>0</asrwt>
<pdfrwt beam="1">  1        2 0.22746177E+00 0.85055097E+03</pdfrwt>
<pdfrwt beam="2">  1       -2 0.17718772E+00 0.85055097E+03</pdfrwt>
<totfact> 0.25074914E+00</totfact>
</mgrwt>
</event>
<event>
 4    1  0.1033139E-008  0.7442178E+03  0.7818608E-02  0.9644466E-01
         -2   -1    0    0    0  501 -0.00000000000E+00  0.00000000000E+00  0.47803483520E+03  0.47803483521E+03  0.25500000000E-02 0.  1.
          2   -1    0    0  501    0  0.00000000000E+00 -0.00000000000E+00 -0.20693345416E+04  0.20693345416E+04  0.25500000000E-02 0. -1.
    8880022    1    1    2    0    0  0.72411106025E+03 -0.78305142774E+02 -0.16406134167E+04  0.18015195139E+04  0.15294330000E+03 0.  0.
    8880022    1    1    2    0    0 -0.72411106025E+03  0.78305142774E+02  0.49313710285E+02  0.74584986290E+03  0.15294330000E+03 0.  0.
<mgrwt>
<rscale>  0 0.74421783E+03</rscale>
<asrwt>0</asrwt>
<pdfrwt beam="1">  1        2 0.31835916E+00 0.74421783E+03</pdfrwt>
<pdfrwt beam="2">  1       -2 0.73543822E-01 0.74421783E+03</pdfrwt>
<totfact> 0.10580037E+01</totfact>
</mgrwt>
</event>
<event>
 4    1  0.1033139E-008  0.7761889E+03  0.7818608E-02  0.9595137E-01
          2   -1    0    0  501    0  0.00000000000E+00  0.00000000000E+00  0.63444110310E+03  0.63444110311E+03  0.25500000000E-02 0. -1.
         -2   -1    0    0    0  501 -0.00000000000E+00 -0.00000000000E+00 -0.10192724177E+04  0.10192724177E+04  0.25500000000E-02 0.  1.
    8880022    1    1    2    0    0 -0.60828215180E+03  0.45724212622E+03  0.23754794254E+02  0.77655230439E+03  0.15294330000E+03 0.  0.
    8880022    1    1    2    0    0  0.60828215180E+03 -0.45724212622E+03 -0.40858610881E+03  0.87716121638E+03  0.15294330000E+03 0.  0.
<mgrwt>
<rscale>  0 0.77618889E+03</rscale>
<asrwt>0</asrwt>
<pdfrwt beam="1">  1        2 0.97606324E-01 0.77618889E+03</pdfrwt>
<pdfrwt beam="2">  1       -2 0.15681114E+00 0.77618889E+03</pdfrwt>
<totfact> 0.12480231E+01</totfact>
</mgrwt>
</event>
<event>
 4    1  0.1033139E-008  0.3581006E+03  0.7818608E-02  0.1059338E+00
         -2   -1    0    0    0  501 -0.00000000000E+00  0.00000000000E+00  0.26522445929E+03  0.26522445930E+03  0.25500000000E-02 0.  1.
          2   -1    0    0  501    0  0.00000000000E+00 -0.00000000000E+00 -0.11748591994E+04  0.11748591994E+04  0.25500000000E-02 0. -1.
    8880022    1    1    2    0    0 -0.32223849676E+03  0.31729278050E+02  0.97535559412E+02  0.37114583959E+03  0.15294330000E+03 0.  1.
    8880022    1    1    2    0    0  0.32223849676E+03 -0.31729278050E+02 -0.10071702995E+04  0.10689378191E+04  0.15294330000E+03 0.  0.
<mgrwt>
<rscale>  0 0.35810061E+03</rscale>
<asrwt>0</asrwt>
<pdfrwt beam="1">  1        2 0.18074757E+00 0.35810061E+03</pdfrwt>
<pdfrwt beam="2">  1       -2 0.40803764E-01 0.35810061E+03</pdfrwt>
<totfact> 0.11803065E+02</totfact>
</mgrwt>
</event>
<event>
 4    1  0.1033139E-008  0.4569809E+03  0.7818608E-02  0.1025660E+00
          2   -1    0    0  501    0  0.00000000000E+00  0.00000000000E+00  0.11721114076E+04  0.11721114076E+04  0.25500000000E-02 0. -1.
         -2   -1    0    0    0  501 -0.00000000000E+00 -0.00000000000E+00 -0.45712679268E+03  0.45712679268E+03  0.25500000000E-02 0.  1.
    8880022    1    1    2    0    0 -0.41716851350E+03 -0.10681896457E+03 -0.27887388054E+03  0.53535236444E+03  0.15294330000E+03 0.  0.
    8880022    1    1    2    0    0  0.41716851350E+03  0.10681896457E+03  0.99385849544E+03  0.10938858358E+04  0.15294330000E+03 0.  0.
<mgrwt>
<rscale>  0 0.45698087E+03</rscale>
<asrwt>0</asrwt>
<pdfrwt beam="1">  1        2 0.18032483E+00 0.45698087E+03</pdfrwt>
<pdfrwt beam="2">  1       -2 0.70327199E-01 0.45698087E+03</pdfrwt>
<totfact> 0.38262180E+01</totfact>
</mgrwt>
</event>
<event>
 4    1  0.1033139E-008  0.1660804E+04  0.7818608E-02  0.8784041E-01
         -2   -1    0    0    0  501 -0.00000000000E+00  0.00000000000E+00  0.15163640073E+04  0.15163640073E+04  0.25500000000E-02 0.  1.
          2   -1    0    0  501    0  0.00000000000E+00 -0.00000000000E+00 -0.22552609226E+04  0.22552609226E+04  0.25500000000E-02 0. -1.
    8880022    1    1    2    0    0  0.16499979162E+04  0.11128791206E+03 -0.11988637995E+04  0.20483027574E+04  0.15294330000E+03 0.  0.
    8880022    1    1    2    0    0 -0.16499979162E+04 -0.11128791206E+03  0.45996688417E+03  0.17233221726E+04  0.15294330000E+03 0.  0.
<mgrwt>
<rscale>  0 0.16608040E+04</rscale>
<asrwt>0</asrwt>
<pdfrwt beam="1">  1        2 0.34696322E+00 0.16608040E+04</pdfrwt>
<pdfrwt beam="2">  1       -2 0.23328677E+00 0.16608040E+04</pdfrwt>
<totfact> 0.36125424E-01</totfact>
</mgrwt>
</event>
<event>
 4    1  0.1033139E-008  0.2116686E+03  0.7818608E-02  0.1140251E+00
         -2   -1    0    0    0  501 -0.00000000000E+00  0.00000000000E+00  0.16121569883E+03  0.16121569885E+03  0.25500000000E-02 0.  1.
          2   -1    0    0  501    0  0.00000000000E+00 -0.00000000000E+00 -0.12995303785E+04  0.12995303785E+04  0.25500000000E-02 0. -1.
    8880022    1    1    2    0    0 -0.14627935116E+03 -0.37780285892E+01 -0.12167413698E+04  0.12350154396E+04  0.15294330000E+03 0.  0.
    8880022    1    1    2    0    0  0.14627935116E+03  0.37780285892E+01  0.78426690132E+02  0.22573063774E+03  0.15294330000E+03 0.  1.
<mgrwt>
<rscale>  0 0.21166855E+03</rscale>
<asrwt>0</asrwt>
<pdfrwt beam="1">  1        2 0.19992774E+00 0.21166855E+03</pdfrwt>
<pdfrwt beam="2">  1       -2 0.24802416E-01 0.21166855E+03</pdfrwt>
<totfact> 0.25806594E+02</totfact>
</mgrwt>
</event>
<event>
 4    1  0.1033139E-008  0.2349722E+03  0.7818608E-02  0.1123188E+00
          2   -1    0    0  501    0  0.00000000000E+00  0.00000000000E+00  0.13938745859E+04  0.13938745859E+04  0.25500000000E-02 0. -1.
         -2   -1    0    0    0  501 -0.00000000000E+00 -0.00000000000E+00 -0.80404179186E+02  0.80404179227E+02  0.25500000000E-02 0.  1.
    8880022    1    1    2    0    0  0.84406594377E+02 -0.15714904989E+03  0.11817931025E+04  0.12049260920E+04  0.15294330000E+03 0.  0.
    8880022    1    1    2    0    0 -0.84406594377E+02  0.15714904989E+03  0.13167730419E+03  0.26935267310E+03  0.15294330000E+03 0.  1.
<mgrwt>
<rscale>  0 0.23497223E+03</rscale>
<asrwt>0</asrwt>
<pdfrwt beam="1">  1        2 0.21444222E+00 0.23497223E+03</pdfrwt>
<pdfrwt beam="2">  1       -2 0.12369875E-01 0.23497223E+03</pdfrwt>
<totfact> 0.73762316E+02</totfact>
</mgrwt>
</event>
<event>
 4    1  0.1033139E-008  0.1057673E+04  0.7818608E-02  0.9247458E-01
         -2   -1    0    0    0  501 -0.00000000000E+00  0.00000000000E+00  0.71278592098E+03  0.71278592099E+03  0.25500000000E-02 0.  1.
          2   -1    0    0  501    0  0.00000000000E+00 -0.00000000000E+00 -0.28119062973E+04  0.28119062973E+04  0.25500000000E-02 0. -1.
    8880022    1    1    2    0    0 -0.20666947177E+03  0.10259473241E+04  0.12191690680E+03  0.10646762736E+04  0.15294330000E+03 0.  0.
    8880022    1    1    2    0    0  0.20666947177E+03 -0.10259473241E+04 -0.22210372831E+04  0.24600159448E+04  0.15294330000E+03 0.  0.
<mgrwt>
<rscale>  0 0.10576728E+04</rscale>
<asrwt>0</asrwt>
<pdfrwt beam="1">  1        2 0.43260096E+00 0.10576728E+04</pdfrwt>
<pdfrwt beam="2">  1       -2 0.10965937E+00 0.10576728E+04</pdfrwt>
<totfact> 0.15138519E+00</totfact>
</mgrwt>
</event>
<event>
 4    1  0.1033139E-008  0.5136342E+03  0.7818608E-02  0.1010280E+00
          2   -1    0    0  501    0  0.00000000000E+00  0.00000000000E+00  0.66697418168E+03  0.66697418168E+03  0.25500000000E-02 0. -1.
         -2   -1    0    0    0  501 -0.00000000000E+00 -0.00000000000E+00 -0.14452624527E+04  0.14452624527E+04  0.25500000000E-02 0.  1.
    8880022    1    1    2    0    0 -0.48109476709E+03 -0.94743073346E+02 -0.12892112067E+04  0.13877628088E+04  0.15294330000E+03 0.  0.
    8880022    1    1    2    0    0  0.48109476709E+03  0.94743073346E+02  0.51092293565E+03  0.72447382565E+03  0.15294330000E+03 0. -1.
<mgrwt>
<rscale>  0 0.51363419E+03</rscale>
<asrwt>0</asrwt>
<pdfrwt beam="1">  1        2 0.10261141E+00 0.51363419E+03</pdfrwt>
<pdfrwt beam="2">  1       -2 0.22234807E+00 0.51363419E+03</pdfrwt>
<totfact> 0.44283763E+00</totfact>
</mgrwt>
</event>
<event>
 4    1  0.1033139E-008  0.1437458E+04  0.7818608E-02  0.8927142E-01
          2   -1    0    0  501    0  0.00000000000E+00  0.00000000000E+00  0.99750825812E+03  0.99750825812E+03  0.25500000000E-02 0. -1.
         -2   -1    0    0    0  501 -0.00000000000E+00 -0.00000000000E+00 -0.25567339330E+04  0.25567339330E+04  0.25500000000E-02 0.  1.
    8880022    1    1    2    0    0  0.14274859658E+04 -0.71949712320E+02 -0.53757813477E+01  0.14374677373E+04  0.15294330000E+03 0.  0.
    8880022    1    1    2    0    0 -0.14274859658E+04  0.71949712320E+02 -0.15538498936E+04  0.21167744539E+04  0.15294330000E+03 0.  0.
<mgrwt>
<rscale>  0 0.14374577E+04</rscale>
<asrwt>0</asrwt>
<pdfrwt beam="1">  1        2 0.15346281E+00 0.14374577E+04</pdfrwt>
<pdfrwt beam="2">  1       -2 0.39334368E+00 0.14374577E+04</pdfrwt>
<totfact> 0.19840298E-01</totfact>
</mgrwt>
</event>
<event>
 4    1  0.1033139E-008  0.6808738E+03  0.7818608E-02  0.9750511E-01
         -2   -1    0    0    0  501 -0.00000000000E+00  0.00000000000E+00  0.24685366387E+04  0.24685366387E+04  0.25500000000E-02 0.  1.
          2   -1    0    0  501    0  0.00000000000E+00 -0.00000000000E+00 -0.37472050633E+03  0.37472050634E+03  0.25500000000E-02 0. -1.
    8880022    1    1    2    0    0 -0.42829557653E+03 -0.50671533195E+03  0.20509730664E+04  0.21610367189E+04  0.15294330000E+03 0.  0.
    8880022    1    1    2    0    0  0.42829557653E+03  0.50671533195E+03  0.42843065999E+02  0.68222042613E+03  0.15294330000E+03 0.  0.
<mgrwt>
<rscale>  0 0.68087384E+03</rscale>
<asrwt>0</asrwt>
<pdfrwt beam="1">  1        2 0.57649307E-01 0.68087384E+03</pdfrwt>
<pdfrwt beam="2">  1       -2 0.37977488E+00 0.68087384E+03</pdfrwt>
<totfact> 0.92268663E-01</totfact>
</mgrwt>
</event>
<event>
 4    1  0.1033139E-008  0.4513128E+03  0.7818608E-02  0.1027331E+00
         -2   -1    0    0    0  501 -0.00000000000E+00  0.00000000000E+00  0.28495554822E+03  0.28495554824E+03  0.25500000000E-02 0.  1.
          2   -1    0    0  501    0  0.00000000000E+00 -0.00000000000E+00 -0.28832161937E+04  0.28832161937E+04  0.25500000000E-02 0. -1.
    8880022    1    1    2    0    0 -0.23151882875E+03 -0.35593621246E+03 -0.26728954809E+04  0.27107293226E+04  0.15294330000E+03 0.  0.
    8880022    1    1    2    0    0  0.23151882875E+03  0.35593621246E+03  0.74634835383E+02  0.45744241941E+03  0.15294330000E+03 0.  0.
<mgrwt>
<rscale>  0 0.45131276E+03</rscale>
<asrwt>0</asrwt>
<pdfrwt beam="1">  1        2 0.44357170E+00 0.45131276E+03</pdfrwt>
<pdfrwt beam="2">  1       -2 0.43839317E-01 0.45131276E+03</pdfrwt>
<totfact> 0.11507724E+01</totfact>
</mgrwt>
</event>
<event>
 4    1  0.1033139E-008  0.6008964E+03  0.7818608E-02  0.9903548E-01
         -2   -1    0    0    0  501 -0.00000000000E+00  0.00000000000E+00  0.10032861006E+04  0.10032861006E+04  0.25500000000E-02 0.  1.
          2   -1    0    0  501    0  0.00000000000E+00 -0.00000000000E+00 -0.16509700584E+04  0.16509700584E+04  0.25500000000E-02 0. -1.
    8880022    1    1    2    0    0 -0.55674332918E+03 -0.16649838870E+03 -0.14974394852E+04  0.16135059693E+04  0.15294330000E+03 0.  0.
    8880022    1    1    2    0    0  0.55674332918E+03  0.16649838870E+03  0.84975552738E+03  0.10407501897E+04  0.15294330000E+03 0.  0.
<mgrwt>
<rscale>  0 0.60089641E+03</rscale>
<asrwt>0</asrwt>
<pdfrwt beam="1">  1        2 0.25399539E+00 0.60089641E+03</pdfrwt>
<pdfrwt beam="2">  1       -2 0.15435171E+00 0.60089641E+03</pdfrwt>
<totfact> 0.30711253E+00</totfact>
</mgrwt>
</event>
<event>
 4    1  0.1033139E-008  0.2379929E+03  0.7818608E-02  0.1121137E+00
          2   -1    0    0  501    0  0.00000000000E+00  0.00000000000E+00  0.60730383385E+03  0.60730383386E+03  0.25500000000E-02 0. -1.
         -2   -1    0    0    0  501 -0.00000000000E+00 -0.00000000000E+00 -0.22185323047E+03  0.22185323048E+03  0.25500000000E-02 0.  1.
    8880022    1    1    2    0    0  0.17982377447E+03 -0.30205763511E+02 -0.12290109729E+03  0.26785315146E+03  0.15294330000E+03 0.  1.
    8880022    1    1    2    0    0 -0.17982377447E+03  0.30205763511E+02  0.50835170068E+03  0.56130391288E+03  0.15294330000E+03 0.  0.
<mgrwt>
<rscale>  0 0.23799292E+03</rscale>
<asrwt>0</asrwt>
<pdfrwt beam="1">  1        2 0.93431358E-01 0.23799292E+03</pdfrwt>
<pdfrwt beam="2">  1       -2 0.34131267E-01 0.23799292E+03</pdfrwt>
<totfact> 0.40404825E+02</totfact>
</mgrwt>
</event>
<event>
 4    1  0.1033139E-008  0.1371875E+04  0.7818608E-02  0.8974432E-01
          2   -1    0    0  501    0  0.00000000000E+00  0.00000000000E+00  0.27838708563E+04  0.27838708563E+04  0.25500000000E-02 0. -1.
         -2   -1    0    0    0  501 -0.00000000000E+00 -0.00000000000E+00 -0.80808490168E+03  0.80808490169E+03  0.25500000000E-02 0.  1.
    8880022    1    1    2    0    0  0.67712026184E+03 -0.11832827987E+04  0.26193172900E+03  0.13966566917E+04  0.15294330000E+03 0.  0.
    8880022    1    1    2    0    0 -0.67712026184E+03  0.11832827987E+04  0.17138542256E+04  0.21952990663E+04  0.15294330000E+03 0.  0.
<mgrwt>
<rscale>  0 0.13718752E+04</rscale>
<asrwt>0</asrwt>
<pdfrwt beam="1">  1        2 0.42828783E+00 0.13718752E+04</pdfrwt>
<pdfrwt beam="2">  1       -2 0.12432075E+00 0.13718752E+04</pdfrwt>
<totfact> 0.11077587E+00</totfact>
</mgrwt>
</event>
<event>
 4    1  0.1033139E-008  0.1249817E+04  0.7818608E-02  0.9070335E-01
         -2   -1    0    0    0  501 -0.00000000000E+00  0.00000000000E+00  0.10028159824E+04  0.10028159824E+04  0.25500000000E-02 0.  1.
          2   -1    0    0  501    0  0.00000000000E+00 -0.00000000000E+00 -0.18749734416E+04  0.18749734416E+04  0.25500000000E-02 0. -1.
    8880022    1    1    2    0    0  0.79802488918E+03 -0.94963554672E+03 -0.10280190721E+04  0.16182911546E+04  0.15294330000E+03 0.  0.
    8880022    1    1    2    0    0 -0.79802488918E+03  0.94963554672E+03  0.15586161291E+03  0.12594982694E+04  0.15294330000E+03 0.  0.
<mgrwt>
<rscale>  0 0.12498172E+04</rscale>
<asrwt>0</asrwt>
<pdfrwt beam="1">  1        2 0.28845745E+00 0.12498172E+04</pdfrwt>
<pdfrwt beam="2">  1       -2 0.15427938E+00 0.12498172E+04</pdfrwt>
<totfact> 0.21078511E+00</totfact>
</mgrwt>
</event>
<event>
 4    1  0.1033139E-008  0.4826429E+03  0.7818608E-02  0.1018411E+00
          2   -1    0    0  501    0  0.00000000000E+00  0.00000000000E+00  0.14307318516E+04  0.14307318517E+04  0.25500000000E-02 0. -1.
         -2   -1    0    0    0  501 -0.00000000000E+00 -0.00000000000E+00 -0.53644119232E+03  0.53644119233E+03  0.25500000000E-02 0.  1.
    8880022    1    1    2    0    0 -0.43353100909E+03  0.14698098287E+03  0.12680076715E+04  0.13567562983E+04  0.15294330000E+03 0.  0.
    8880022    1    1    2    0    0  0.43353100909E+03 -0.14698098287E+03 -0.37371701215E+03  0.61041674564E+03  0.15294330000E+03 0.  0.
<mgrwt>
<rscale>  0 0.48264293E+03</rscale>
<asrwt>0</asrwt>
<pdfrwt beam="1">  1        2 0.22011259E+00 0.48264293E+03</pdfrwt>
<pdfrwt beam="2">  1       -2 0.82529415E-01 0.48264293E+03</pdfrwt>
<totfact> 0.19070712E+01</totfact>
</mgrwt>
</event>
<event>
 4    1  0.1033139E-008  0.2264047E+03  0.7818608E-02  0.1129196E+00
         -2   -1    0    0    0  501 -0.00000000000E+00  0.00000000000E+00  0.42642840856E+02  0.42642840932E+02  0.25500000000E-02 0.  1.
          2   -1    0    0  501    0  0.00000000000E+00 -0.00000000000E+00 -0.33602723435E+04  0.33602723435E+04  0.25500000000E-02 0. -1.
    8880022    1    1    2    0    0 -0.15302271996E+03  0.66719464835E+02 -0.29523245200E+03  0.37205012235E+03  0.15294330000E+03 0.  1.
    8880022    1    1    2    0    0  0.15302271996E+03 -0.66719464835E+02 -0.30223970506E+04  0.30308650621E+04  0.15294330000E+03 0.  0.
<mgrwt>
<rscale>  0 0.22640471E+03</rscale>
<asrwt>0</asrwt>
<pdfrwt beam="1">  1        2 0.51696477E+00 0.22640471E+03</pdfrwt>
<pdfrwt beam="2">  1       -2 0.65604397E-02 0.22640471E+03</pdfrwt>
<totfact> 0.16415456E+02</totfact>
</mgrwt>
</event>
<event>
 4    1  0.1033139E-008  0.9538088E+03  0.7818608E-02  0.9360710E-01
          2   -1    0    0  501    0  0.00000000000E+00  0.00000000000E+00  0.45319316217E+04  0.45319316217E+04  0.25500000000E-02 0. -1.
         -2   -1    0    0    0  501 -0.00000000000E+00 -0.00000000000E+00 -0.34754242016E+03  0.34754242017E+03  0.25500000000E-02 0.  1.
    8880022    1    1    2    0    0 -0.45299402191E+03 -0.82532175708E+03  0.50656395904E+03  0.10799806870E+04  0.15294330000E+03 0.  0.
    8880022    1    1    2    0    0  0.45299402191E+03  0.82532175708E+03  0.36778252425E+04  0.37994933549E+04  0.15294330000E+03 0.  0.
<mgrwt>
<rscale>  0 0.95380881E+03</rscale>
<asrwt>0</asrwt>
<pdfrwt beam="1">  1        2 0.69722029E+00 0.95380881E+03</pdfrwt>
<pdfrwt beam="2">  1       -2 0.53468062E-01 0.95380881E+03</pdfrwt>
<totfact> 0.41081005E-01</totfact>
</mgrwt>
</event>
<event>
 4    1  0.1033139E-008  0.7996873E+03  0.7818608E-02  0.9560470E-01
         -2   -1    0    0    0  501 -0.00000000000E+00  0.00000000000E+00  0.20235819642E+04  0.20235819642E+04  0.25500000000E-02 0.  1.
          2   -1    0    0  501    0  0.00000000000E+00 -0.00000000000E+00 -0.10357355247E+04  0.10357355247E+04  0.25500000000E-02 0. -1.
    8880022    1    1    2    0    0 -0.90921645842E+02  0.77964187191E+03 -0.78119202627E+03  0.11179270231E+04  0.15294330000E+03 0.  0.
    8880022    1    1    2    0    0  0.90921645842E+02 -0.77964187191E+03  0.17690384658E+04  0.19413904658E+04  0.15294330000E+03 0.  0.
<mgrwt>
<rscale>  0 0.79968734E+03</rscale>
<asrwt>0</asrwt>
<pdfrwt beam="1">  1        2 0.15934393E+00 0.79968734E+03</pdfrwt>
<pdfrwt beam="2">  1       -2 0.31132030E+00 0.79968734E+03</pdfrwt>
<totfact> 0.67301855E-01</totfact>
</mgrwt>
</event>
<event>
 4    1  0.1033139E-008  0.7867555E+03  0.7818608E-02  0.9579388E-01
         -2   -1    0    0    0  501 -0.00000000000E+00  0.00000000000E+00  0.57092972740E+03  0.57092972741E+03  0.25500000000E-02 0.  1.
          2   -1    0    0  501    0  0.00000000000E+00 -0.00000000000E+00 -0.14436090518E+04  0.14436090518E+04  0.25500000000E-02 0. -1.
    8880022    1    1    2    0    0 -0.96358413952E+02  0.76570724704E+03 -0.93895322755E+03  0.12249968770E+04  0.15294330000E+03 0.  0.
    8880022    1    1    2    0    0  0.96358413952E+02 -0.76570724704E+03  0.66273903149E+02  0.78954190222E+03  0.15294330000E+03 0.  0.
<mgrwt>
<rscale>  0 0.78675548E+03</rscale>
<asrwt>0</asrwt>
<pdfrwt beam="1">  1        2 0.22209370E+00 0.78675548E+03</pdfrwt>
<pdfrwt beam="2">  1       -2 0.87835343E-01 0.78675548E+03</pdfrwt>
<totfact> 0.15558292E+01</totfact>
</mgrwt>
</event>
<event>
 4    1  0.1033139E-008  0.1141492E+04  0.7818608E-02  0.9165668E-01
          2   -1    0    0  501    0  0.00000000000E+00  0.00000000000E+00  0.32275592868E+04  0.32275592868E+04  0.25500000000E-02 0. -1.
         -2   -1    0    0    0  501 -0.00000000000E+00 -0.00000000000E+00 -0.47603176835E+03  0.47603176836E+03  0.25500000000E-02 0.  1.
    8880022    1    1    2    0    0  0.11295785604E+04  0.60542119335E+02  0.20975411715E+04  0.23880292484E+04  0.15294330000E+03 0.  0.
    8880022    1    1    2    0    0 -0.11295785604E+04 -0.60542119335E+02  0.65398634691E+03  0.13155618067E+04  0.15294330000E+03 0.  0.
<mgrwt>
<rscale>  0 0.11414923E+04</rscale>
<asrwt>0</asrwt>
<pdfrwt beam="1">  1        2 0.49654759E+00 0.11414923E+04</pdfrwt>
<pdfrwt beam="2">  1       -2 0.73235656E-01 0.11414923E+04</pdfrwt>
<totfact> 0.21076739E+00</totfact>
</mgrwt>
</event>
<event>
 4    1  0.1033139E-008  0.1151231E+04  0.7818608E-02  0.9156649E-01
         -2   -1    0    0    0  501 -0.00000000000E+00  0.00000000000E+00  0.56553735651E+03  0.56553735652E+03  0.25500000000E-02 0.  1.
          2   -1    0    0  501    0  0.00000000000E+00 -0.00000000000E+00 -0.32422764797E+04  0.32422764797E+04  0.25500000000E-02 0. -1.
    8880022    1    1    2    0    0 -0.11028223664E+04 -0.29278499008E+03 -0.33595206092E+03  0.11992479570E+04  0.15294330000E+03 0.  0.
    8880022    1    1    2    0    0  0.11028223664E+04  0.29278499008E+03 -0.23407870623E+04  0.26085658792E+04  0.15294330000E+03 0.  0.
<mgrwt>
<rscale>  0 0.11512306E+04</rscale>
<asrwt>0</asrwt>
<pdfrwt beam="1">  1        2 0.49881176E+00 0.11512306E+04</pdfrwt>
<pdfrwt beam="2">  1       -2 0.87005749E-01 0.11512306E+04</pdfrwt>
<totfact> 0.13948215E+00</totfact>
</mgrwt>
</event>
<event>
 4    1  0.1083737E-008  0.1261126E+04  0.7818608E-02  0.9060973E-01
         -2   -1    0    0    0  501 -0.00000000000E+00  0.00000000000E+00  0.17849593303E+04  0.17849593303E+04  0.25500000000E-02 0.  1.
          2   -1    0    0  501    0  0.00000000000E+00 -0.00000000000E+00 -0.20372977652E+04  0.20372977652E+04  0.25500000000E-02 0. -1.
    8880022    1    1    2    0    0  0.62209679710E+03  0.10862980636E+04  0.13073616161E+04  0.18164894594E+04  0.15294330000E+03 0.  0.
    8880022    1    1    2    0    0 -0.62209679710E+03 -0.10862980636E+04 -0.15597000510E+04  0.20057676361E+04  0.15294330000E+03 0.  0.
<mgrwt>
<rscale>  0 0.12611263E+04</rscale>
<asrwt>0</asrwt>
<pdfrwt beam="1">  1        2 0.31343043E+00 0.12611263E+04</pdfrwt>
<pdfrwt beam="2">  1       -2 0.27460913E+00 0.12611263E+04</pdfrwt>
<totfact> 0.27959254E-01</totfact>
</mgrwt>
</event>
<event>
 4    1  0.1033139E-008  0.7920430E+03  0.7818608E-02  0.9571606E-01
         -2   -1    0    0    0  501 -0.00000000000E+00  0.00000000000E+00  0.18801993271E+04  0.18801993271E+04  0.25500000000E-02 0.  1.
          2   -1    0    0  501    0  0.00000000000E+00 -0.00000000000E+00 -0.72676741461E+03  0.72676741462E+03  0.25500000000E-02 0. -1.
    8880022    1    1    2    0    0  0.65423654335E+03  0.41942231719E+03  0.15353830737E+04  0.17276380902E+04  0.15294330000E+03 0.  0.
    8880022    1    1    2    0    0 -0.65423654335E+03 -0.41942231719E+03 -0.38195116119E+03  0.87932865150E+03  0.15294330000E+03 0.  0.
<mgrwt>
<rscale>  0 0.79204305E+03</rscale>
<asrwt>0</asrwt>
<pdfrwt beam="1">  1        2 0.11181037E+00 0.79204305E+03</pdfrwt>
<pdfrwt beam="2">  1       -2 0.28926144E+00 0.79204305E+03</pdfrwt>
<totfact> 0.14922674E+00</totfact>
</mgrwt>
</event>
<event>
 4    1  0.1033139E-008  0.9654926E+03  0.7818608E-02  0.9347223E-01
         -2   -1    0    0    0  501 -0.00000000000E+00  0.00000000000E+00  0.42512114237E+03  0.42512114238E+03  0.25500000000E-02 0.  1.
          2   -1    0    0  501    0  0.00000000000E+00 -0.00000000000E+00 -0.38779336989E+04  0.38779336989E+04  0.25500000000E-02 0. -1.
    8880022    1    1    2    0    0  0.29364336189E+03 -0.90694976339E+03 -0.30809068747E+03  0.10134573607E+04  0.15294330000E+03 0.  0.
    8880022    1    1    2    0    0 -0.29364336189E+03  0.90694976339E+03 -0.31447218691E+04  0.32895974806E+04  0.15294330000E+03 0.  0.
<mgrwt>
<rscale>  0 0.96549259E+03</rscale>
<asrwt>0</asrwt>
<pdfrwt beam="1">  1        2 0.59660516E+00 0.96549259E+03</pdfrwt>
<pdfrwt beam="2">  1       -2 0.65403255E-01 0.96549259E+03</pdfrwt>
<totfact> 0.97317917E-01</totfact>
</mgrwt>
</event>
<event>
 4    1  0.1033139E-008  0.7227685E+03  0.7818608E-02  0.9679068E-01
         -2   -1    0    0    0  501 -0.00000000000E+00  0.00000000000E+00  0.46217921279E+03  0.46217921280E+03  0.25500000000E-02 0.  1.
          2   -1    0    0  501    0  0.00000000000E+00 -0.00000000000E+00 -0.23749024468E+04  0.23749024468E+04  0.25500000000E-02 0. -1.
    8880022    1    1    2    0    0 -0.46838652205E+03 -0.52878798635E+03  0.70558972432E+02  0.72620444101E+03  0.15294330000E+03 0.  0.
    8880022    1    1    2    0    0  0.46838652205E+03  0.52878798635E+03 -0.19832822064E+04  0.21108772186E+04  0.15294330000E+03 0.  0.
<mgrwt>
<rscale>  0 0.72276851E+03</rscale>
<asrwt>0</asrwt>
<pdfrwt beam="1">  1        2 0.36536960E+00 0.72276851E+03</pdfrwt>
<pdfrwt beam="2">  1       -2 0.71104496E-01 0.72276851E+03</pdfrwt>
<totfact> 0.77534725E+00</totfact>
</mgrwt>
</event>
<event>
 4    1  0.1033139E-008  0.1507520E+04  0.7818608E-02  0.8879468E-01
         -2   -1    0    0    0  501 -0.00000000000E+00  0.00000000000E+00  0.79492472726E+03  0.79492472727E+03  0.25500000000E-02 0.  1.
          2   -1    0    0  501    0  0.00000000000E+00 -0.00000000000E+00 -0.33496961470E+04  0.33496961470E+04  0.25500000000E-02 0. -1.
    8880022    1    1    2    0    0  0.12034616048E+04  0.89493230430E+03 -0.20706170949E+04  0.25612634519E+04  0.15294330000E+03 0.  0.
    8880022    1    1    2    0    0 -0.12034616048E+04 -0.89493230430E+03 -0.48415432488E+03  0.15833574224E+04  0.15294330000E+03 0.  0.
<mgrwt>
<rscale>  0 0.15075196E+04</rscale>
<asrwt>0</asrwt>
<pdfrwt beam="1">  1        2 0.51533786E+00 0.15075196E+04</pdfrwt>
<pdfrwt beam="2">  1       -2 0.12229611E+00 0.15075196E+04</pdfrwt>
<totfact> 0.49884751E-01</totfact>
</mgrwt>
</event>
<event>
 4    1  0.1033139E-008  0.5447481E+03  0.7818608E-02  0.1002717E+00
          2   -1    0    0  501    0  0.00000000000E+00  0.00000000000E+00  0.28173069003E+04  0.28173069003E+04  0.25500000000E-02 0. -1.
         -2   -1    0    0    0  501 -0.00000000000E+00 -0.00000000000E+00 -0.27862304173E+03  0.27862304174E+03  0.25500000000E-02 0.  1.
    8880022    1    1    2    0    0 -0.44856019920E+03 -0.26861239619E+03  0.48550194293E+02  0.54690734688E+03  0.15294330000E+03 0.  0.
    8880022    1    1    2    0    0  0.44856019920E+03  0.26861239619E+03  0.24901336643E+04  0.25490225952E+04  0.15294330000E+03 0.  0.
<mgrwt>
<rscale>  0 0.54474813E+03</rscale>
<asrwt>0</asrwt>
<pdfrwt beam="1">  1        2 0.43343183E+00 0.54474813E+03</pdfrwt>
<pdfrwt beam="2">  1       -2 0.42865083E-01 0.54474813E+03</pdfrwt>
<totfact> 0.12826960E+01</totfact>
</mgrwt>
</event>
<event>
 4    1  0.1033139E-008  0.5755312E+03  0.7818608E-02  0.9957513E-01
          2   -1    0    0  501    0  0.00000000000E+00  0.00000000000E+00  0.20440164982E+04  0.20440164982E+04  0.25500000000E-02 0. -1.
         -2   -1    0    0    0  501 -0.00000000000E+00 -0.00000000000E+00 -0.13108313406E+04  0.13108313406E+04  0.25500000000E-02 0.  1.
    8880022    1    1    2    0    0 -0.45724623496E+03  0.31427755567E+03 -0.12037261354E+04  0.13342386456E+04  0.15294330000E+03 0.  0.
    8880022    1    1    2    0    0  0.45724623496E+03 -0.31427755567E+03  0.19369112930E+04  0.20206091932E+04  0.15294330000E+03 0.  0.
<mgrwt>
<rscale>  0 0.57553119E+03</rscale>
<asrwt>0</asrwt>
<pdfrwt beam="1">  1        2 0.31446408E+00 0.57553119E+03</pdfrwt>
<pdfrwt beam="2">  1       -2 0.20166636E+00 0.57553119E+03</pdfrwt>
<totfact> 0.89279441E-01</totfact>
</mgrwt>
</event>
<event>
 4    1  0.1033139E-008  0.7364980E+03  0.7818608E-02  0.9656774E-01
         -2   -1    0    0    0  501 -0.00000000000E+00  0.00000000000E+00  0.10552797535E+04  0.10552797535E+04  0.25500000000E-02 0.  1.
          2   -1    0    0  501    0  0.00000000000E+00 -0.00000000000E+00 -0.12830162274E+04  0.12830162274E+04  0.25500000000E-02 0. -1.
    8880022    1    1    2    0    0  0.57076324665E+03  0.43962145314E+03  0.79127435207E+03  0.10809923492E+04  0.15294330000E+03 0.  0.
    8880022    1    1    2    0    0 -0.57076324665E+03 -0.43962145314E+03 -0.10190108260E+04  0.12573036317E+04  0.15294330000E+03 0.  0.
<mgrwt>
<rscale>  0 0.73649804E+03</rscale>
<asrwt>0</asrwt>
<pdfrwt beam="1">  1        2 0.19738711E+00 0.73649804E+03</pdfrwt>
<pdfrwt beam="2">  1       -2 0.16235073E+00 0.73649804E+03</pdfrwt>
<totfact> 0.41994161E+00</totfact>
</mgrwt>
</event>
<event>
 4    1  0.1033139E-008  0.1203810E+04  0.7818608E-02  0.9109528E-01
          2   -1    0    0  501    0  0.00000000000E+00  0.00000000000E+00  0.11724225410E+04  0.11724225410E+04  0.25500000000E-02 0. -1.
         -2   -1    0    0    0  501 -0.00000000000E+00 -0.00000000000E+00 -0.23251346256E+04  0.23251346256E+04  0.25500000000E-02 0.  1.
    8880022    1    1    2    0    0  0.39888654726E+03 -0.11254586743E+04 -0.17732175163E+04  0.21432358056E+04  0.15294330000E+03 0.  0.
    8880022    1    1    2    0    0 -0.39888654726E+03  0.11254586743E+04  0.62050543168E+03  0.13543213610E+04  0.15294330000E+03 0.  0.
<mgrwt>
<rscale>  0 0.12038103E+04</rscale>
<asrwt>0</asrwt>
<pdfrwt beam="1">  1        2 0.18037270E+00 0.12038103E+04</pdfrwt>
<pdfrwt beam="2">  1       -2 0.35771302E+00 0.12038103E+04</pdfrwt>
<totfact> 0.26855235E-01</totfact>
</mgrwt>
</event>
<event>
 4    1  0.1033139E-008  0.4956533E+03  0.7818608E-02  0.1014920E+00
         -2   -1    0    0    0  501 -0.00000000000E+00  0.00000000000E+00  0.44067359255E+03  0.44067359255E+03  0.25500000000E-02 0.  1.
          2   -1    0    0  501    0  0.00000000000E+00 -0.00000000000E+00 -0.10501392260E+04  0.10501392260E+04  0.25500000000E-02 0. -1.
    8880022    1    1    2    0    0  0.27805308122E+03 -0.38074533745E+03 -0.81528192786E+03  0.95412619861E+03  0.15294330000E+03 0. -1.
    8880022    1    1    2    0    0 -0.27805308122E+03  0.38074533745E+03  0.20581629441E+03  0.53668661994E+03  0.15294330000E+03 0.  1.
<mgrwt>
<rscale>  0 0.49565329E+03</rscale>
<asrwt>0</asrwt>
<pdfrwt beam="1">  1        2 0.16155988E+00 0.49565329E+03</pdfrwt>
<pdfrwt beam="2">  1       -2 0.67795938E-01 0.49565329E+03</pdfrwt>
<totfact> 0.48738213E+01</totfact>
</mgrwt>
</event>
<event>
 4    1  0.1033139E-008  0.6922597E+03  0.7818608E-02  0.9730561E-01
          2   -1    0    0  501    0  0.00000000000E+00  0.00000000000E+00  0.92465782915E+03  0.92465782916E+03  0.25500000000E-02 0. -1.
         -2   -1    0    0    0  501 -0.00000000000E+00 -0.00000000000E+00 -0.63831081399E+03  0.63831081399E+03  0.25500000000E-02 0.  1.
    8880022    1    1    2    0    0 -0.60692125720E+03  0.29576758745E+03  0.48206951065E+03  0.84357248908E+03  0.15294330000E+03 0.  0.
    8880022    1    1    2    0    0  0.60692125720E+03 -0.29576758745E+03 -0.19572249548E+03  0.71939615406E+03  0.15294330000E+03 0.  0.
<mgrwt>
<rscale>  0 0.69225973E+03</rscale>
<asrwt>0</asrwt>
<pdfrwt beam="1">  1        2 0.14225505E+00 0.69225973E+03</pdfrwt>
<pdfrwt beam="2">  1       -2 0.98201664E-01 0.69225973E+03</pdfrwt>
<totfact> 0.24856178E+01</totfact>
</mgrwt>
</event>
<event>
 4    1  0.1033139E-008  0.5633555E+03  0.7818608E-02  0.9984491E-01
          2   -1    0    0  501    0  0.00000000000E+00  0.00000000000E+00  0.43314636804E+04  0.43314636804E+04  0.25500000000E-02 0. -1.
         -2   -1    0    0    0  501 -0.00000000000E+00 -0.00000000000E+00 -0.35190335434E+03  0.35190335435E+03  0.25500000000E-02 0.  1.
    8880022    1    1    2    0    0  0.53504372667E+03 -0.87783798826E+02  0.40734672040E+04  0.41122383807E+04  0.15294330000E+03 0.  0.
    8880022    1    1    2    0    0 -0.53504372667E+03  0.87783798826E+02 -0.93906877895E+02  0.57112865408E+03  0.15294330000E+03 0.  0.
<mgrwt>
<rscale>  0 0.56335552E+03</rscale>
<asrwt>0</asrwt>
<pdfrwt beam="1">  1        2 0.66637903E+00 0.56335552E+03</pdfrwt>
<pdfrwt beam="2">  1       -2 0.54138977E-01 0.56335552E+03</pdfrwt>
<totfact> 0.68446241E-01</totfact>
</mgrwt>
</event>
<event>
 4    1  0.1033139E-008  0.5780856E+03  0.7818608E-02  0.9951944E-01
         -2   -1    0    0    0  501 -0.00000000000E+00  0.00000000000E+00  0.41062532231E+03  0.41062532232E+03  0.25500000000E-02 0.  1.
          2   -1    0    0  501    0  0.00000000000E+00 -0.00000000000E+00 -0.13295261691E+04  0.13295261691E+04  0.25500000000E-02 0. -1.
    8880022    1    1    2    0    0 -0.28329990963E+03  0.48013801866E+03  0.82427765360E+02  0.58393265474E+03  0.15294330000E+03 0.  0.
    8880022    1    1    2    0    0  0.28329990963E+03 -0.48013801866E+03 -0.10013286122E+04  0.11562188367E+04  0.15294330000E+03 0.  0.
<mgrwt>
<rscale>  0 0.57808564E+03</rscale>
<asrwt>0</asrwt>
<pdfrwt beam="1">  1        2 0.20454249E+00 0.57808564E+03</pdfrwt>
<pdfrwt beam="2">  1       -2 0.63173127E-01 0.57808564E+03</pdfrwt>
<totfact> 0.38396201E+01</totfact>
</mgrwt>
</event>
<event>
 4    1  0.1033139E-008  0.5221374E+03  0.7818608E-02  0.1008157E+00
          2   -1    0    0  501    0  0.00000000000E+00  0.00000000000E+00  0.22882795158E+04  0.22882795158E+04  0.25500000000E-02 0. -1.
         -2   -1    0    0    0  501 -0.00000000000E+00 -0.00000000000E+00 -0.27854960495E+03  0.27854960496E+03  0.25500000000E-02 0.  1.
    8880022    1    1    2    0    0 -0.32166054524E+03  0.38179877982E+03  0.33970921476E+02  0.52324133166E+03  0.15294330000E+03 0.  0.
    8880022    1    1    2    0    0  0.32166054524E+03 -0.38179877982E+03  0.19757589894E+04  0.20435877891E+04  0.15294330000E+03 0.  0.
<mgrwt>
<rscale>  0 0.52213740E+03</rscale>
<asrwt>0</asrwt>
<pdfrwt beam="1">  1        2 0.35204301E+00 0.52213740E+03</pdfrwt>
<pdfrwt beam="2">  1       -2 0.42853784E-01 0.52213740E+03</pdfrwt>
<totfact> 0.25690624E+01</totfact>
</mgrwt>
</event>
<event>
 4    1  0.1033139E-008  0.2154258E+04  0.7818608E-02  0.8537712E-01
         -2   -1    0    0    0  501 -0.00000000000E+00  0.00000000000E+00  0.12834616507E+04  0.12834616507E+04  0.25500000000E-02 0.  1.
          2   -1    0    0  501    0  0.00000000000E+00 -0.00000000000E+00 -0.38252703313E+04  0.38252703313E+04  0.25500000000E-02 0. -1.
    8880022    1    1    2    0    0 -0.18976747229E+04  0.10081002434E+04 -0.18685495784E+04  0.28517195926E+04  0.15294330000E+03 0.  0.
    8880022    1    1    2    0    0  0.18976747229E+04 -0.10081002434E+04 -0.67325910216E+03  0.22570123895E+04  0.15294330000E+03 0.  0.
<mgrwt>
<rscale>  0 0.21542579E+04</rscale>
<asrwt>0</asrwt>
<pdfrwt beam="1">  1        2 0.58850312E+00 0.21542579E+04</pdfrwt>
<pdfrwt beam="2">  1       -2 0.19745564E+00 0.21542579E+04</pdfrwt>
<totfact> 0.57249475E-02</totfact>
</mgrwt>
</event>
<event>
 4    1  0.1033139E-008  0.8579696E+03  0.7818608E-02  0.9479702E-01
          2   -1    0    0  501    0  0.00000000000E+00  0.00000000000E+00  0.32706120588E+04  0.32706120588E+04  0.25500000000E-02 0. -1.
         -2   -1    0    0    0  501 -0.00000000000E+00 -0.00000000000E+00 -0.95953943484E+03  0.95953943485E+03  0.25500000000E-02 0.  1.
    8880022    1    1    2    0    0  0.22008897410E+03  0.81503431816E+03  0.30060053313E+04  0.31260485922E+04  0.15294330000E+03 0.  0.
    8880022    1    1    2    0    0 -0.22008897410E+03 -0.81503431816E+03 -0.69493270730E+03  0.11041029014E+04  0.15294330000E+03 0.  0.
<mgrwt>
<rscale>  0 0.85796955E+03</rscale>
<asrwt>0</asrwt>
<pdfrwt beam="1">  1        2 0.50317109E+00 0.85796955E+03</pdfrwt>
<pdfrwt beam="2">  1       -2 0.14762145E+00 0.85796955E+03</pdfrwt>
<totfact> 0.38367602E-01</totfact>
</mgrwt>
</event>
<event>
 4    1  0.1033139E-008  0.1428416E+04  0.7818608E-02  0.8933503E-01
         -2   -1    0    0    0  501 -0.00000000000E+00  0.00000000000E+00  0.12628279298E+04  0.12628279298E+04  0.25500000000E-02 0.  1.
          2   -1    0    0  501    0  0.00000000000E+00 -0.00000000000E+00 -0.26752497785E+04  0.26752497785E+04  0.25500000000E-02 0. -1.
    8880022    1    1    2    0    0  0.33265972433E+03  0.13806945198E+04 -0.19453769184E+04  0.24134752655E+04  0.15294330000E+03 0.  0.
    8880022    1    1    2    0    0 -0.33265972433E+03 -0.13806945198E+04  0.53295506970E+03  0.15246024428E+04  0.15294330000E+03 0.  0.
<mgrwt>
<rscale>  0 0.14284157E+04</rscale>
<asrwt>0</asrwt>
<pdfrwt beam="1">  1        2 0.41157689E+00 0.14284157E+04</pdfrwt>
<pdfrwt beam="2">  1       -2 0.19428122E+00 0.14284157E+04</pdfrwt>
<totfact> 0.37823822E-01</totfact>
</mgrwt>
</event>
<event>
 4    1  0.1033139E-008  0.1352082E+04  0.7818608E-02  0.8989254E-01
         -2   -1    0    0    0  501 -0.00000000000E+00  0.00000000000E+00  0.22908778295E+04  0.22908778295E+04  0.25500000000E-02 0.  1.
          2   -1    0    0  501    0  0.00000000000E+00 -0.00000000000E+00 -0.12623018957E+04  0.12623018957E+04  0.25500000000E-02 0. -1.
    8880022    1    1    2    0    0  0.13409337499E+04  0.81422429258E+02 -0.56318146563E+03  0.14646835665E+04  0.15294330000E+03 0.  0.
    8880022    1    1    2    0    0 -0.13409337499E+04 -0.81422429258E+02  0.15917573994E+04  0.20884961587E+04  0.15294330000E+03 0.  0.
<mgrwt>
<rscale>  0 0.13520816E+04</rscale>
<asrwt>0</asrwt>
<pdfrwt beam="1">  1        2 0.19420030E+00 0.13520816E+04</pdfrwt>
<pdfrwt beam="2">  1       -2 0.35244273E+00 0.13520816E+04</pdfrwt>
<totfact> 0.25115664E-01</totfact>
</mgrwt>
</event>
<event>
 4    1  0.1033139E-008  0.4534686E+03  0.7818608E-02  0.1026693E+00
          2   -1    0    0  501    0  0.00000000000E+00  0.00000000000E+00  0.20149207607E+04  0.20149207607E+04  0.25500000000E-02 0. -1.
         -2   -1    0    0    0  501 -0.00000000000E+00 -0.00000000000E+00 -0.27888261640E+03  0.27888261641E+03  0.25500000000E-02 0.  1.
    8880022    1    1    2    0    0 -0.36737976697E+03  0.21742632015E+03  0.17812695314E+04  0.18380845721E+04  0.15294330000E+03 0.  0.
    8880022    1    1    2    0    0  0.36737976697E+03 -0.21742632015E+03 -0.45231387029E+02  0.45571880503E+03  0.15294330000E+03 0.  0.
<mgrwt>
<rscale>  0 0.45346858E+03</rscale>
<asrwt>0</asrwt>
<pdfrwt beam="1">  1        2 0.30998781E+00 0.45346858E+03</pdfrwt>
<pdfrwt beam="2">  1       -2 0.42905017E-01 0.45346858E+03</pdfrwt>
<totfact> 0.36579123E+01</totfact>
</mgrwt>
</event>
<event>
 4    1  0.1033139E-008  0.5143439E+03  0.7818608E-02  0.1010101E+00
          2   -1    0    0  501    0  0.00000000000E+00  0.00000000000E+00  0.63360450362E+03  0.63360450363E+03  0.25500000000E-02 0. -1.
         -2   -1    0    0    0  501 -0.00000000000E+00 -0.00000000000E+00 -0.89956895105E+03  0.89956895106E+03  0.25500000000E-02 0.  1.
    8880022    1    1    2    0    0  0.36340584240E+02 -0.48973194876E+03  0.42817502306E+03  0.66924100524E+03  0.15294330000E+03 0.  0.
    8880022    1    1    2    0    0 -0.36340584240E+02  0.48973194876E+03 -0.69413947049E+03  0.86393244945E+03  0.15294330000E+03 0.  0.
<mgrwt>
<rscale>  0 0.51434392E+03</rscale>
<asrwt>0</asrwt>
<pdfrwt beam="1">  1        2 0.97477616E-01 0.51434392E+03</pdfrwt>
<pdfrwt beam="2">  1       -2 0.13839522E+00 0.51434392E+03</pdfrwt>
<totfact> 0.17884419E+01</totfact>
</mgrwt>
</event>
<event>
 4    1  0.1033139E-008  0.8795251E+03  0.7818608E-02  0.9451544E-01
         -2   -1    0    0    0  501 -0.00000000000E+00  0.00000000000E+00  0.39690248145E+03  0.39690248146E+03  0.25500000000E-02 0.  1.
          2   -1    0    0  501    0  0.00000000000E+00 -0.00000000000E+00 -0.37043578904E+04  0.37043578904E+04  0.25500000000E-02 0. -1.
    8880022    1    1    2    0    0  0.20063709489E+03  0.84256598365E+03 -0.24212240841E+03  0.91224316622E+03  0.15294330000E+03 0.  0.
    8880022    1    1    2    0    0 -0.20063709489E+03 -0.84256598365E+03 -0.30653330006E+04  0.31890172057E+04  0.15294330000E+03 0.  0.
<mgrwt>
<rscale>  0 0.87952506E+03</rscale>
<asrwt>0</asrwt>
<pdfrwt beam="1">  1        2 0.56990119E+00 0.87952506E+03</pdfrwt>
<pdfrwt beam="2">  1       -2 0.61061923E-01 0.87952506E+03</pdfrwt>
<totfact> 0.15422819E+00</totfact>
</mgrwt>
</event>
<event>
 4    1  0.1033139E-008  0.7289413E+03  0.7818608E-02  0.9668980E-01
          2   -1    0    0  501    0  0.00000000000E+00  0.00000000000E+00  0.22861693517E+04  0.22861693517E+04  0.25500000000E-02 0. -1.
         -2   -1    0    0    0  501 -0.00000000000E+00 -0.00000000000E+00 -0.54782699514E+03  0.54782699514E+03  0.25500000000E-02 0.  1.
    8880022    1    1    2    0    0 -0.57121213771E+03  0.42623996325E+03 -0.20601094860E+03  0.75749321878E+03  0.15294330000E+03 0.  0.
    8880022    1    1    2    0    0  0.57121213771E+03 -0.42623996325E+03  0.19443533052E+04  0.20765031281E+04  0.15294330000E+03 0.  0.
<mgrwt>
<rscale>  0 0.72894133E+03</rscale>
<asrwt>0</asrwt>
<pdfrwt beam="1">  1        2 0.35171836E+00 0.72894133E+03</pdfrwt>
<pdfrwt beam="2">  1       -2 0.84281077E-01 0.72894133E+03</pdfrwt>
<totfact> 0.59385157E+00</totfact>
</mgrwt>
</event>
<event>
 4    1  0.1033139E-008  0.1156646E+04  0.7818608E-02  0.9151674E-01
          2   -1    0    0  501    0  0.00000000000E+00  0.00000000000E+00  0.12579231145E+04  0.12579231145E+04  0.25500000000E-02 0. -1.
         -2   -1    0    0    0  501 -0.00000000000E+00 -0.00000000000E+00 -0.15547341098E+04  0.15547341098E+04  0.25500000000E-02 0.  1.
    8880022    1    1    2    0    0 -0.59734015692E+03 -0.97858239082E+03 -0.93888889501E+03  0.14897458739E+04  0.15294330000E+03 0.  0.
    8880022    1    1    2    0    0  0.59734015692E+03  0.97858239082E+03  0.64207789964E+03  0.13229113504E+04  0.15294330000E+03 0.  0.
<mgrwt>
<rscale>  0 0.11566462E+04</rscale>
<asrwt>0</asrwt>
<pdfrwt beam="1">  1        2 0.19352663E+00 0.11566462E+04</pdfrwt>
<pdfrwt beam="2">  1       -2 0.23918986E+00 0.11566462E+04</pdfrwt>
<totfact> 0.12805505E+00</totfact>
</mgrwt>
</event>
<event>
 4    1  0.1033139E-008  0.1309944E+04  0.7818608E-02  0.9021716E-01
          2   -1    0    0  501    0  0.00000000000E+00  0.00000000000E+00  0.38479152575E+04  0.38479152575E+04  0.25500000000E-02 0. -1.
         -2   -1    0    0    0  501 -0.00000000000E+00 -0.00000000000E+00 -0.58928763374E+03  0.58928763375E+03  0.25500000000E-02 0.  1.
    8880022    1    1    2    0    0  0.12275112502E+04  0.43102055355E+03  0.53509287007E+03  0.14150189467E+04  0.15294330000E+03 0.  0.
    8880022    1    1    2    0    0 -0.12275112502E+04 -0.43102055355E+03  0.27235347537E+04  0.30221839445E+04  0.15294330000E+03 0.  0.
<mgrwt>
<rscale>  0 0.13099444E+04</rscale>
<asrwt>0</asrwt>
<pdfrwt beam="1">  1        2 0.59198698E+00 0.13099444E+04</pdfrwt>
<pdfrwt beam="2">  1       -2 0.90659633E-01 0.13099444E+04</pdfrwt>
<totfact> 0.46617859E-01</totfact>
</mgrwt>
</event>
<event>
 4    1  0.1033139E-008  0.5683532E+03  0.7818608E-02  0.9973329E-01
          2   -1    0    0  501    0  0.00000000000E+00  0.00000000000E+00  0.15330904638E+04  0.15330904638E+04  0.25500000000E-02 0. -1.
         -2   -1    0    0    0  501 -0.00000000000E+00 -0.00000000000E+00 -0.65631778493E+03  0.65631778493E+03  0.25500000000E-02 0.  1.
    8880022    1    1    2    0    0 -0.31435405366E+03 -0.44812418769E+03  0.13404140768E+04  0.14559310797E+04  0.15294330000E+03 0.  0.
    8880022    1    1    2    0    0  0.31435405366E+03  0.44812418769E+03 -0.46364139789E+03  0.73347716904E+03  0.15294330000E+03 0.  0.
<mgrwt>
<rscale>  0 0.56835325E+03</rscale>
<asrwt>0</asrwt>
<pdfrwt beam="1">  1        2 0.23586007E+00 0.56835325E+03</pdfrwt>
<pdfrwt beam="2">  1       -2 0.10097197E+00 0.56835325E+03</pdfrwt>
<totfact> 0.10355671E+01</totfact>
</mgrwt>
</event>
<event>
 4    1  0.1033139E-008  0.6141685E+03  0.7818608E-02  0.9876439E-01
          2   -1    0    0  501    0  0.00000000000E+00  0.00000000000E+00  0.15100194807E+04  0.15100194807E+04  0.25500000000E-02 0. -1.
         -2   -1    0    0    0  501 -0.00000000000E+00 -0.00000000000E+00 -0.44021106508E+03  0.44021106509E+03  0.25500000000E-02 0.  1.
    8880022    1    1    2    0    0 -0.59440479989E+03  0.22231870138E+02 -0.10641092847E+03  0.62331874743E+03  0.15294330000E+03 0.  0.
    8880022    1    1    2    0    0  0.59440479989E+03 -0.22231870138E+02  0.11762193440E+04  0.13269117983E+04  0.15294330000E+03 0.  0.
<mgrwt>
<rscale>  0 0.61416852E+03</rscale>
<asrwt>0</asrwt>
<pdfrwt beam="1">  1        2 0.23231069E+00 0.61416852E+03</pdfrwt>
<pdfrwt beam="2">  1       -2 0.67724780E-01 0.61416852E+03</pdfrwt>
<totfact> 0.26082607E+01</totfact>
</mgrwt>
</event>
<event>
 4    1  0.1033139E-008  0.1682052E+04  0.7818608E-02  0.8771668E-01
          2   -1    0    0  501    0  0.00000000000E+00  0.00000000000E+00  0.25417597233E+04  0.25417597233E+04  0.25500000000E-02 0. -1.
         -2   -1    0    0    0  501 -0.00000000000E+00 -0.00000000000E+00 -0.22336261859E+04  0.22336261859E+04  0.25500000000E-02 0.  1.
    8880022    1    1    2    0    0 -0.16725997436E+04  0.91196788926E+02 -0.15370719410E+04  0.22785716055E+04  0.15294330000E+03 0.  0.
    8880022    1    1    2    0    0  0.16725997436E+04 -0.91196788926E+02  0.18452054784E+04  0.24968143037E+04  0.15294330000E+03 0.  0.
<mgrwt>
<rscale>  0 0.16820518E+04</rscale>
<asrwt>0</asrwt>
<pdfrwt beam="1">  1        2 0.39103996E+00 0.16820518E+04</pdfrwt>
<pdfrwt beam="2">  1       -2 0.34363480E+00 0.16820518E+04</pdfrwt>
<totfact> 0.51502178E-02</totfact>
</mgrwt>
</event>
<event>
 4    1  0.1033139E-008  0.5777024E+03  0.7818608E-02  0.9952778E-01
         -2   -1    0    0    0  501 -0.00000000000E+00  0.00000000000E+00  0.12368438052E+04  0.12368438052E+04  0.25500000000E-02 0.  1.
          2   -1    0    0  501    0  0.00000000000E+00 -0.00000000000E+00 -0.92038451187E+03  0.92038451187E+03  0.25500000000E-02 0. -1.
    8880022    1    1    2    0    0  0.42519513401E+03  0.35994100129E+03 -0.74859357664E+03  0.94558575624E+03  0.15294330000E+03 0.  0.
    8880022    1    1    2    0    0 -0.42519513401E+03 -0.35994100129E+03  0.10650528700E+04  0.12116425609E+04  0.15294330000E+03 0.  0.
<mgrwt>
<rscale>  0 0.57770241E+03</rscale>
<asrwt>0</asrwt>
<pdfrwt beam="1">  1        2 0.14159762E+00 0.57770241E+03</pdfrwt>
<pdfrwt beam="2">  1       -2 0.19028366E+00 0.57770241E+03</pdfrwt>
<totfact> 0.46029005E+00</totfact>
</mgrwt>
</event>
<event>
 4    1  0.1033139E-008  0.7837194E+03  0.7818608E-02  0.9583886E-01
         -2   -1    0    0    0  501 -0.00000000000E+00  0.00000000000E+00  0.18490717988E+04  0.18490717988E+04  0.25500000000E-02 0.  1.
          2   -1    0    0  501    0  0.00000000000E+00 -0.00000000000E+00 -0.72177744183E+03  0.72177744183E+03  0.25500000000E-02 0. -1.
    8880022    1    1    2    0    0  0.76244430455E+03 -0.97483863659E+02 -0.38075200055E+03  0.87131404221E+03  0.15294330000E+03 0.  0.
    8880022    1    1    2    0    0 -0.76244430455E+03  0.97483863659E+02  0.15080463575E+04  0.16995351984E+04  0.15294330000E+03 0.  0.
<mgrwt>
<rscale>  0 0.78371938E+03</rscale>
<asrwt>0</asrwt>
<pdfrwt beam="1">  1        2 0.11104268E+00 0.78371938E+03</pdfrwt>
<pdfrwt beam="2">  1       -2 0.28447258E+00 0.78371938E+03</pdfrwt>
<totfact> 0.16107494E+00</totfact>
</mgrwt>
</event>
<event>
 4    1  0.1033139E-008  0.7212663E+03  0.7818608E-02  0.9681540E-01
         -2   -1    0    0    0  501 -0.00000000000E+00  0.00000000000E+00  0.75071541716E+03  0.75071541717E+03  0.25500000000E-02 0.  1.
          2   -1    0    0  501    0  0.00000000000E+00 -0.00000000000E+00 -0.10681873530E+04  0.10681873530E+04  0.25500000000E-02 0. -1.
    8880022    1    1    2    0    0  0.70145110920E+03  0.69280018323E+02  0.38027284504E+03  0.81537259534E+03  0.15294330000E+03 0.  0.
    8880022    1    1    2    0    0 -0.70145110920E+03 -0.69280018323E+02 -0.69774478087E+03  0.10035301748E+04  0.15294330000E+03 0.  0.
<mgrwt>
<rscale>  0 0.72126627E+03</rscale>
<asrwt>0</asrwt>
<pdfrwt beam="1">  1        2 0.16433652E+00 0.72126627E+03</pdfrwt>
<pdfrwt beam="2">  1       -2 0.11549468E+00 0.72126627E+03</pdfrwt>
<totfact> 0.13585755E+01</totfact>
</mgrwt>
</event>
<event>
 4    1  0.1033139E-008  0.7005952E+03  0.7818608E-02  0.9716215E-01
          2   -1    0    0  501    0  0.00000000000E+00  0.00000000000E+00  0.20328394344E+04  0.20328394344E+04  0.25500000000E-02 0. -1.
         -2   -1    0    0    0  501 -0.00000000000E+00 -0.00000000000E+00 -0.26770522732E+03  0.26770522733E+03  0.25500000000E-02 0.  1.
    8880022    1    1    2    0    0  0.30361803163E+03 -0.61258312380E+03  0.52235229042E+03  0.87389104642E+03  0.15294330000E+03 0.  0.
    8880022    1    1    2    0    0 -0.30361803163E+03  0.61258312380E+03  0.12427819167E+04  0.14266536153E+04  0.15294330000E+03 0.  0.
<mgrwt>
<rscale>  0 0.70059521E+03</rscale>
<asrwt>0</asrwt>
<pdfrwt beam="1">  1        2 0.31274452E+00 0.70059521E+03</pdfrwt>
<pdfrwt beam="2">  1       -2 0.41185421E-01 0.70059521E+03</pdfrwt>
<totfact> 0.37163057E+01</totfact>
</mgrwt>
</event>
<event>
 4    1  0.1033139E-008  0.1578185E+04  0.7818608E-02  0.8834063E-01
          2   -1    0    0  501    0  0.00000000000E+00  0.00000000000E+00  0.11489699200E+04  0.11489699200E+04  0.25500000000E-02 0. -1.
         -2   -1    0    0    0  501 -0.00000000000E+00 -0.00000000000E+00 -0.26787221239E+04  0.26787221239E+04  0.25500000000E-02 0.  1.
    8880022    1    1    2    0    0  0.12273151116E+04  0.98029248883E+03  0.71008369314E+02  0.15797815002E+04  0.15294330000E+03 0.  0.
    8880022    1    1    2    0    0 -0.12273151116E+04 -0.98029248883E+03 -0.16007605732E+04  0.22479105437E+04  0.15294330000E+03 0.  0.
<mgrwt>
<rscale>  0 0.15781848E+04</rscale>
<asrwt>0</asrwt>
<pdfrwt beam="1">  1        2 0.17676460E+00 0.15781848E+04</pdfrwt>
<pdfrwt beam="2">  1       -2 0.41211109E+00 0.15781848E+04</pdfrwt>
<totfact> 0.11795905E-01</totfact>
</mgrwt>
</event>
<event>
 4    1  0.1033139E-008  0.1300836E+04  0.7818608E-02  0.9028903E-01
          2   -1    0    0  501    0  0.00000000000E+00  0.00000000000E+00  0.18573609254E+04  0.18573609254E+04  0.25500000000E-02 0. -1.
         -2   -1    0    0    0  501 -0.00000000000E+00 -0.00000000000E+00 -0.15359984918E+04  0.15359984918E+04  0.25500000000E-02 0.  1.
    8880022    1    1    2    0    0  0.11832410748E+04 -0.51838400008E+03 -0.92155489133E+03  0.15941883463E+04  0.15294330000E+03 0.  0.
    8880022    1    1    2    0    0 -0.11832410748E+04  0.51838400008E+03  0.12429173249E+04  0.17991710709E+04  0.15294330000E+03 0.  0.
<mgrwt>
<rscale>  0 0.13008355E+04</rscale>
<asrwt>0</asrwt>
<pdfrwt beam="1">  1        2 0.28574783E+00 0.13008355E+04</pdfrwt>
<pdfrwt beam="2">  1       -2 0.23630746E+00 0.13008355E+04</pdfrwt>
<totfact> 0.60070516E-01</totfact>
</mgrwt>
</event>
<event>
 4    1  0.1033139E-008  0.3914548E+03  0.7818608E-02  0.1046779E+00
         -2   -1    0    0    0  501 -0.00000000000E+00  0.00000000000E+00  0.88062942107E+03  0.88062942107E+03  0.25500000000E-02 0.  1.
          2   -1    0    0  501    0  0.00000000000E+00 -0.00000000000E+00 -0.58285101799E+03  0.58285101800E+03  0.25500000000E-02 0. -1.
    8880022    1    1    2    0    0  0.15435380126E+03 -0.32560727625E+03 -0.46396373124E+03  0.60704134228E+03  0.15294330000E+03 0. -1.
    8880022    1    1    2    0    0 -0.15435380126E+03  0.32560727625E+03  0.76174213432E+03  0.85643909680E+03  0.15294330000E+03 0.  0.
<mgrwt>
<rscale>  0 0.39145478E+03</rscale>
<asrwt>0</asrwt>
<pdfrwt beam="1">  1        2 0.89669387E-01 0.39145478E+03</pdfrwt>
<pdfrwt beam="2">  1       -2 0.13548145E+00 0.39145478E+03</pdfrwt>
<totfact> 0.21250861E+01</totfact>
</mgrwt>
</event>
<event>
 4    1  0.1033139E-008  0.3189059E+03  0.7818608E-02  0.1076154E+00
          2   -1    0    0  501    0  0.00000000000E+00  0.00000000000E+00  0.64283067248E+03  0.64283067248E+03  0.25500000000E-02 0. -1.
         -2   -1    0    0    0  501 -0.00000000000E+00 -0.00000000000E+00 -0.26338033814E+03  0.26338033816E+03  0.25500000000E-02 0.  1.
    8880022    1    1    2    0    0  0.68842334909E+02  0.27123805533E+03 -0.96599177111E+02  0.33321525141E+03  0.15294330000E+03 0.  0.
    8880022    1    1    2    0    0 -0.68842334909E+02 -0.27123805533E+03  0.47604951144E+03  0.57299575923E+03  0.15294330000E+03 0.  0.
<mgrwt>
<rscale>  0 0.31890595E+03</rscale>
<asrwt>0</asrwt>
<pdfrwt beam="1">  1        2 0.98897025E-01 0.31890595E+03</pdfrwt>
<pdfrwt beam="2">  1       -2 0.40520053E-01 0.31890595E+03</pdfrwt>
<totfact> 0.27140824E+02</totfact>
</mgrwt>
</event>
<event>
 4    1  0.1033139E-008  0.5824889E+03  0.7818608E-02  0.9942417E-01
         -2   -1    0    0    0  501 -0.00000000000E+00  0.00000000000E+00  0.16309447751E+03  0.16309447753E+03  0.25500000000E-02 0.  1.
          2   -1    0    0  501    0  0.00000000000E+00 -0.00000000000E+00 -0.31741608666E+04  0.31741608666E+04  0.25500000000E-02 0. -1.
    8880022    1    1    2    0    0 -0.50013130456E+03 -0.25645738167E+03 -0.52600627631E+03  0.78484136368E+03  0.15294330000E+03 0.  0.
    8880022    1    1    2    0    0  0.50013130456E+03  0.25645738167E+03 -0.24850601128E+04  0.25524139805E+04  0.15294330000E+03 0.  0.
<mgrwt>
<rscale>  0 0.58248894E+03</rscale>
<asrwt>0</asrwt>
<pdfrwt beam="1">  1        2 0.48833240E+00 0.58248894E+03</pdfrwt>
<pdfrwt beam="2">  1       -2 0.25091460E-01 0.58248894E+03</pdfrwt>
<totfact> 0.21104569E+01</totfact>
</mgrwt>
</event>
<event>
 4    1  0.1033139E-008  0.5558184E+03  0.7818608E-02  0.1000156E+00
          2   -1    0    0  501    0  0.00000000000E+00  0.00000000000E+00  0.32929920449E+04  0.32929920449E+04  0.25500000000E-02 0. -1.
         -2   -1    0    0    0  501 -0.00000000000E+00 -0.00000000000E+00 -0.36029470351E+03  0.36029470352E+03  0.25500000000E-02 0.  1.
    8880022    1    1    2    0    0 -0.58602992706E+02  0.53113852807E+03  0.30372770580E+04  0.30877153410E+04  0.15294330000E+03 0.  0.
    8880022    1    1    2    0    0  0.58602992706E+02 -0.53113852807E+03 -0.10457971664E+03  0.56557140743E+03  0.15294330000E+03 0.  0.
<mgrwt>
<rscale>  0 0.55581841E+03</rscale>
<asrwt>0</asrwt>
<pdfrwt beam="1">  1        2 0.50661416E+00 0.55581841E+03</pdfrwt>
<pdfrwt beam="2">  1       -2 0.55429955E-01 0.55581841E+03</pdfrwt>
<totfact> 0.38893768E+00</totfact>
</mgrwt>
</event>
<event>
 4    1  0.1033139E-008  0.5081248E+03  0.7818608E-02  0.1011680E+00
          2   -1    0    0  501    0  0.00000000000E+00  0.00000000000E+00  0.13656032509E+04  0.13656032509E+04  0.25500000000E-02 0. -1.
         -2   -1    0    0    0  501 -0.00000000000E+00 -0.00000000000E+00 -0.61559402586E+03  0.61559402586E+03  0.25500000000E-02 0.  1.
    8880022    1    1    2    0    0 -0.48193274737E+03  0.50398316174E+02  0.11995673244E+04  0.13027480885E+04  0.15294330000E+03 0.  0.
    8880022    1    1    2    0    0  0.48193274737E+03 -0.50398316174E+02 -0.44955809941E+03  0.67844918824E+03  0.15294330000E+03 0.  0.
<mgrwt>
<rscale>  0 0.50812480E+03</rscale>
<asrwt>0</asrwt>
<pdfrwt beam="1">  1        2 0.21009281E+00 0.50812480E+03</pdfrwt>
<pdfrwt beam="2">  1       -2 0.94706774E-01 0.50812480E+03</pdfrwt>
<totfact> 0.15068132E+01</totfact>
</mgrwt>
</event>
<event>
 4    1  0.1033139E-008  0.2067868E+03  0.7818608E-02  0.1144136E+00
          2   -1    0    0  501    0  0.00000000000E+00  0.00000000000E+00  0.97550162213E+03  0.97550162213E+03  0.25500000000E-02 0. -1.
         -2   -1    0    0    0  501 -0.00000000000E+00 -0.00000000000E+00 -0.23228696585E+04  0.23228696585E+04  0.25500000000E-02 0.  1.
    8880022    1    1    2    0    0  0.63520940172E+02  0.12383142168E+03  0.95986669342E+03  0.98188841167E+03  0.15294330000E+03 0.  0.
    8880022    1    1    2    0    0 -0.63520940172E+02 -0.12383142168E+03 -0.23072347298E+04  0.23164828689E+04  0.15294330000E+03 0.  1.
<mgrwt>
<rscale>  0 0.20678681E+03</rscale>
<asrwt>0</asrwt>
<pdfrwt beam="1">  1        2 0.15007717E+00 0.20678681E+03</pdfrwt>
<pdfrwt beam="2">  1       -2 0.35736456E+00 0.20678681E+03</pdfrwt>
<totfact> 0.48220395E-01</totfact>
</mgrwt>
</event>
<event>
 4    1  0.1033139E-008  0.1282009E+04  0.7818608E-02  0.9043955E-01
         -2   -1    0    0    0  501 -0.00000000000E+00  0.00000000000E+00  0.13120866436E+04  0.13120866436E+04  0.25500000000E-02 0.  1.
          2   -1    0    0  501    0  0.00000000000E+00 -0.00000000000E+00 -0.25710251649E+04  0.25710251649E+04  0.25500000000E-02 0. -1.
    8880022    1    1    2    0    0  0.44761878228E+03  0.11915511174E+04 -0.20198088609E+04  0.23923160592E+04  0.15294330000E+03 0.  0.
    8880022    1    1    2    0    0 -0.44761878228E+03 -0.11915511174E+04  0.76087033959E+03  0.14907957493E+04  0.15294330000E+03 0.  0.
<mgrwt>
<rscale>  0 0.12820095E+04</rscale>
<asrwt>0</asrwt>
<pdfrwt beam="1">  1        2 0.39554233E+00 0.12820095E+04</pdfrwt>
<pdfrwt beam="2">  1       -2 0.20185948E+00 0.12820095E+04</pdfrwt>
<totfact> 0.39512053E-01</totfact>
</mgrwt>
</event>
<event>
 4    1  0.1033139E-008  0.1319368E+04  0.7818608E-02  0.9014346E-01
         -2   -1    0    0    0  501 -0.00000000000E+00  0.00000000000E+00  0.12778619912E+04  0.12778619912E+04  0.25500000000E-02 0.  1.
          2   -1    0    0  501    0  0.00000000000E+00 -0.00000000000E+00 -0.17399020884E+04  0.17399020884E+04  0.25500000000E-02 0. -1.
    8880022    1    1    2    0    0  0.10236600580E+04  0.81820546082E+03  0.47197929139E+03  0.14012480847E+04  0.15294330000E+03 0.  0.
    8880022    1    1    2    0    0 -0.10236600580E+04 -0.81820546082E+03 -0.93401938866E+03  0.16165159949E+04  0.15294330000E+03 0.  0.
<mgrwt>
<rscale>  0 0.13193679E+04</rscale>
<asrwt>0</asrwt>
<pdfrwt beam="1">  1        2 0.26767724E+00 0.13193679E+04</pdfrwt>
<pdfrwt beam="2">  1       -2 0.19659415E+00 0.13193679E+04</pdfrwt>
<totfact> 0.12497779E+00</totfact>
</mgrwt>
</event>
<event>
 4    1  0.1033139E-008  0.4421055E+03  0.7818608E-02  0.1030103E+00
          2   -1    0    0  501    0  0.00000000000E+00  0.00000000000E+00  0.36596170333E+03  0.36596170334E+03  0.25500000000E-02 0. -1.
         -2   -1    0    0    0  501 -0.00000000000E+00 -0.00000000000E+00 -0.14854903231E+04  0.14854903231E+04  0.25500000000E-02 0.  1.
    8880022    1    1    2    0    0  0.25239323041E+03 -0.32918578890E+03 -0.13006116173E+04  0.13736986054E+04  0.15294330000E+03 0.  0.
    8880022    1    1    2    0    0 -0.25239323041E+03  0.32918578890E+03  0.18108299749E+03  0.47775342110E+03  0.15294330000E+03 0.  1.
<mgrwt>
<rscale>  0 0.44210551E+03</rscale>
<asrwt>0</asrwt>
<pdfrwt beam="1">  1        2 0.56301801E-01 0.44210551E+03</pdfrwt>
<pdfrwt beam="2">  1       -2 0.22853697E+00 0.44210551E+03</pdfrwt>
<totfact> 0.82092575E+00</totfact>
</mgrwt>
</event>
<event>
 4    1  0.1033139E-008  0.5678267E+03  0.7818608E-02  0.9974499E-01
         -2   -1    0    0    0  501 -0.00000000000E+00  0.00000000000E+00  0.63607732010E+03  0.63607732010E+03  0.25500000000E-02 0.  1.
          2   -1    0    0  501    0  0.00000000000E+00 -0.00000000000E+00 -0.62556894291E+03  0.62556894291E+03  0.25500000000E-02 0. -1.
    8880022    1    1    2    0    0  0.38888918236E+02 -0.54545681569E+03  0.28000555784E+03  0.63311156298E+03  0.15294330000E+03 0.  0.
    8880022    1    1    2    0    0 -0.38888918236E+02  0.54545681569E+03 -0.26949718065E+03  0.62853470003E+03  0.15294330000E+03 0.  0.
<mgrwt>
<rscale>  0 0.56782668E+03</rscale>
<asrwt>0</asrwt>
<pdfrwt beam="1">  1        2 0.96241376E-01 0.56782668E+03</pdfrwt>
<pdfrwt beam="2">  1       -2 0.97858049E-01 0.56782668E+03</pdfrwt>
<totfact> 0.42154108E+01</totfact>
</mgrwt>
</event>
<event>
 4    1  0.1033139E-008  0.1265072E+04  0.7818608E-02  0.9057731E-01
         -2   -1    0    0    0  501 -0.00000000000E+00  0.00000000000E+00  0.20719539370E+04  0.20719539370E+04  0.25500000000E-02 0.  1.
          2   -1    0    0  501    0  0.00000000000E+00 -0.00000000000E+00 -0.10460388196E+04  0.10460388196E+04  0.25500000000E-02 0. -1.
    8880022    1    1    2    0    0  0.11909763603E+04 -0.39823569271E+03  0.13103062150E+04  0.18213485081E+04  0.15294330000E+03 0.  0.
    8880022    1    1    2    0    0 -0.11909763603E+04  0.39823569271E+03 -0.28439109765E+03  0.12966442485E+04  0.15294330000E+03 0.  0.
<mgrwt>
<rscale>  0 0.12650723E+04</rscale>
<asrwt>0</asrwt>
<pdfrwt beam="1">  1        2 0.16092905E+00 0.12650723E+04</pdfrwt>
<pdfrwt beam="2">  1       -2 0.31876214E+00 0.12650723E+04</pdfrwt>
<totfact> 0.55752353E-01</totfact>
</mgrwt>
</event>
<event>
 4    1  0.1033139E-008  0.4425432E+03  0.7818608E-02  0.1029969E+00
          2   -1    0    0  501    0  0.00000000000E+00  0.00000000000E+00  0.18019131997E+04  0.18019131997E+04  0.25500000000E-02 0. -1.
         -2   -1    0    0    0  501 -0.00000000000E+00 -0.00000000000E+00 -0.23681893896E+03  0.23681893898E+03  0.25500000000E-02 0.  1.
    8880022    1    1    2    0    0 -0.29810990686E+03  0.28910785773E+03  0.15323561720E+04  0.15949796114E+04  0.15294330000E+03 0.  0.
    8880022    1    1    2    0    0  0.29810990686E+03 -0.28910785773E+03  0.32738088729E+02  0.44375252725E+03  0.15294330000E+03 0.  0.
<mgrwt>
<rscale>  0 0.44254324E+03</rscale>
<asrwt>0</asrwt>
<pdfrwt beam="1">  1        2 0.27721742E+00 0.44254324E+03</pdfrwt>
<pdfrwt beam="2">  1       -2 0.36433682E-01 0.44254324E+03</pdfrwt>
<totfact> 0.65364386E+01</totfact>
</mgrwt>
</event>
<event>
 4    1  0.1033139E-008  0.9630904E+03  0.7818608E-02  0.9349979E-01
         -2   -1    0    0    0  501 -0.00000000000E+00  0.00000000000E+00  0.35224345057E+03  0.35224345058E+03  0.25500000000E-02 0.  1.
          2   -1    0    0  501    0  0.00000000000E+00 -0.00000000000E+00 -0.34057961890E+04  0.34057961890E+04  0.25500000000E-02 0. -1.
    8880022    1    1    2    0    0  0.81301691845E+03  0.49310751956E+03 -0.63185318544E+03  0.11518600768E+04  0.15294330000E+03 0.  0.
    8880022    1    1    2    0    0 -0.81301691845E+03 -0.49310751956E+03 -0.24216995530E+04  0.26061795628E+04  0.15294330000E+03 0.  0.
<mgrwt>
<rscale>  0 0.96309044E+03</rscale>
<asrwt>0</asrwt>
<pdfrwt beam="1">  1        2 0.52396862E+00 0.96309044E+03</pdfrwt>
<pdfrwt beam="2">  1       -2 0.54191303E-01 0.96309044E+03</pdfrwt>
<totfact> 0.31510003E+00</totfact>
</mgrwt>
</event>
<event>
 4    1  0.1033139E-008  0.4979531E+03  0.7818608E-02  0.1014315E+00
          2   -1    0    0  501    0  0.00000000000E+00  0.00000000000E+00  0.43992833116E+03  0.43992833117E+03  0.25500000000E-02 0. -1.
         -2   -1    0    0    0  501 -0.00000000000E+00 -0.00000000000E+00 -0.10305588285E+04  0.10305588285E+04  0.25500000000E-02 0.  1.
    8880022    1    1    2    0    0 -0.40244956089E+03  0.25019983474E+03  0.19958732356E+03  0.53646282174E+03  0.15294330000E+03 0.  0.
    8880022    1    1    2    0    0  0.40244956089E+03 -0.25019983474E+03 -0.79021782091E+03  0.93402433794E+03  0.15294330000E+03 0.  0.
<mgrwt>
<rscale>  0 0.49795307E+03</rscale>
<asrwt>0</asrwt>
<pdfrwt beam="1">  1        2 0.67681282E-01 0.49795307E+03</pdfrwt>
<pdfrwt beam="2">  1       -2 0.15854751E+00 0.49795307E+03</pdfrwt>
<totfact> 0.19188564E+01</totfact>
</mgrwt>
</event>
<event>
 4    1  0.1033139E-008  0.2650845E+03  0.7818608E-02  0.1104126E+00
          2   -1    0    0  501    0  0.00000000000E+00  0.00000000000E+00  0.58447632461E+03  0.58447632462E+03  0.25500000000E-02 0. -1.
         -2   -1    0    0    0  501 -0.00000000000E+00 -0.00000000000E+00 -0.13927593039E+04  0.13927593039E+04  0.25500000000E-02 0.  1.
    8880022    1    1    2    0    0  0.20983089592E+03 -0.53377152414E+02 -0.13491262882E+04  0.13749223686E+04  0.15294330000E+03 0.  1.
    8880022    1    1    2    0    0 -0.20983089592E+03  0.53377152414E+02  0.54084330888E+03  0.60231325990E+03  0.15294330000E+03 0.  0.
<mgrwt>
<rscale>  0 0.26508447E+03</rscale>
<asrwt>0</asrwt>
<pdfrwt beam="1">  1        2 0.89919435E-01 0.26508447E+03</pdfrwt>
<pdfrwt beam="2">  1       -2 0.21427066E+00 0.26508447E+03</pdfrwt>
<totfact> 0.62066287E+00</totfact>
</mgrwt>
</event>
<event>
 4    1  0.1033139E-008  0.4109762E+03  0.7818608E-02  0.1040044E+00
          2   -1    0    0  501    0  0.00000000000E+00  0.00000000000E+00  0.50596599301E+03  0.50596599302E+03  0.25500000000E-02 0. -1.
         -2   -1    0    0    0  501 -0.00000000000E+00 -0.00000000000E+00 -0.12859921628E+04  0.12859921628E+04  0.25500000000E-02 0.  1.
    8880022    1    1    2    0    0  0.21962232739E+03  0.31189074856E+03 -0.11609813415E+04  0.12315758742E+04  0.15294330000E+03 0.  0.
    8880022    1    1    2    0    0 -0.21962232739E+03 -0.31189074856E+03  0.38095517165E+03  0.56038228162E+03  0.15294330000E+03 0.  0.
<mgrwt>
<rscale>  0 0.41097623E+03</rscale>
<asrwt>0</asrwt>
<pdfrwt beam="1">  1        2 0.77840922E-01 0.41097623E+03</pdfrwt>
<pdfrwt beam="2">  1       -2 0.19784495E+00 0.41097623E+03</pdfrwt>
<totfact> 0.89403390E+00</totfact>
</mgrwt>
</event>
<event>
 4    1  0.1033139E-008  0.2806988E+03  0.7818608E-02  0.1095308E+00
          2   -1    0    0  501    0  0.00000000000E+00  0.00000000000E+00  0.14493887424E+04  0.14493887424E+04  0.25500000000E-02 0. -1.
         -2   -1    0    0    0  501 -0.00000000000E+00 -0.00000000000E+00 -0.10171699984E+03  0.10171699988E+03  0.25500000000E-02 0.  1.
    8880022    1    1    2    0    0 -0.22966881935E+03 -0.51501583138E+02  0.14466363942E+03  0.31578378874E+03  0.15294330000E+03 0.  0.
    8880022    1    1    2    0    0  0.22966881935E+03  0.51501583138E+02  0.12030081031E+04  0.12353219535E+04  0.15294330000E+03 0.  0.
<mgrwt>
<rscale>  0 0.28069883E+03</rscale>
<asrwt>0</asrwt>
<pdfrwt beam="1">  1        2 0.22298288E+00 0.28069883E+03</pdfrwt>
<pdfrwt beam="2">  1       -2 0.15648769E-01 0.28069883E+03</pdfrwt>
<totfact> 0.46501955E+02</totfact>
</mgrwt>
</event>
<event>
 4    1  0.1033139E-008  0.1627577E+03  0.7818608E-02  0.1185618E+00
          2   -1    0    0  501    0  0.00000000000E+00  0.00000000000E+00  0.69375378849E+03  0.69375378849E+03  0.25500000000E-02 0. -1.
         -2   -1    0    0    0  501 -0.00000000000E+00 -0.00000000000E+00 -0.10434884864E+04  0.10434884864E+04  0.25500000000E-02 0.  1.
    8880022    1    1    2    0    0 -0.22530145952E+01  0.55617802259E+02 -0.10274479431E+04  0.10402592681E+04  0.15294330000E+03 0.  1.
    8880022    1    1    2    0    0  0.22530145952E+01 -0.55617802259E+02  0.67771324522E+03  0.69698300680E+03  0.15294330000E+03 0.  0.
<mgrwt>
<rscale>  0 0.16275770E+03</rscale>
<asrwt>0</asrwt>
<pdfrwt beam="1">  1        2 0.10673135E+00 0.16275770E+03</pdfrwt>
<pdfrwt beam="2">  1       -2 0.16053669E+00 0.16275770E+03</pdfrwt>
<totfact> 0.11912745E+01</totfact>
</mgrwt>
</event>
<event>
 4    1  0.1033139E-008  0.2938029E+03  0.7818608E-02  0.1088380E+00
         -2   -1    0    0    0  501 -0.00000000000E+00  0.00000000000E+00  0.43022153139E+03  0.43022153140E+03  0.25500000000E-02 0.  1.
          2   -1    0    0  501    0  0.00000000000E+00 -0.00000000000E+00 -0.33651792387E+03  0.33651792388E+03  0.25500000000E-02 0. -1.
    8880022    1    1    2    0    0  0.22947384901E+03  0.10134215689E+03 -0.19675329004E+03  0.35359862881E+03  0.15294330000E+03 0.  0.
    8880022    1    1    2    0    0 -0.22947384901E+03 -0.10134215689E+03  0.29045689755E+03  0.41314082647E+03  0.15294330000E+03 0.  1.
<mgrwt>
<rscale>  0 0.29380288E+03</rscale>
<asrwt>0</asrwt>
<pdfrwt beam="1">  1        2 0.51771989E-01 0.29380288E+03</pdfrwt>
<pdfrwt beam="2">  1       -2 0.66187928E-01 0.29380288E+03</pdfrwt>
<totfact> 0.20874221E+02</totfact>
</mgrwt>
</event>
<event>
 4    1  0.1033139E-008  0.7714783E+03  0.7818608E-02  0.9602244E-01
         -2   -1    0    0    0  501 -0.00000000000E+00  0.00000000000E+00  0.67745037128E+03  0.67745037129E+03  0.25500000000E-02 0.  1.
          2   -1    0    0  501    0  0.00000000000E+00 -0.00000000000E+00 -0.25267560458E+04  0.25267560458E+04  0.25500000000E-02 0. -1.
    8880022    1    1    2    0    0 -0.70084152929E+03 -0.28391607182E+03  0.36928570288E+03  0.85530741162E+03  0.15294330000E+03 0.  0.
    8880022    1    1    2    0    0  0.70084152929E+03  0.28391607182E+03 -0.22185913774E+04  0.23488990055E+04  0.15294330000E+03 0.  0.
<mgrwt>
<rscale>  0 0.77147835E+03</rscale>
<asrwt>0</asrwt>
<pdfrwt beam="1">  1        2 0.38873169E+00 0.77147835E+03</pdfrwt>
<pdfrwt beam="2">  1       -2 0.10422314E+00 0.77147835E+03</pdfrwt>
<totfact> 0.26315945E+00</totfact>
</mgrwt>
</event>
<event>
 4    1  0.1033139E-008  0.1194835E+04  0.7818608E-02  0.9117389E-01
         -2   -1    0    0    0  501 -0.00000000000E+00  0.00000000000E+00  0.80762405752E+03  0.80762405753E+03  0.25500000000E-02 0.  1.
          2   -1    0    0  501    0  0.00000000000E+00 -0.00000000000E+00 -0.19767944081E+04  0.19767944081E+04  0.25500000000E-02 0. -1.
    8880022    1    1    2    0    0  0.10192054783E+04  0.60453272963E+03 -0.13178938521E+03  0.12020814129E+04  0.15294330000E+03 0.  0.
    8880022    1    1    2    0    0 -0.10192054783E+04 -0.60453272963E+03 -0.10373809654E+04  0.15823370528E+04  0.15294330000E+03 0.  0.
<mgrwt>
<rscale>  0 0.11948353E+04</rscale>
<asrwt>0</asrwt>
<pdfrwt beam="1">  1        2 0.30412222E+00 0.11948353E+04</pdfrwt>
<pdfrwt beam="2">  1       -2 0.12424986E+00 0.11948353E+04</pdfrwt>
<totfact> 0.32707854E+00</totfact>
</mgrwt>
</event>
<event>
 4    1  0.1033139E-008  0.1066951E+04  0.7818608E-02  0.9238016E-01
         -2   -1    0    0    0  501 -0.00000000000E+00  0.00000000000E+00  0.72763170953E+03  0.72763170954E+03  0.25500000000E-02 0.  1.
          2   -1    0    0  501    0  0.00000000000E+00 -0.00000000000E+00 -0.23128651897E+04  0.23128651897E+04  0.25500000000E-02 0. -1.
    8880022    1    1    2    0    0 -0.10559294105E+04  0.24786689416E+01 -0.16573740492E+04  0.19711097016E+04  0.15294330000E+03 0.  0.
    8880022    1    1    2    0    0  0.10559294105E+04 -0.24786689416E+01  0.72140569016E+02  0.10693871977E+04  0.15294330000E+03 0.  0.
<mgrwt>
<rscale>  0 0.10669511E+04</rscale>
<asrwt>0</asrwt>
<pdfrwt beam="1">  1        2 0.35582541E+00 0.10669511E+04</pdfrwt>
<pdfrwt beam="2">  1       -2 0.11194334E+00 0.10669511E+04</pdfrwt>
<totfact> 0.27943006E+00</totfact>
</mgrwt>
</event>
<event>
 4    1  0.1033139E-008  0.1426789E+04  0.7818608E-02  0.8934652E-01
          2   -1    0    0  501    0  0.00000000000E+00  0.00000000000E+00  0.18608658734E+04  0.18608658734E+04  0.25500000000E-02 0. -1.
         -2   -1    0    0    0  501 -0.00000000000E+00 -0.00000000000E+00 -0.18527132662E+04  0.18527132662E+04  0.25500000000E-02 0.  1.
    8880022    1    1    2    0    0 -0.10848599806E+04 -0.91400978017E+03 -0.11841707189E+04  0.18541809513E+04  0.15294330000E+03 0.  0.
    8880022    1    1    2    0    0  0.10848599806E+04  0.91400978017E+03  0.11923233260E+04  0.18593981883E+04  0.15294330000E+03 0.  0.
<mgrwt>
<rscale>  0 0.14267890E+04</rscale>
<asrwt>0</asrwt>
<pdfrwt beam="1">  1        2 0.28628706E+00 0.14267890E+04</pdfrwt>
<pdfrwt beam="2">  1       -2 0.28503281E+00 0.14267890E+04</pdfrwt>
<totfact> 0.29640679E-01</totfact>
</mgrwt>
</event>
<event>
 4    1  0.1033139E-008  0.7020232E+03  0.7818608E-02  0.9713778E-01
         -2   -1    0    0    0  501 -0.00000000000E+00  0.00000000000E+00  0.73351557299E+03  0.73351557299E+03  0.25500000000E-02 0.  1.
          2   -1    0    0  501    0  0.00000000000E+00 -0.00000000000E+00 -0.98914153547E+03  0.98914153547E+03  0.25500000000E-02 0. -1.
    8880022    1    1    2    0    0 -0.43415045547E+03 -0.53005500183E+03  0.35999212967E+03  0.78894290629E+03  0.15294330000E+03 0.  0.
    8880022    1    1    2    0    0  0.43415045547E+03  0.53005500183E+03 -0.61561809215E+03  0.93371420218E+03  0.15294330000E+03 0.  0.
<mgrwt>
<rscale>  0 0.70202320E+03</rscale>
<asrwt>0</asrwt>
<pdfrwt beam="1">  1        2 0.15217562E+00 0.70202320E+03</pdfrwt>
<pdfrwt beam="2">  1       -2 0.11284855E+00 0.70202320E+03</pdfrwt>
<totfact> 0.16155263E+01</totfact>
</mgrwt>
</event>
<event>
 4    1  0.1033139E-008  0.2939062E+03  0.7818608E-02  0.1088327E+00
         -2   -1    0    0    0  501 -0.00000000000E+00  0.00000000000E+00  0.59466308884E+02  0.59466308938E+02  0.25500000000E-02 0.  1.
          2   -1    0    0  501    0  0.00000000000E+00 -0.00000000000E+00 -0.24493827604E+04  0.24493827604E+04  0.25500000000E-02 0. -1.
    8880022    1    1    2    0    0 -0.10356639474E+03 -0.22861144291E+03 -0.19951906926E+04  0.20167217813E+04  0.15294330000E+03 0. -1.
    8880022    1    1    2    0    0  0.10356639474E+03  0.22861144291E+03 -0.39472575887E+03  0.49212728809E+03  0.15294330000E+03 0.  0.
<mgrwt>
<rscale>  0 0.29390618E+03</rscale>
<asrwt>0</asrwt>
<pdfrwt beam="1">  1        2 0.37682804E+00 0.29390618E+03</pdfrwt>
<pdfrwt beam="2">  1       -2 0.91486648E-02 0.29390618E+03</pdfrwt>
<totfact> 0.32573803E+02</totfact>
</mgrwt>
</event>
<event>
 4    1  0.1033139E-008  0.1103478E+04  0.7818608E-02  0.9201809E-01
          2   -1    0    0  501    0  0.00000000000E+00  0.00000000000E+00  0.24357405354E+04  0.24357405354E+04  0.25500000000E-02 0. -1.
         -2   -1    0    0    0  501 -0.00000000000E+00 -0.00000000000E+00 -0.13655058109E+04  0.13655058109E+04  0.25500000000E-02 0.  1.
    8880022    1    1    2    0    0  0.10535272389E+04  0.29043296638E+03 -0.97811502163E+03  0.14745750573E+04  0.15294330000E+03 0.  0.
    8880022    1    1    2    0    0 -0.10535272389E+04 -0.29043296638E+03  0.20483497462E+04  0.23266712890E+04  0.15294330000E+03 0.  0.
<mgrwt>
<rscale>  0 0.11034775E+04</rscale>
<asrwt>0</asrwt>
<pdfrwt beam="1">  1        2 0.37472931E+00 0.11034775E+04</pdfrwt>
<pdfrwt beam="2">  1       -2 0.21007782E+00 0.11034775E+04</pdfrwt>
<totfact> 0.42904004E-01</totfact>
</mgrwt>
</event>
<event>
 4    1  0.1033139E-008  0.9340463E+03  0.7818608E-02  0.9383995E-01
          2   -1    0    0  501    0  0.00000000000E+00  0.00000000000E+00  0.15480145109E+04  0.15480145109E+04  0.25500000000E-02 0. -1.
         -2   -1    0    0    0  501 -0.00000000000E+00 -0.00000000000E+00 -0.88692795383E+03  0.88692795383E+03  0.25500000000E-02 0.  1.
    8880022    1    1    2    0    0 -0.88406064124E+03 -0.25978369982E+03 -0.40455296874E+03  0.10178926985E+04  0.15294330000E+03 0.  0.
    8880022    1    1    2    0    0  0.88406064124E+03  0.25978369982E+03  0.10656395258E+04  0.14170497662E+04  0.15294330000E+03 0. -1.
<mgrwt>
<rscale>  0 0.93404627E+03</rscale>
<asrwt>0</asrwt>
<pdfrwt beam="1">  1        2 0.23815608E+00 0.93404627E+03</pdfrwt>
<pdfrwt beam="2">  1       -2 0.13645045E+00 0.93404627E+03</pdfrwt>
<totfact> 0.45838455E+00</totfact>
</mgrwt>
</event>
<event>
 4    1  0.1033139E-008  0.6042250E+03  0.7818608E-02  0.9896679E-01
          2   -1    0    0  501    0  0.00000000000E+00  0.00000000000E+00  0.11505495644E+04  0.11505495644E+04  0.25500000000E-02 0. -1.
         -2   -1    0    0    0  501 -0.00000000000E+00 -0.00000000000E+00 -0.62900346688E+03  0.62900346689E+03  0.25500000000E-02 0.  1.
    8880022    1    1    2    0    0  0.40907086702E+03 -0.41756100848E+03 -0.36557260248E+03  0.70620899934E+03  0.15294330000E+03 0.  0.
    8880022    1    1    2    0    0 -0.40907086702E+03  0.41756100848E+03  0.88711870001E+03  0.10733440320E+04  0.15294330000E+03 0.  0.
<mgrwt>
<rscale>  0 0.60422498E+03</rscale>
<asrwt>0</asrwt>
<pdfrwt beam="1">  1        2 0.17700763E+00 0.60422498E+03</pdfrwt>
<pdfrwt beam="2">  1       -2 0.96769764E-01 0.60422498E+03</pdfrwt>
<totfact> 0.18779108E+01</totfact>
</mgrwt>
</event>
<event>
 4    1  0.1033139E-008  0.7403175E+03  0.7818608E-02  0.9650664E-01
          2   -1    0    0  501    0  0.00000000000E+00  0.00000000000E+00  0.59958431530E+03  0.59958431530E+03  0.25500000000E-02 0. -1.
         -2   -1    0    0    0  501 -0.00000000000E+00 -0.00000000000E+00 -0.15331743204E+04  0.15331743204E+04  0.25500000000E-02 0.  1.
    8880022    1    1    2    0    0  0.60650716833E+03  0.39601438344E+03  0.21083590893E+03  0.76975435733E+03  0.15294330000E+03 0.  0.
    8880022    1    1    2    0    0 -0.60650716833E+03 -0.39601438344E+03 -0.11444259140E+04  0.13630042783E+04  0.15294330000E+03 0.  0.
<mgrwt>
<rscale>  0 0.74031749E+03</rscale>
<asrwt>0</asrwt>
<pdfrwt beam="1">  1        2 0.92243741E-01 0.74031749E+03</pdfrwt>
<pdfrwt beam="2">  1       -2 0.23587297E+00 0.74031749E+03</pdfrwt>
<totfact> 0.40103506E+00</totfact>
</mgrwt>
</event>
<event>
 4    1  0.1033139E-008  0.5761782E+03  0.7818608E-02  0.9956100E-01
          2   -1    0    0  501    0  0.00000000000E+00  0.00000000000E+00  0.47975017399E+03  0.47975017399E+03  0.25500000000E-02 0. -1.
         -2   -1    0    0    0  501 -0.00000000000E+00 -0.00000000000E+00 -0.92922975704E+03  0.92922975704E+03  0.25500000000E-02 0.  1.
    8880022    1    1    2    0    0 -0.31064015716E+03  0.46053490817E+03  0.13122646047E+03  0.59093294529E+03  0.15294330000E+03 0.  0.
    8880022    1    1    2    0    0  0.31064015716E+03 -0.46053490817E+03 -0.58070604352E+03  0.81804698574E+03  0.15294330000E+03 0.  0.
<mgrwt>
<rscale>  0 0.57617824E+03</rscale>
<asrwt>0</asrwt>
<pdfrwt beam="1">  1        2 0.73807719E-01 0.57617824E+03</pdfrwt>
<pdfrwt beam="2">  1       -2 0.14295842E+00 0.57617824E+03</pdfrwt>
<totfact> 0.22629226E+01</totfact>
</mgrwt>
</event>
<event>
 4    1  0.1033139E-008  0.6560188E+03  0.7818608E-02  0.9795550E-01
          2   -1    0    0  501    0  0.00000000000E+00  0.00000000000E+00  0.22112529731E+04  0.22112529732E+04  0.25500000000E-02 0. -1.
         -2   -1    0    0    0  501 -0.00000000000E+00 -0.00000000000E+00 -0.32801403885E+03  0.32801403886E+03  0.25500000000E-02 0.  1.
    8880022    1    1    2    0    0 -0.58465551870E+03  0.25523898307E+03  0.13197285754E+03  0.66916179072E+03  0.15294330000E+03 0.  0.
    8880022    1    1    2    0    0  0.58465551870E+03 -0.25523898307E+03  0.17512660768E+04  0.18701052213E+04  0.15294330000E+03 0.  0.
<mgrwt>
<rscale>  0 0.65601880E+03</rscale>
<asrwt>0</asrwt>
<pdfrwt beam="1">  1        2 0.34019276E+00 0.65601880E+03</pdfrwt>
<pdfrwt beam="2">  1       -2 0.50463700E-01 0.65601880E+03</pdfrwt>
<totfact> 0.19921628E+01</totfact>
</mgrwt>
</event>
<event>
 4    1  0.1033139E-008  0.5200723E+03  0.7818608E-02  0.1008669E+00
          2   -1    0    0  501    0  0.00000000000E+00  0.00000000000E+00  0.11454738194E+04  0.11454738194E+04  0.25500000000E-02 0. -1.
         -2   -1    0    0    0  501 -0.00000000000E+00 -0.00000000000E+00 -0.29737814455E+03  0.29737814456E+03  0.25500000000E-02 0.  1.
    8880022    1    1    2    0    0  0.49256246618E+03 -0.66826019811E+02  0.96631011641E+02  0.52897325588E+03  0.15294330000E+03 0.  0.
    8880022    1    1    2    0    0 -0.49256246618E+03  0.66826019811E+02  0.75146466324E+03  0.91387870810E+03  0.15294330000E+03 0.  0.
<mgrwt>
<rscale>  0 0.52007226E+03</rscale>
<asrwt>0</asrwt>
<pdfrwt beam="1">  1        2 0.17622675E+00 0.52007226E+03</pdfrwt>
<pdfrwt beam="2">  1       -2 0.45750483E-01 0.52007226E+03</pdfrwt>
<totfact> 0.96021195E+01</totfact>
</mgrwt>
</event>
<event>
 4    1  0.1033139E-008  0.8615230E+03  0.7818608E-02  0.9475000E-01
          2   -1    0    0  501    0  0.00000000000E+00  0.00000000000E+00  0.20095874769E+04  0.20095874769E+04  0.25500000000E-02 0. -1.
         -2   -1    0    0    0  501 -0.00000000000E+00 -0.00000000000E+00 -0.43482816837E+03  0.43482816838E+03  0.25500000000E-02 0.  1.
    8880022    1    1    2    0    0  0.10349843494E+03  0.84149760347E+03  0.31306515917E+03  0.91664147276E+03  0.15294330000E+03 0.  0.
    8880022    1    1    2    0    0 -0.10349843494E+03 -0.84149760347E+03  0.12616941494E+04  0.15277741725E+04  0.15294330000E+03 0.  0.
<mgrwt>
<rscale>  0 0.86152295E+03</rscale>
<asrwt>0</asrwt>
<pdfrwt beam="1">  1        2 0.30916730E+00 0.86152295E+03</pdfrwt>
<pdfrwt beam="2">  1       -2 0.66896642E-01 0.86152295E+03</pdfrwt>
<totfact> 0.13805565E+01</totfact>
</mgrwt>
</event>
<event>
 4    1  0.1344235E-008  0.1372852E+04  0.7818608E-02  0.8973708E-01
         -2   -1    0    0    0  501 -0.00000000000E+00  0.00000000000E+00  0.14989682636E+04  0.14989682636E+04  0.25500000000E-02 0.  1.
          2   -1    0    0  501    0  0.00000000000E+00 -0.00000000000E+00 -0.32410805600E+04  0.32410805600E+04  0.25500000000E-02 0. -1.
    8880022    1    1    2    0    0  0.13236276884E+04  0.33066541604E+03  0.98311450240E+03  0.16885602307E+04  0.15294330000E+03 0.  0.
    8880022    1    1    2    0    0 -0.13236276884E+04 -0.33066541604E+03 -0.27252267988E+04  0.30514885929E+04  0.15294330000E+03 0.  0.
<mgrwt>
<rscale>  0 0.13728516E+04</rscale>
<asrwt>0</asrwt>
<pdfrwt beam="1">  1        2 0.49862778E+00 0.13728516E+04</pdfrwt>
<pdfrwt beam="2">  1       -2 0.23061050E+00 0.13728516E+04</pdfrwt>
<totfact> 0.99235911E-02</totfact>
</mgrwt>
</event>
<event>
 4    1  0.1033139E-008  0.9305821E+03  0.7818608E-02  0.9388140E-01
         -2   -1    0    0    0  501 -0.00000000000E+00  0.00000000000E+00  0.11645783645E+04  0.11645783645E+04  0.25500000000E-02 0.  1.
          2   -1    0    0  501    0  0.00000000000E+00 -0.00000000000E+00 -0.88697131739E+03  0.88697131739E+03  0.25500000000E-02 0. -1.
    8880022    1    1    2    0    0  0.62486633020E+02 -0.91579850358E+03  0.55120948436E+03  0.10815798755E+04  0.15294330000E+03 0.  0.
    8880022    1    1    2    0    0 -0.62486633020E+02  0.91579850358E+03 -0.27360243729E+03  0.96996980632E+03  0.15294330000E+03 0.  0.
<mgrwt>
<rscale>  0 0.93058215E+03</rscale>
<asrwt>0</asrwt>
<pdfrwt beam="1">  1        2 0.13645713E+00 0.93058215E+03</pdfrwt>
<pdfrwt beam="2">  1       -2 0.17916590E+00 0.93058215E+03</pdfrwt>
<totfact> 0.54913833E+00</totfact>
</mgrwt>
</event>
<event>
 4    1  0.1033139E-008  0.1367739E+04  0.7818608E-02  0.8977508E-01
          2   -1    0    0  501    0  0.00000000000E+00  0.00000000000E+00  0.45636701386E+04  0.45636701386E+04  0.25500000000E-02 0. -1.
         -2   -1    0    0    0  501 -0.00000000000E+00 -0.00000000000E+00 -0.52846585417E+03  0.52846585417E+03  0.25500000000E-02 0.  1.
    8880022    1    1    2    0    0  0.13413842033E+04 -0.21910176332E+03  0.81168602901E+03  0.15904537171E+04  0.15294330000E+03 0.  0.
    8880022    1    1    2    0    0 -0.13413842033E+04  0.21910176332E+03  0.32235182554E+04  0.35016822756E+04  0.15294330000E+03 0.  0.
<mgrwt>
<rscale>  0 0.13677386E+04</rscale>
<asrwt>0</asrwt>
<pdfrwt beam="1">  1        2 0.70210310E+00 0.13677386E+04</pdfrwt>
<pdfrwt beam="2">  1       -2 0.81302439E-01 0.13677386E+04</pdfrwt>
<totfact> 0.14268367E-01</totfact>
</mgrwt>
</event>
<event>
 4    1  0.1033139E-008  0.6226033E+03  0.7818608E-02  0.9859590E-01
         -2   -1    0    0    0  501 -0.00000000000E+00  0.00000000000E+00  0.20459236284E+03  0.20459236285E+03  0.25500000000E-02 0.  1.
          2   -1    0    0  501    0  0.00000000000E+00 -0.00000000000E+00 -0.27775352906E+04  0.27775352906E+04  0.25500000000E-02 0. -1.
    8880022    1    1    2    0    0 -0.55227793247E+03  0.24337695559E+03 -0.21271186924E+04  0.22163638785E+04  0.15294330000E+03 0.  0.
    8880022    1    1    2    0    0  0.55227793247E+03 -0.24337695559E+03 -0.44582423532E+03  0.76576377495E+03  0.15294330000E+03 0.  0.
<mgrwt>
<rscale>  0 0.62260333E+03</rscale>
<asrwt>0</asrwt>
<pdfrwt beam="1">  1        2 0.42731309E+00 0.62260333E+03</pdfrwt>
<pdfrwt beam="2">  1       -2 0.31475750E-01 0.62260333E+03</pdfrwt>
<totfact> 0.24037817E+01</totfact>
</mgrwt>
</event>
<event>
 4    1  0.1033139E-008  0.7530487E+03  0.7818608E-02  0.9630580E-01
          2   -1    0    0  501    0  0.00000000000E+00  0.00000000000E+00  0.17342937715E+04  0.17342937715E+04  0.25500000000E-02 0. -1.
         -2   -1    0    0    0  501 -0.00000000000E+00 -0.00000000000E+00 -0.71998132028E+03  0.71998132029E+03  0.25500000000E-02 0.  1.
    8880022    1    1    2    0    0 -0.26593593893E+03  0.68772720570E+03 -0.39947089787E+03  0.85244312675E+03  0.15294330000E+03 0.  0.
    8880022    1    1    2    0    0  0.26593593893E+03 -0.68772720570E+03  0.14137833491E+04  0.16018319651E+04  0.15294330000E+03 0.  0.
<mgrwt>
<rscale>  0 0.75304866E+03</rscale>
<asrwt>0</asrwt>
<pdfrwt beam="1">  1        2 0.26681443E+00 0.75304866E+03</pdfrwt>
<pdfrwt beam="2">  1       -2 0.11076636E+00 0.75304866E+03</pdfrwt>
<totfact> 0.62412466E+00</totfact>
</mgrwt>
</event>
<event>
 4    1  0.1033139E-008  0.2191530E+03  0.7818608E-02  0.1134516E+00
          2   -1    0    0  501    0  0.00000000000E+00  0.00000000000E+00  0.21634172920E+04  0.21634172920E+04  0.25500000000E-02 0. -1.
         -2   -1    0    0    0  501 -0.00000000000E+00 -0.00000000000E+00 -0.80771552756E+02  0.80771552796E+02  0.25500000000E-02 0.  1.
    8880022    1    1    2    0    0  0.62507018176E+02 -0.14397651909E+03  0.85795147026E+02  0.23534830707E+03  0.15294330000E+03 0.  0.
    8880022    1    1    2    0    0 -0.62507018176E+02  0.14397651909E+03  0.19968505923E+04  0.20088405378E+04  0.15294330000E+03 0. -1.
<mgrwt>
<rscale>  0 0.21915296E+03</rscale>
<asrwt>0</asrwt>
<pdfrwt beam="1">  1        2 0.33283341E+00 0.21915296E+03</pdfrwt>
<pdfrwt beam="2">  1       -2 0.12426393E-01 0.21915296E+03</pdfrwt>
<totfact> 0.28912985E+02</totfact>
</mgrwt>
</event>
<event>
 4    1  0.1033139E-008  0.5102063E+03  0.7818608E-02  0.1011149E+00
         -2   -1    0    0    0  501 -0.00000000000E+00  0.00000000000E+00  0.21470982466E+03  0.21470982468E+03  0.25500000000E-02 0.  1.
          2   -1    0    0  501    0  0.00000000000E+00 -0.00000000000E+00 -0.34377766264E+04  0.34377766264E+04  0.25500000000E-02 0. -1.
    8880022    1    1    2    0    0  0.14299300529E+03  0.46526530200E+03 -0.30808766110E+04  0.31228370348E+04  0.15294330000E+03 0.  0.
    8880022    1    1    2    0    0 -0.14299300529E+03 -0.46526530200E+03 -0.14219019076E+03  0.52964941629E+03  0.15294330000E+03 0.  0.
<mgrwt>
<rscale>  0 0.51020629E+03</rscale>
<asrwt>0</asrwt>
<pdfrwt beam="1">  1        2 0.52888867E+00 0.51020629E+03</pdfrwt>
<pdfrwt beam="2">  1       -2 0.33032283E-01 0.51020629E+03</pdfrwt>
<totfact> 0.87699880E+00</totfact>
</mgrwt>
</event>
<event>
 4    1  0.1033139E-008  0.4269979E+03  0.7818608E-02  0.1034813E+00
          2   -1    0    0  501    0  0.00000000000E+00  0.00000000000E+00  0.27479933350E+04  0.27479933350E+04  0.25500000000E-02 0. -1.
         -2   -1    0    0    0  501 -0.00000000000E+00 -0.00000000000E+00 -0.13352008227E+03  0.13352008230E+03  0.25500000000E-02 0.  1.
    8880022    1    1    2    0    0 -0.27642209760E+03  0.28727406860E+03  0.28533801162E+03  0.51356109707E+03  0.15294330000E+03 0.  1.
    8880022    1    1    2    0    0  0.27642209760E+03 -0.28727406860E+03  0.23291352411E+04  0.23679523203E+04  0.15294330000E+03 0.  0.
<mgrwt>
<rscale>  0 0.42699792E+03</rscale>
<asrwt>0</asrwt>
<pdfrwt beam="1">  1        2 0.42276816E+00 0.42699792E+03</pdfrwt>
<pdfrwt beam="2">  1       -2 0.20541553E-01 0.42699792E+03</pdfrwt>
<totfact> 0.56209881E+01</totfact>
</mgrwt>
</event>
<event>
 4    1  0.1033139E-008  0.9388099E+03  0.7818608E-02  0.9378327E-01
          2   -1    0    0  501    0  0.00000000000E+00  0.00000000000E+00  0.43496901912E+04  0.43496901912E+04  0.25500000000E-02 0. -1.
         -2   -1    0    0    0  501 -0.00000000000E+00 -0.00000000000E+00 -0.50665607343E+03  0.50665607343E+03  0.25500000000E-02 0.  1.
    8880022    1    1    2    0    0  0.46024444655E+03  0.80383297765E+03  0.40552200747E+02  0.93968534124E+03  0.15294330000E+03 0.  0.
    8880022    1    1    2    0    0 -0.46024444655E+03 -0.80383297765E+03  0.38024819170E+04  0.39166609234E+04  0.15294330000E+03 0.  0.
<mgrwt>
<rscale>  0 0.93880992E+03</rscale>
<asrwt>0</asrwt>
<pdfrwt beam="1">  1        2 0.66918310E+00 0.93880992E+03</pdfrwt>
<pdfrwt beam="2">  1       -2 0.77947090E-01 0.93880992E+03</pdfrwt>
<totfact> 0.27095846E-01</totfact>
</mgrwt>
</event>
<event>
 4    1  0.1033139E-008  0.1120020E+04  0.7818608E-02  0.9185895E-01
          2   -1    0    0  501    0  0.00000000000E+00  0.00000000000E+00  0.34213140604E+04  0.34213140604E+04  0.25500000000E-02 0. -1.
         -2   -1    0    0    0  501 -0.00000000000E+00 -0.00000000000E+00 -0.61567728091E+03  0.61567728091E+03  0.25500000000E-02 0.  1.
    8880022    1    1    2    0    0 -0.17966600023E+02  0.11093832648E+04  0.11910107223E+03  0.11263350946E+04  0.15294330000E+03 0.  0.
    8880022    1    1    2    0    0  0.17966600023E+02 -0.11093832648E+04  0.26865357073E+04  0.29106562467E+04  0.15294330000E+03 0.  0.
<mgrwt>
<rscale>  0 0.11200204E+04</rscale>
<asrwt>0</asrwt>
<pdfrwt beam="1">  1        2 0.52635601E+00 0.11200204E+04</pdfrwt>
<pdfrwt beam="2">  1       -2 0.94719581E-01 0.11200204E+04</pdfrwt>
<totfact> 0.87507178E-01</totfact>
</mgrwt>
</event>
<event>
 4    1  0.1033139E-008  0.3261195E+03  0.7818608E-02  0.1072867E+00
         -2   -1    0    0    0  501 -0.00000000000E+00  0.00000000000E+00  0.62132662052E+03  0.62132662052E+03  0.25500000000E-02 0.  1.
          2   -1    0    0  501    0  0.00000000000E+00 -0.00000000000E+00 -0.18843793878E+04  0.18843793878E+04  0.25500000000E-02 0. -1.
    8880022    1    1    2    0    0  0.28546730949E+03  0.38349580805E+02 -0.18261218797E+04  0.18550134899E+04  0.15294330000E+03 0.  0.
    8880022    1    1    2    0    0 -0.28546730949E+03 -0.38349580805E+02  0.56306911243E+03  0.65069251842E+03  0.15294330000E+03 0.  0.
<mgrwt>
<rscale>  0 0.32611950E+03</rscale>
<asrwt>0</asrwt>
<pdfrwt beam="1">  1        2 0.28990452E+00 0.32611950E+03</pdfrwt>
<pdfrwt beam="2">  1       -2 0.95588712E-01 0.32611950E+03</pdfrwt>
<totfact> 0.81090149E+00</totfact>
</mgrwt>
</event>
<event>
 4    1  0.1033139E-008  0.6359952E+03  0.7818608E-02  0.9833419E-01
          2   -1    0    0  501    0  0.00000000000E+00  0.00000000000E+00  0.14158172607E+04  0.14158172607E+04  0.25500000000E-02 0. -1.
         -2   -1    0    0    0  501 -0.00000000000E+00 -0.00000000000E+00 -0.37453242864E+03  0.37453242864E+03  0.25500000000E-02 0.  1.
    8880022    1    1    2    0    0  0.46464975762E+03  0.40644661471E+03  0.84664372082E+02  0.64160576429E+03  0.15294330000E+03 0.  1.
    8880022    1    1    2    0    0 -0.46464975762E+03 -0.40644661471E+03  0.95662045996E+03  0.11487439250E+04  0.15294330000E+03 0.  0.
<mgrwt>
<rscale>  0 0.63599521E+03</rscale>
<asrwt>0</asrwt>
<pdfrwt beam="1">  1        2 0.21781804E+00 0.63599521E+03</pdfrwt>
<pdfrwt beam="2">  1       -2 0.57620375E-01 0.63599521E+03</pdfrwt>
<totfact> 0.41358460E+01</totfact>
</mgrwt>
</event>
<event>
 4    1  0.1033139E-008  0.6390384E+03  0.7818608E-02  0.9827568E-01
         -2   -1    0    0    0  501 -0.00000000000E+00  0.00000000000E+00  0.28895782556E+03  0.28895782557E+03  0.25500000000E-02 0.  1.
          2   -1    0    0  501    0  0.00000000000E+00 -0.00000000000E+00 -0.14968435930E+04  0.14968435930E+04  0.25500000000E-02 0. -1.
    8880022    1    1    2    0    0 -0.59994526748E+03  0.15825325917E+03 -0.39293550576E+03  0.75017890047E+03  0.15294330000E+03 0.  0.
    8880022    1    1    2    0    0  0.59994526748E+03 -0.15825325917E+03 -0.81495026171E+03  0.10356225181E+04  0.15294330000E+03 0.  0.
<mgrwt>
<rscale>  0 0.63903840E+03</rscale>
<asrwt>0</asrwt>
<pdfrwt beam="1">  1        2 0.23028362E+00 0.63903840E+03</pdfrwt>
<pdfrwt beam="2">  1       -2 0.44455051E-01 0.63903840E+03</pdfrwt>
<totfact> 0.63187191E+01</totfact>
</mgrwt>
</event>
<event>
 4    1  0.1033139E-008  0.5737187E+03  0.7818608E-02  0.9961483E-01
         -2   -1    0    0    0  501 -0.00000000000E+00  0.00000000000E+00  0.45449671990E+03  0.45449671990E+03  0.25500000000E-02 0.  1.
          2   -1    0    0  501    0  0.00000000000E+00 -0.00000000000E+00 -0.15021695249E+04  0.15021695249E+04  0.25500000000E-02 0. -1.
    8880022    1    1    2    0    0 -0.15119858724E+03  0.53188394792E+03 -0.12278879811E+04  0.13553088556E+04  0.15294330000E+03 0. -1.
    8880022    1    1    2    0    0  0.15119858724E+03 -0.53188394792E+03  0.18021517612E+03  0.60135738921E+03  0.15294330000E+03 0.  0.
<mgrwt>
<rscale>  0 0.57371875E+03</rscale>
<asrwt>0</asrwt>
<pdfrwt beam="1">  1        2 0.23110300E+00 0.57371875E+03</pdfrwt>
<pdfrwt beam="2">  1       -2 0.69922573E-01 0.57371875E+03</pdfrwt>
<totfact> 0.24732450E+01</totfact>
</mgrwt>
</event>
<event>
 4    1  0.1033139E-008  0.1537904E+03  0.7818608E-02  0.1195891E+00
         -2   -1    0    0    0  501 -0.00000000000E+00  0.00000000000E+00  0.78165777078E+03  0.78165777078E+03  0.25500000000E-02 0.  1.
          2   -1    0    0  501    0  0.00000000000E+00 -0.00000000000E+00 -0.68645933106E+03  0.68645933106E+03  0.25500000000E-02 0. -1.
    8880022    1    1    2    0    0  0.14518554408E+02  0.70042451756E+01 -0.67009889715E+03  0.68752020541E+03  0.15294330000E+03 0. -1.
    8880022    1    1    2    0    0 -0.14518554408E+02 -0.70042451756E+01  0.76529733687E+03  0.78059689643E+03  0.15294330000E+03 0.  0.
<mgrwt>
<rscale>  0 0.15379044E+03</rscale>
<asrwt>0</asrwt>
<pdfrwt beam="1">  1        2 0.10560913E+00 0.15379044E+03</pdfrwt>
<pdfrwt beam="2">  1       -2 0.12025504E+00 0.15379044E+03</pdfrwt>
<totfact> 0.25014501E+01</totfact>
</mgrwt>
</event>
<event>
 4    1  0.1033139E-008  0.9794639E+03  0.7818608E-02  0.9331360E-01
         -2   -1    0    0    0  501 -0.00000000000E+00  0.00000000000E+00  0.48729857023E+03  0.48729857023E+03  0.25500000000E-02 0.  1.
          2   -1    0    0  501    0  0.00000000000E+00 -0.00000000000E+00 -0.24697245018E+04  0.24697245018E+04  0.25500000000E-02 0. -1.
    8880022    1    1    2    0    0 -0.26298784826E+03 -0.93101845226E+03 -0.16571383419E+04  0.19249563901E+04  0.15294330000E+03 0.  0.
    8880022    1    1    2    0    0  0.26298784826E+03  0.93101845226E+03 -0.32528758964E+03  0.10320666818E+04  0.15294330000E+03 0.  0.
<mgrwt>
<rscale>  0 0.97946395E+03</rscale>
<asrwt>0</asrwt>
<pdfrwt beam="1">  1        2 0.37995761E+00 0.97946395E+03</pdfrwt>
<pdfrwt beam="2">  1       -2 0.74969012E-01 0.97946395E+03</pdfrwt>
<totfact> 0.58673782E+00</totfact>
</mgrwt>
</event>
<event>
 4    1  0.1033139E-008  0.1061306E+04  0.7818608E-02  0.9243748E-01
          2   -1    0    0  501    0  0.00000000000E+00  0.00000000000E+00  0.82594811551E+03  0.82594811551E+03  0.25500000000E-02 0. -1.
         -2   -1    0    0    0  501 -0.00000000000E+00 -0.00000000000E+00 -0.16218366468E+04  0.16218366468E+04  0.25500000000E-02 0.  1.
    8880022    1    1    2    0    0 -0.20846729725E+03 -0.10293303872E+04 -0.88618966660E+03  0.13826436411E+04  0.15294330000E+03 0.  0.
    8880022    1    1    2    0    0  0.20846729725E+03  0.10293303872E+04  0.90301135334E+02  0.10651411212E+04  0.15294330000E+03 0.  0.
<mgrwt>
<rscale>  0 0.10613064E+04</rscale>
<asrwt>0</asrwt>
<pdfrwt beam="1">  1        2 0.12706894E+00 0.10613064E+04</pdfrwt>
<pdfrwt beam="2">  1       -2 0.24951333E+00 0.10613064E+04</pdfrwt>
<totfact> 0.21148049E+00</totfact>
</mgrwt>
</event>
<event>
 4    1  0.1033139E-008  0.7537400E+03  0.7818608E-02  0.9629501E-01
         -2   -1    0    0    0  501 -0.00000000000E+00  0.00000000000E+00  0.10144979052E+04  0.10144979052E+04  0.25500000000E-02 0.  1.
          2   -1    0    0  501    0  0.00000000000E+00 -0.00000000000E+00 -0.15279173411E+04  0.15279173411E+04  0.25500000000E-02 0. -1.
    8880022    1    1    2    0    0  0.71766765445E+03 -0.17229459477E+03  0.75506672290E+03  0.10668878567E+04  0.15294330000E+03 0.  0.
    8880022    1    1    2    0    0 -0.71766765445E+03  0.17229459477E+03 -0.12684861588E+04  0.14755273897E+04  0.15294330000E+03 0.  0.
<mgrwt>
<rscale>  0 0.75373997E+03</rscale>
<asrwt>0</asrwt>
<pdfrwt beam="1">  1        2 0.23506421E+00 0.75373997E+03</pdfrwt>
<pdfrwt beam="2">  1       -2 0.15607660E+00 0.75373997E+03</pdfrwt>
<totfact> 0.33875313E+00</totfact>
</mgrwt>
</event>
<event>
 4    1  0.1033139E-008  0.4774458E+03  0.7818608E-02  0.1019840E+00
          2   -1    0    0  501    0  0.00000000000E+00  0.00000000000E+00  0.47166524592E+03  0.47166524593E+03  0.25500000000E-02 0. -1.
         -2   -1    0    0    0  501 -0.00000000000E+00 -0.00000000000E+00 -0.15213313239E+04  0.15213313239E+04  0.25500000000E-02 0.  1.
    8880022    1    1    2    0    0 -0.22747566159E+03 -0.39091898379E+03  0.29830083076E+03  0.56297235025E+03  0.15294330000E+03 0.  0.
    8880022    1    1    2    0    0  0.22747566159E+03  0.39091898379E+03 -0.13479669087E+04  0.14300242196E+04  0.15294330000E+03 0.  0.
<mgrwt>
<rscale>  0 0.47744579E+03</rscale>
<asrwt>0</asrwt>
<pdfrwt beam="1">  1        2 0.72563885E-01 0.47744579E+03</pdfrwt>
<pdfrwt beam="2">  1       -2 0.23405097E+00 0.47744579E+03</pdfrwt>
<totfact> 0.56843801E+00</totfact>
</mgrwt>
</event>
<event>
 4    1  0.1033139E-008  0.9662020E+03  0.7818608E-02  0.9346411E-01
          2   -1    0    0  501    0  0.00000000000E+00  0.00000000000E+00  0.29538085210E+04  0.29538085210E+04  0.25500000000E-02 0. -1.
         -2   -1    0    0    0  501 -0.00000000000E+00 -0.00000000000E+00 -0.42951475862E+03  0.42951475863E+03  0.25500000000E-02 0.  1.
    8880022    1    1    2    0    0 -0.48510106596E+03  0.82148135860E+03  0.39266987077E+03  0.10429458026E+04  0.15294330000E+03 0.  0.
    8880022    1    1    2    0    0  0.48510106596E+03 -0.82148135860E+03  0.21316238916E+04  0.23403774771E+04  0.15294330000E+03 0.  0.
<mgrwt>
<rscale>  0 0.96620201E+03</rscale>
<asrwt>0</asrwt>
<pdfrwt beam="1">  1        2 0.45443208E+00 0.96620201E+03</pdfrwt>
<pdfrwt beam="2">  1       -2 0.66079193E-01 0.96620201E+03</pdfrwt>
<totfact> 0.40237922E+00</totfact>
</mgrwt>
</event>
<event>
 4    1  0.1299949E-008  0.1144884E+04  0.7818608E-02  0.9162516E-01
          2   -1    0    0  501    0  0.00000000000E+00  0.00000000000E+00  0.15282426064E+04  0.15282426064E+04  0.25500000000E-02 0. -1.
         -2   -1    0    0    0  501 -0.00000000000E+00 -0.00000000000E+00 -0.13372581384E+04  0.13372581384E+04  0.25500000000E-02 0.  1.
    8880022    1    1    2    0    0 -0.50561245034E+02  0.11334950448E+04 -0.76250888889E+03  0.13755649439E+04  0.15294330000E+03 0.  0.
    8880022    1    1    2    0    0  0.50561245034E+02 -0.11334950448E+04  0.95349335697E+03  0.14899358009E+04  0.15294330000E+03 0.  0.
<mgrwt>
<rscale>  0 0.11448839E+04</rscale>
<asrwt>0</asrwt>
<pdfrwt beam="1">  1        2 0.23511425E+00 0.11448839E+04</pdfrwt>
<pdfrwt beam="2">  1       -2 0.20573202E+00 0.11448839E+04</pdfrwt>
<totfact> 0.14575488E+00</totfact>
</mgrwt>
</event>
<event>
 4    1  0.1033139E-008  0.5327584E+03  0.7818608E-02  0.1005565E+00
         -2   -1    0    0    0  501 -0.00000000000E+00  0.00000000000E+00  0.22417513525E+04  0.22417513525E+04  0.25500000000E-02 0.  1.
          2   -1    0    0  501    0  0.00000000000E+00 -0.00000000000E+00 -0.21243783587E+03  0.21243783588E+03  0.25500000000E-02 0. -1.
    8880022    1    1    2    0    0  0.29708649370E+02  0.50946756988E+03  0.23469656293E+03  0.58216315434E+03  0.15294330000E+03 0.  0.
    8880022    1    1    2    0    0 -0.29708649370E+02 -0.50946756988E+03  0.17946169537E+04  0.18720260340E+04  0.15294330000E+03 0.  1.
<mgrwt>
<rscale>  0 0.53275835E+03</rscale>
<asrwt>0</asrwt>
<pdfrwt beam="1">  1        2 0.32682744E-01 0.53275835E+03</pdfrwt>
<pdfrwt beam="2">  1       -2 0.34488482E+00 0.53275835E+03</pdfrwt>
<totfact> 0.29498067E+00</totfact>
</mgrwt>
</event>
<event>
 4    1  0.1033139E-008  0.8201134E+03  0.7818608E-02  0.9531352E-01
         -2   -1    0    0    0  501 -0.00000000000E+00  0.00000000000E+00  0.54238927323E+03  0.54238927324E+03  0.25500000000E-02 0.  1.
          2   -1    0    0  501    0  0.00000000000E+00 -0.00000000000E+00 -0.31168690579E+04  0.31168690579E+04  0.25500000000E-02 0. -1.
    8880022    1    1    2    0    0  0.35627197571E+02  0.80493791014E+03  0.13252298009E+03  0.83075166546E+03  0.15294330000E+03 0.  0.
    8880022    1    1    2    0    0 -0.35627197571E+02 -0.80493791014E+03 -0.27070027648E+04  0.28285066657E+04  0.15294330000E+03 0.  0.
<mgrwt>
<rscale>  0 0.82011340E+03</rscale>
<asrwt>0</asrwt>
<pdfrwt beam="1">  1        2 0.47951831E+00 0.82011340E+03</pdfrwt>
<pdfrwt beam="2">  1       -2 0.83444505E-01 0.82011340E+03</pdfrwt>
<totfact> 0.19491191E+00</totfact>
</mgrwt>
</event>
<event>
 4    1  0.1033139E-008  0.1344634E+04  0.7818608E-02  0.8994900E-01
          2   -1    0    0  501    0  0.00000000000E+00  0.00000000000E+00  0.33098781081E+04  0.33098781081E+04  0.25500000000E-02 0. -1.
         -2   -1    0    0    0  501 -0.00000000000E+00 -0.00000000000E+00 -0.64420891681E+03  0.64420891681E+03  0.25500000000E-02 0.  1.
    8880022    1    1    2    0    0 -0.12403425567E+04  0.49618578315E+03  0.56191165775E+03  0.14573216370E+04  0.15294330000E+03 0.  0.
    8880022    1    1    2    0    0  0.12403425567E+04 -0.49618578315E+03  0.21037575335E+04  0.24967653879E+04  0.15294330000E+03 0.  0.
<mgrwt>
<rscale>  0 0.13446344E+04</rscale>
<asrwt>0</asrwt>
<pdfrwt beam="1">  1        2 0.50921202E+00 0.13446344E+04</pdfrwt>
<pdfrwt beam="2">  1       -2 0.99109063E-01 0.13446344E+04</pdfrwt>
<totfact> 0.90482152E-01</totfact>
</mgrwt>
</event>
<event>
 4    1  0.1033139E-008  0.6960268E+03  0.7818608E-02  0.9724051E-01
          2   -1    0    0  501    0  0.00000000000E+00  0.00000000000E+00  0.98926566550E+03  0.98926566550E+03  0.25500000000E-02 0. -1.
         -2   -1    0    0    0  501 -0.00000000000E+00 -0.00000000000E+00 -0.96663837983E+03  0.96663837983E+03  0.25500000000E-02 0.  1.
    8880022    1    1    2    0    0  0.55071575396E+03 -0.39720754366E+03  0.69824303201E+03  0.98589890920E+03  0.15294330000E+03 0. -1.
    8880022    1    1    2    0    0 -0.55071575396E+03  0.39720754366E+03 -0.67561574634E+03  0.97000513613E+03  0.15294330000E+03 0.  0.
<mgrwt>
<rscale>  0 0.69602682E+03</rscale>
<asrwt>0</asrwt>
<pdfrwt beam="1">  1        2 0.15219472E+00 0.69602682E+03</pdfrwt>
<pdfrwt beam="2">  1       -2 0.14871360E+00 0.69602682E+03</pdfrwt>
<totfact> 0.80442182E+00</totfact>
</mgrwt>
</event>
<event>
 4    1  0.1033139E-008  0.3257989E+03  0.7818608E-02  0.1073011E+00
          2   -1    0    0  501    0  0.00000000000E+00  0.00000000000E+00  0.49306651522E+03  0.49306651523E+03  0.25500000000E-02 0. -1.
         -2   -1    0    0    0  501 -0.00000000000E+00 -0.00000000000E+00 -0.12460567594E+04  0.12460567594E+04  0.25500000000E-02 0.  1.
    8880022    1    1    2    0    0  0.94465353176E+02 -0.27171594971E+03  0.41439256274E+03  0.52713006871E+03  0.15294330000E+03 0.  0.
    8880022    1    1    2    0    0 -0.94465353176E+02  0.27171594971E+03 -0.11673828069E+04  0.12119932059E+04  0.15294330000E+03 0.  1.
<mgrwt>
<rscale>  0 0.32579888E+03</rscale>
<asrwt>0</asrwt>
<pdfrwt beam="1">  1        2 0.75856387E-01 0.32579888E+03</pdfrwt>
<pdfrwt beam="2">  1       -2 0.19170104E+00 0.32579888E+03</pdfrwt>
<totfact> 0.10283581E+01</totfact>
</mgrwt>
</event>
<event>
 4    1  0.1033139E-008  0.1281341E+04  0.7818608E-02  0.9044494E-01
          2   -1    0    0  501    0  0.00000000000E+00  0.00000000000E+00  0.39532102754E+04  0.39532102754E+04  0.25500000000E-02 0. -1.
         -2   -1    0    0    0  501 -0.00000000000E+00 -0.00000000000E+00 -0.95290879276E+03  0.95290879276E+03  0.25500000000E-02 0.  1.
    8880022    1    1    2    0    0  0.17119030871E+03  0.12606100067E+04  0.33426560299E+04  0.35798302611E+04  0.15294330000E+03 0.  0.
    8880022    1    1    2    0    0 -0.17119030871E+03 -0.12606100067E+04 -0.34235454724E+03  0.13262888071E+04  0.15294330000E+03 0.  0.
<mgrwt>
<rscale>  0 0.12813412E+04</rscale>
<asrwt>0</asrwt>
<pdfrwt beam="1">  1        2 0.60818621E+00 0.12813412E+04</pdfrwt>
<pdfrwt beam="2">  1       -2 0.14660135E+00 0.12813412E+04</pdfrwt>
<totfact> 0.11791696E-01</totfact>
</mgrwt>
</event>
<event>
 4    1  0.1033139E-008  0.1113475E+04  0.7818608E-02  0.9192157E-01
          2   -1    0    0  501    0  0.00000000000E+00  0.00000000000E+00  0.18651706944E+04  0.18651706944E+04  0.25500000000E-02 0. -1.
         -2   -1    0    0    0  501 -0.00000000000E+00 -0.00000000000E+00 -0.12724566827E+04  0.12724566827E+04  0.25500000000E-02 0.  1.
    8880022    1    1    2    0    0  0.94486260487E+03 -0.56891948531E+03 -0.78783363759E+03  0.13640044781E+04  0.15294330000E+03 0.  0.
    8880022    1    1    2    0    0 -0.94486260487E+03  0.56891948531E+03  0.13805476492E+04  0.17736228990E+04  0.15294330000E+03 0.  0.
<mgrwt>
<rscale>  0 0.11134749E+04</rscale>
<asrwt>0</asrwt>
<pdfrwt beam="1">  1        2 0.28694934E+00 0.11134749E+04</pdfrwt>
<pdfrwt beam="2">  1       -2 0.19576257E+00 0.11134749E+04</pdfrwt>
<totfact> 0.11051235E+00</totfact>
</mgrwt>
</event>
<event>
 4    1  0.1033139E-008  0.7607434E+03  0.7818608E-02  0.9618645E-01
         -2   -1    0    0    0  501 -0.00000000000E+00  0.00000000000E+00  0.91386775991E+03  0.91386775992E+03  0.25500000000E-02 0.  1.
          2   -1    0    0  501    0  0.00000000000E+00 -0.00000000000E+00 -0.98532640914E+03  0.98532640914E+03  0.25500000000E-02 0. -1.
    8880022    1    1    2    0    0 -0.73958354200E+03  0.91406247820E+02 -0.60334150073E+03  0.97095393158E+03  0.15294330000E+03 0.  0.
    8880022    1    1    2    0    0  0.73958354200E+03 -0.91406247820E+02  0.53188285150E+03  0.92824023748E+03  0.15294330000E+03 0.  0.
<mgrwt>
<rscale>  0 0.76074343E+03</rscale>
<asrwt>0</asrwt>
<pdfrwt beam="1">  1        2 0.15158868E+00 0.76074343E+03</pdfrwt>
<pdfrwt beam="2">  1       -2 0.14059504E+00 0.76074343E+03</pdfrwt>
<totfact> 0.92942249E+00</totfact>
</mgrwt>
</event>
<event>
 4    1  0.1033139E-008  0.9315373E+03  0.7818608E-02  0.9386995E-01
         -2   -1    0    0    0  501 -0.00000000000E+00  0.00000000000E+00  0.81155353013E+03  0.81155353014E+03  0.25500000000E-02 0.  1.
          2   -1    0    0  501    0  0.00000000000E+00 -0.00000000000E+00 -0.16339834568E+04  0.16339834568E+04  0.25500000000E-02 0. -1.
    8880022    1    1    2    0    0 -0.86327285374E+03 -0.31484916884E+03 -0.11300650878E+04  0.14645165669E+04  0.15294330000E+03 0.  0.
    8880022    1    1    2    0    0  0.86327285374E+03  0.31484916884E+03  0.30763516113E+03  0.98102042002E+03  0.15294330000E+03 0.  0.
<mgrwt>
<rscale>  0 0.93153726E+03</rscale>
<asrwt>0</asrwt>
<pdfrwt beam="1">  1        2 0.25138207E+00 0.93153726E+03</pdfrwt>
<pdfrwt beam="2">  1       -2 0.12485439E+00 0.93153726E+03</pdfrwt>
<totfact> 0.51476484E+00</totfact>
</mgrwt>
</event>
<event>
 4    1  0.1033139E-008  0.1776566E+03  0.7818608E-02  0.1170090E+00
          2   -1    0    0  501    0  0.00000000000E+00  0.00000000000E+00  0.77081381313E+03  0.77081381314E+03  0.25500000000E-02 0. -1.
         -2   -1    0    0    0  501 -0.00000000000E+00 -0.00000000000E+00 -0.55991927954E+03  0.55991927955E+03  0.25500000000E-02 0.  1.
    8880022    1    1    2    0    0  0.55973963024E+02 -0.70972847985E+02 -0.53512874805E+03  0.56384808210E+03  0.15294330000E+03 0.  1.
    8880022    1    1    2    0    0 -0.55973963024E+02  0.70972847985E+02  0.74602328164E+03  0.76688501058E+03  0.15294330000E+03 0.  0.
<mgrwt>
<rscale>  0 0.17765664E+03</rscale>
<asrwt>0</asrwt>
<pdfrwt beam="1">  1        2 0.11858674E+00 0.17765664E+03</pdfrwt>
<pdfrwt beam="2">  1       -2 0.86141428E-01 0.17765664E+03</pdfrwt>
<totfact> 0.46707695E+01</totfact>
</mgrwt>
</event>
<event>
 4    1  0.1033139E-008  0.9293830E+03  0.7818608E-02  0.9389579E-01
          2   -1    0    0  501    0  0.00000000000E+00  0.00000000000E+00  0.26262919640E+04  0.26262919640E+04  0.25500000000E-02 0. -1.
         -2   -1    0    0    0  501 -0.00000000000E+00 -0.00000000000E+00 -0.11277556943E+04  0.11277556943E+04  0.25500000000E-02 0.  1.
    8880022    1    1    2    0    0  0.71531480759E+03  0.57331125755E+03 -0.83052430461E+03  0.12464041662E+04  0.15294330000E+03 0.  0.
    8880022    1    1    2    0    0 -0.71531480759E+03 -0.57331125755E+03  0.23290605743E+04  0.25076434921E+04  0.15294330000E+03 0.  0.
<mgrwt>
<rscale>  0 0.92938298E+03</rscale>
<asrwt>0</asrwt>
<pdfrwt beam="1">  1        2 0.40404492E+00 0.92938298E+03</pdfrwt>
<pdfrwt beam="2">  1       -2 0.17350088E+00 0.92938298E+03</pdfrwt>
<totfact> 0.60347771E-01</totfact>
</mgrwt>
</event>
<event>
 4    1  0.1033139E-008  0.8726076E+03  0.7818608E-02  0.9460486E-01
          2   -1    0    0  501    0  0.00000000000E+00  0.00000000000E+00  0.39409490005E+04  0.39409490005E+04  0.25500000000E-02 0. -1.
         -2   -1    0    0    0  501 -0.00000000000E+00 -0.00000000000E+00 -0.43390026392E+03  0.43390026393E+03  0.25500000000E-02 0.  1.
    8880022    1    1    2    0    0  0.50352157238E+02  0.85762289120E+03  0.33826867267E+04  0.34934243240E+04  0.15294330000E+03 0.  0.
    8880022    1    1    2    0    0 -0.50352157238E+02 -0.85762289120E+03  0.12436200992E+03  0.88142494052E+03  0.15294330000E+03 0.  0.
<mgrwt>
<rscale>  0 0.87260760E+03</rscale>
<asrwt>0</asrwt>
<pdfrwt beam="1">  1        2 0.60629982E+00 0.87260760E+03</pdfrwt>
<pdfrwt beam="2">  1       -2 0.66753889E-01 0.87260760E+03</pdfrwt>
<totfact> 0.84827903E-01</totfact>
</mgrwt>
</event>
<event>
 4    1  0.1033139E-008  0.7038627E+03  0.7818608E-02  0.9710649E-01
         -2   -1    0    0    0  501 -0.00000000000E+00  0.00000000000E+00  0.10767178875E+04  0.10767178875E+04  0.25500000000E-02 0.  1.
          2   -1    0    0  501    0  0.00000000000E+00 -0.00000000000E+00 -0.13069101885E+04  0.13069101885E+04  0.25500000000E-02 0. -1.
    8880022    1    1    2    0    0 -0.27762065877E+03 -0.62845666459E+03 -0.10744366180E+04  0.12844596952E+04  0.15294330000E+03 0.  0.
    8880022    1    1    2    0    0  0.27762065877E+03  0.62845666459E+03  0.84424431705E+03  0.10991683808E+04  0.15294330000E+03 0.  0.
<mgrwt>
<rscale>  0 0.70386267E+03</rscale>
<asrwt>0</asrwt>
<pdfrwt beam="1">  1        2 0.20106311E+00 0.70386267E+03</pdfrwt>
<pdfrwt beam="2">  1       -2 0.16564891E+00 0.70386267E+03</pdfrwt>
<totfact> 0.38705473E+00</totfact>
</mgrwt>
</event>
<event>
 4    1  0.1033139E-008  0.6540182E+03  0.7818608E-02  0.9799268E-01
          2   -1    0    0  501    0  0.00000000000E+00  0.00000000000E+00  0.10727278629E+04  0.10727278629E+04  0.25500000000E-02 0. -1.
         -2   -1    0    0    0  501 -0.00000000000E+00 -0.00000000000E+00 -0.43432800949E+03  0.43432800950E+03  0.25500000000E-02 0.  1.
    8880022    1    1    2    0    0 -0.62982053093E+03 -0.87602525181E+02  0.53489532229E+03  0.84489807812E+03  0.15294330000E+03 0.  0.
    8880022    1    1    2    0    0  0.62982053093E+03  0.87602525181E+02  0.10350453116E+03  0.66215779432E+03  0.15294330000E+03 0.  0.
<mgrwt>
<rscale>  0 0.65401816E+03</rscale>
<asrwt>0</asrwt>
<pdfrwt beam="1">  1        2 0.16503505E+00 0.65401816E+03</pdfrwt>
<pdfrwt beam="2">  1       -2 0.66819694E-01 0.65401816E+03</pdfrwt>
<totfact> 0.47797539E+01</totfact>
</mgrwt>
</event>
<event>
 4    1  0.1033139E-008  0.1849954E+04  0.7818608E-02  0.8680176E-01
         -2   -1    0    0    0  501 -0.00000000000E+00  0.00000000000E+00  0.17823896868E+04  0.17823896868E+04  0.25500000000E-02 0.  1.
          2   -1    0    0  501    0  0.00000000000E+00 -0.00000000000E+00 -0.27255102364E+04  0.27255102364E+04  0.25500000000E-02 0. -1.
    8880022    1    1    2    0    0 -0.17750307467E+04  0.49820140512E+03  0.75371699923E+03  0.19976035041E+04  0.15294330000E+03 0.  0.
    8880022    1    1    2    0    0  0.17750307467E+04 -0.49820140512E+03 -0.16968375489E+04  0.25102964191E+04  0.15294330000E+03 0.  0.
<mgrwt>
<rscale>  0 0.18499542E+04</rscale>
<asrwt>0</asrwt>
<pdfrwt beam="1">  1        2 0.41930927E+00 0.18499542E+04</pdfrwt>
<pdfrwt beam="2">  1       -2 0.27421380E+00 0.18499542E+04</pdfrwt>
<totfact> 0.10547456E-01</totfact>
</mgrwt>
</event>
<event>
 4    1  0.1033139E-008  0.1006858E+04  0.7818608E-02  0.9301054E-01
         -2   -1    0    0    0  501 -0.00000000000E+00  0.00000000000E+00  0.10927279373E+04  0.10927279373E+04  0.25500000000E-02 0.  1.
          2   -1    0    0  501    0  0.00000000000E+00 -0.00000000000E+00 -0.23064108263E+04  0.23064108263E+04  0.25500000000E-02 0. -1.
    8880022    1    1    2    0    0  0.56072648594E+03  0.82216664663E+03 -0.19208596216E+04  0.21687474555E+04  0.15294330000E+03 0.  0.
    8880022    1    1    2    0    0 -0.56072648594E+03 -0.82216664663E+03  0.70717673258E+03  0.12303913081E+04  0.15294330000E+03 0.  0.
<mgrwt>
<rscale>  0 0.10068584E+04</rscale>
<asrwt>0</asrwt>
<pdfrwt beam="1">  1        2 0.35483243E+00 0.10068584E+04</pdfrwt>
<pdfrwt beam="2">  1       -2 0.16811199E+00 0.10068584E+04</pdfrwt>
<totfact> 0.98954154E-01</totfact>
</mgrwt>
</event>
<event>
 4    1  0.1033139E-008  0.1101232E+04  0.7818608E-02  0.9203992E-01
         -2   -1    0    0    0  501 -0.00000000000E+00  0.00000000000E+00  0.10233415365E+04  0.10233415365E+04  0.25500000000E-02 0.  1.
          2   -1    0    0  501    0  0.00000000000E+00 -0.00000000000E+00 -0.18009353877E+04  0.18009353877E+04  0.25500000000E-02 0. -1.
    8880022    1    1    2    0    0 -0.55764515096E+03 -0.93720390790E+03  0.43700929659E+03  0.11847734204E+04  0.15294330000E+03 0.  0.
    8880022    1    1    2    0    0  0.55764515096E+03  0.93720390790E+03 -0.12146031478E+04  0.16395035038E+04  0.15294330000E+03 0.  0.
<mgrwt>
<rscale>  0 0.11012316E+04</rscale>
<asrwt>0</asrwt>
<pdfrwt beam="1">  1        2 0.27706698E+00 0.11012316E+04</pdfrwt>
<pdfrwt beam="2">  1       -2 0.15743716E+00 0.11012316E+04</pdfrwt>
<totfact> 0.22292707E+00</totfact>
</mgrwt>
</event>
<event>
 4    1  0.1033139E-008  0.1514668E+04  0.7818608E-02  0.8874757E-01
          2   -1    0    0  501    0  0.00000000000E+00  0.00000000000E+00  0.11874554279E+04  0.11874554279E+04  0.25500000000E-02 0. -1.
         -2   -1    0    0    0  501 -0.00000000000E+00 -0.00000000000E+00 -0.23570073604E+04  0.23570073604E+04  0.25500000000E-02 0.  1.
    8880022    1    1    2    0    0 -0.33432215334E+03 -0.14693722281E+04  0.16773880016E+03  0.15239271653E+04  0.15294330000E+03 0.  0.
    8880022    1    1    2    0    0  0.33432215334E+03  0.14693722281E+04 -0.13372907327E+04  0.20205356230E+04  0.15294330000E+03 0.  0.
<mgrwt>
<rscale>  0 0.15146675E+04</rscale>
<asrwt>0</asrwt>
<pdfrwt beam="1">  1        2 0.18268545E+00 0.15146675E+04</pdfrwt>
<pdfrwt beam="2">  1       -2 0.36261652E+00 0.15146675E+04</pdfrwt>
<totfact> 0.23563270E-01</totfact>
</mgrwt>
</event>
<event>
 4    1  0.1033139E-008  0.6023395E+03  0.7818608E-02  0.9900564E-01
         -2   -1    0    0    0  501 -0.00000000000E+00  0.00000000000E+00  0.17287852974E+03  0.17287852976E+03  0.25500000000E-02 0.  1.
          2   -1    0    0  501    0  0.00000000000E+00 -0.00000000000E+00 -0.37769437117E+04  0.37769437117E+04  0.25500000000E-02 0. -1.
    8880022    1    1    2    0    0 -0.31071388894E+03 -0.49282668457E+03 -0.48556478289E+03  0.77368344508E+03  0.15294330000E+03 0.  0.
    8880022    1    1    2    0    0  0.31071388894E+03  0.49282668457E+03 -0.31185003991E+04  0.31761387964E+04  0.15294330000E+03 0.  0.
<mgrwt>
<rscale>  0 0.60233953E+03</rscale>
<asrwt>0</asrwt>
<pdfrwt beam="1">  1        2 0.58106820E+00 0.60233953E+03</pdfrwt>
<pdfrwt beam="2">  1       -2 0.26596700E-01 0.60233953E+03</pdfrwt>
<totfact> 0.74005215E+00</totfact>
</mgrwt>
</event>
<event>
 4    1  0.1033139E-008  0.2448123E+03  0.7818608E-02  0.1116628E+00
         -2   -1    0    0    0  501 -0.00000000000E+00  0.00000000000E+00  0.32751708014E+03  0.32751708015E+03  0.25500000000E-02 0.  1.
          2   -1    0    0  501    0  0.00000000000E+00 -0.00000000000E+00 -0.48025187147E+03  0.48025187148E+03  0.25500000000E-02 0. -1.
    8880022    1    1    2    0    0 -0.71189770457E+02  0.17740751580E+03 -0.39412111442E+03  0.46396607195E+03  0.15294330000E+03 0.  0.
    8880022    1    1    2    0    0  0.71189770457E+02 -0.17740751580E+03  0.24138632309E+03  0.34380287967E+03  0.15294330000E+03 0.  1.
<mgrwt>
<rscale>  0 0.24481230E+03</rscale>
<asrwt>0</asrwt>
<pdfrwt beam="1">  1        2 0.73884903E-01 0.24481230E+03</pdfrwt>
<pdfrwt beam="2">  1       -2 0.50387243E-01 0.24481230E+03</pdfrwt>
<totfact> 0.24892878E+02</totfact>
</mgrwt>
</event>
<event>
 4    1  0.1033139E-008  0.5891112E+03  0.7818608E-02  0.9928258E-01
          2   -1    0    0  501    0  0.00000000000E+00  0.00000000000E+00  0.90138911359E+03  0.90138911360E+03  0.25500000000E-02 0. -1.
         -2   -1    0    0    0  501 -0.00000000000E+00 -0.00000000000E+00 -0.17280868733E+04  0.17280868733E+04  0.25500000000E-02 0.  1.
    8880022    1    1    2    0    0  0.52733985543E+03  0.21347830873E+03  0.74570974466E+03  0.95033414530E+03  0.15294330000E+03 0.  0.
    8880022    1    1    2    0    0 -0.52733985543E+03 -0.21347830873E+03 -0.15724075043E+04  0.16791418416E+04  0.15294330000E+03 0.  0.
<mgrwt>
<rscale>  0 0.58911116E+03</rscale>
<asrwt>0</asrwt>
<pdfrwt beam="1">  1        2 0.13867525E+00 0.58911116E+03</pdfrwt>
<pdfrwt beam="2">  1       -2 0.26585952E+00 0.58911116E+03</pdfrwt>
<totfact> 0.16076052E+00</totfact>
</mgrwt>
</event>
<event>
 4    1  0.1033139E-008  0.9362745E+03  0.7818608E-02  0.9381339E-01
         -2   -1    0    0    0  501 -0.00000000000E+00  0.00000000000E+00  0.87261011788E+03  0.87261011789E+03  0.25500000000E-02 0.  1.
          2   -1    0    0  501    0  0.00000000000E+00 -0.00000000000E+00 -0.33429152935E+04  0.33429152935E+04  0.25500000000E-02 0. -1.
    8880022    1    1    2    0    0 -0.25955602342E+03  0.88648122720E+03  0.52768407234E+03  0.10747373766E+04  0.15294330000E+03 0.  0.
    8880022    1    1    2    0    0  0.25955602342E+03 -0.88648122720E+03 -0.29979892480E+04  0.31407880348E+04  0.15294330000E+03 0.  0.
<mgrwt>
<rscale>  0 0.93627450E+03</rscale>
<asrwt>0</asrwt>
<pdfrwt beam="1">  1        2 0.51429465E+00 0.93627450E+03</pdfrwt>
<pdfrwt beam="2">  1       -2 0.13424771E+00 0.93627450E+03</pdfrwt>
<totfact> 0.43344009E-01</totfact>
</mgrwt>
</event>
<event>
 4    1  0.1033139E-008  0.8164713E+03  0.7818608E-02  0.9536477E-01
         -2   -1    0    0    0  501 -0.00000000000E+00  0.00000000000E+00  0.61894995513E+03  0.61894995514E+03  0.25500000000E-02 0.  1.
          2   -1    0    0  501    0  0.00000000000E+00 -0.00000000000E+00 -0.12174997318E+04  0.12174997318E+04  0.25500000000E-02 0. -1.
    8880022    1    1    2    0    0  0.58463353353E+03 -0.54903310463E+03 -0.61117226305E+03  0.10198808296E+04  0.15294330000E+03 0.  0.
    8880022    1    1    2    0    0 -0.58463353353E+03  0.54903310463E+03  0.12622486417E+02  0.81656885728E+03  0.15294330000E+03 0.  0.
<mgrwt>
<rscale>  0 0.81647129E+03</rscale>
<asrwt>0</asrwt>
<pdfrwt beam="1">  1        2 0.18730765E+00 0.81647129E+03</pdfrwt>
<pdfrwt beam="2">  1       -2 0.95223071E-01 0.81647129E+03</pdfrwt>
<totfact> 0.17345581E+01</totfact>
</mgrwt>
</event>
<event>
 4    1  0.1033139E-008  0.4806533E+03  0.7818608E-02  0.1018956E+00
         -2   -1    0    0    0  501 -0.00000000000E+00  0.00000000000E+00  0.22581347913E+04  0.22581347913E+04  0.25500000000E-02 0.  1.
          2   -1    0    0  501    0  0.00000000000E+00 -0.00000000000E+00 -0.12650429899E+04  0.12650429899E+04  0.25500000000E-02 0. -1.
    8880022    1    1    2    0    0  0.14229325752E+02  0.45544863142E+03  0.21853998700E+04  0.22376327166E+04  0.15294330000E+03 0.  0.
    8880022    1    1    2    0    0 -0.14229325752E+02 -0.45544863142E+03 -0.11923080686E+04  0.12855450646E+04  0.15294330000E+03 0. -1.
<mgrwt>
<rscale>  0 0.48065329E+03</rscale>
<asrwt>0</asrwt>
<pdfrwt beam="1">  1        2 0.19462200E+00 0.48065329E+03</pdfrwt>
<pdfrwt beam="2">  1       -2 0.34740535E+00 0.48065329E+03</pdfrwt>
<totfact> 0.32173051E-01</totfact>
</mgrwt>
</event>
<event>
 4    1  0.1033139E-008  0.8497998E+03  0.7818608E-02  0.9490606E-01
         -2   -1    0    0    0  501 -0.00000000000E+00  0.00000000000E+00  0.43016377039E+03  0.43016377040E+03  0.25500000000E-02 0.  1.
          2   -1    0    0  501    0  0.00000000000E+00 -0.00000000000E+00 -0.19441589773E+04  0.19441589773E+04  0.25500000000E-02 0. -1.
    8880022    1    1    2    0    0  0.80712883735E+03 -0.21751117476E+03 -0.11955881497E+04  0.14668301701E+04  0.15294330000E+03 0.  0.
    8880022    1    1    2    0    0 -0.80712883735E+03  0.21751117476E+03 -0.31840705714E+03  0.90749257753E+03  0.15294330000E+03 0.  0.
<mgrwt>
<rscale>  0 0.84979981E+03</rscale>
<asrwt>0</asrwt>
<pdfrwt beam="1">  1        2 0.29910137E+00 0.84979981E+03</pdfrwt>
<pdfrwt beam="2">  1       -2 0.66179043E-01 0.84979981E+03</pdfrwt>
<totfact> 0.15370061E+01</totfact>
</mgrwt>
</event>
<event>
 4    1  0.1033139E-008  0.5503640E+03  0.7818608E-02  0.1001410E+00
         -2   -1    0    0    0  501 -0.00000000000E+00  0.00000000000E+00  0.12680462407E+04  0.12680462407E+04  0.25500000000E-02 0.  1.
          2   -1    0    0  501    0  0.00000000000E+00 -0.00000000000E+00 -0.79239853406E+03  0.79239853406E+03  0.25500000000E-02 0. -1.
    8880022    1    1    2    0    0 -0.51870569449E+03  0.10224112510E+03  0.10988740075E+04  0.12289933208E+04  0.15294330000E+03 0.  0.
    8880022    1    1    2    0    0  0.51870569449E+03 -0.10224112510E+03 -0.62322630089E+03  0.83145145396E+03  0.15294330000E+03 0.  0.
<mgrwt>
<rscale>  0 0.55036397E+03</rscale>
<asrwt>0</asrwt>
<pdfrwt beam="1">  1        2 0.12190747E+00 0.55036397E+03</pdfrwt>
<pdfrwt beam="2">  1       -2 0.19508404E+00 0.55036397E+03</pdfrwt>
<totfact> 0.52648385E+00</totfact>
</mgrwt>
</event>
<event>
 4    1  0.1033139E-008  0.5339567E+03  0.7818608E-02  0.1005277E+00
         -2   -1    0    0    0  501 -0.00000000000E+00  0.00000000000E+00  0.12617879615E+03  0.12617879618E+03  0.25500000000E-02 0.  1.
          2   -1    0    0  501    0  0.00000000000E+00 -0.00000000000E+00 -0.27857939072E+04  0.27857939072E+04  0.25500000000E-02 0. -1.
    8880022    1    1    2    0    0  0.51122986776E+03  0.19028282209E+02 -0.69700462838E+03  0.87802343831E+03  0.15294330000E+03 0.  0.
    8880022    1    1    2    0    0 -0.51122986776E+03 -0.19028282209E+02 -0.19626104826E+04  0.20339492650E+04  0.15294330000E+03 0.  0.
<mgrwt>
<rscale>  0 0.53395665E+03</rscale>
<asrwt>0</asrwt>
<pdfrwt beam="1">  1        2 0.42858363E+00 0.53395665E+03</pdfrwt>
<pdfrwt beam="2">  1       -2 0.19412125E-01 0.53395665E+03</pdfrwt>
<totfact> 0.57592467E+01</totfact>
</mgrwt>
</event>
<event>
 4    1  0.1033139E-008  0.7417749E+03  0.7818608E-02  0.9648343E-01
          2   -1    0    0  501    0  0.00000000000E+00  0.00000000000E+00  0.11807510842E+04  0.11807510842E+04  0.25500000000E-02 0. -1.
         -2   -1    0    0    0  501 -0.00000000000E+00 -0.00000000000E+00 -0.86009909478E+03  0.86009909479E+03  0.25500000000E-02 0.  1.
    8880022    1    1    2    0    0  0.45535208721E+03 -0.56523693980E+03 -0.53040606829E+03  0.91189943071E+03  0.15294330000E+03 0.  0.
    8880022    1    1    2    0    0 -0.45535208721E+03  0.56523693980E+03  0.85105805771E+03  0.11289507483E+04  0.15294330000E+03 0.  0.
<mgrwt>
<rscale>  0 0.74177488E+03</rscale>
<asrwt>0</asrwt>
<pdfrwt beam="1">  1        2 0.18165401E+00 0.74177488E+03</pdfrwt>
<pdfrwt beam="2">  1       -2 0.13232294E+00 0.74177488E+03</pdfrwt>
<totfact> 0.82463239E+00</totfact>
</mgrwt>
</event>
<event>
 4    1  0.1033139E-008  0.6477472E+03  0.7818608E-02  0.9811016E-01
         -2   -1    0    0    0  501 -0.00000000000E+00  0.00000000000E+00  0.35741678447E+03  0.35741678448E+03  0.25500000000E-02 0.  1.
          2   -1    0    0  501    0  0.00000000000E+00 -0.00000000000E+00 -0.23673197338E+04  0.23673197338E+04  0.25500000000E-02 0. -1.
    8880022    1    1    2    0    0 -0.59334857693E+03  0.21005284534E+03 -0.19722492982E+04  0.20758958738E+04  0.15294330000E+03 0.  0.
    8880022    1    1    2    0    0  0.59334857693E+03 -0.21005284534E+03 -0.37653651210E+02  0.64884064456E+03  0.15294330000E+03 0.  0.
<mgrwt>
<rscale>  0 0.64774716E+03</rscale>
<asrwt>0</asrwt>
<pdfrwt beam="1">  1        2 0.36420303E+00 0.64774716E+03</pdfrwt>
<pdfrwt beam="2">  1       -2 0.54987199E-01 0.64774716E+03</pdfrwt>
<totfact> 0.13714330E+01</totfact>
</mgrwt>
</event>
<event>
 4    1  0.1033139E-008  0.1066791E+04  0.7818608E-02  0.9238178E-01
          2   -1    0    0  501    0  0.00000000000E+00  0.00000000000E+00  0.10097502163E+04  0.10097502163E+04  0.25500000000E-02 0. -1.
         -2   -1    0    0    0  501 -0.00000000000E+00 -0.00000000000E+00 -0.27941936981E+04  0.27941936981E+04  0.25500000000E-02 0.  1.
    8880022    1    1    2    0    0  0.38318264929E+03  0.98377992554E+03  0.57691352803E+03  0.12127954306E+04  0.15294330000E+03 0.  0.
    8880022    1    1    2    0    0 -0.38318264929E+03 -0.98377992554E+03 -0.23613570098E+04  0.25911484839E+04  0.15294330000E+03 0.  0.
<mgrwt>
<rscale>  0 0.10667912E+04</rscale>
<asrwt>0</asrwt>
<pdfrwt beam="1">  1        2 0.15534619E+00 0.10667912E+04</pdfrwt>
<pdfrwt beam="2">  1       -2 0.42987595E+00 0.10667912E+04</pdfrwt>
<totfact> 0.11788731E-01</totfact>
</mgrwt>
</event>
<event>
 4    1  0.1033139E-008  0.1170718E+04  0.7818608E-02  0.9138880E-01
          2   -1    0    0  501    0  0.00000000000E+00  0.00000000000E+00  0.25194875426E+04  0.25194875426E+04  0.25500000000E-02 0. -1.
         -2   -1    0    0    0  501 -0.00000000000E+00 -0.00000000000E+00 -0.73406127502E+03  0.73406127502E+03  0.25500000000E-02 0.  1.
    8880022    1    1    2    0    0 -0.96743424786E+03 -0.64129614109E+03  0.17204970336E+04  0.20810313453E+04  0.15294330000E+03 0.  0.
    8880022    1    1    2    0    0  0.96743424786E+03  0.64129614109E+03  0.64929234011E+02  0.11725174723E+04  0.15294330000E+03 0.  0.
<mgrwt>
<rscale>  0 0.11707183E+04</rscale>
<asrwt>0</asrwt>
<pdfrwt beam="1">  1        2 0.38761346E+00 0.11707183E+04</pdfrwt>
<pdfrwt beam="2">  1       -2 0.11293251E+00 0.11707183E+04</pdfrwt>
<totfact> 0.20597537E+00</totfact>
</mgrwt>
</event>
<event>
 4    1  0.1034956E-008  0.1366529E+04  0.7818608E-02  0.8978410E-01
          2   -1    0    0  501    0  0.00000000000E+00  0.00000000000E+00  0.13364744330E+04  0.13364744330E+04  0.25500000000E-02 0. -1.
         -2   -1    0    0    0  501 -0.00000000000E+00 -0.00000000000E+00 -0.38988126115E+04  0.38988126115E+04  0.25500000000E-02 0.  1.
    8880022    1    1    2    0    0 -0.20756454420E+03  0.13419858717E+04 -0.33779315824E+04  0.36438746614E+04  0.15294330000E+03 0.  0.
    8880022    1    1    2    0    0  0.20756454420E+03 -0.13419858717E+04  0.81559340387E+03  0.15914123831E+04  0.15294330000E+03 0.  0.
<mgrwt>
<rscale>  0 0.13665287E+04</rscale>
<asrwt>0</asrwt>
<pdfrwt beam="1">  1        2 0.20561145E+00 0.13665287E+04</pdfrwt>
<pdfrwt beam="2">  1       -2 0.59981732E+00 0.13665287E+04</pdfrwt>
<totfact> 0.74234271E-03</totfact>
</mgrwt>
</event>
<event>
 4    1  0.1033139E-008  0.1115115E+04  0.7818608E-02  0.9190584E-01
          2   -1    0    0  501    0  0.00000000000E+00  0.00000000000E+00  0.20524218581E+04  0.20524218581E+04  0.25500000000E-02 0. -1.
         -2   -1    0    0    0  501 -0.00000000000E+00 -0.00000000000E+00 -0.10918941024E+04  0.10918941024E+04  0.25500000000E-02 0.  1.
    8880022    1    1    2    0    0  0.76116252867E+03 -0.80045098325E+03  0.15291756635E+04  0.18925802584E+04  0.15294330000E+03 0.  0.
    8880022    1    1    2    0    0 -0.76116252867E+03  0.80045098325E+03 -0.56864790787E+03  0.12517357021E+04  0.15294330000E+03 0.  0.
<mgrwt>
<rscale>  0 0.11151152E+04</rscale>
<asrwt>0</asrwt>
<pdfrwt beam="1">  1        2 0.31575721E+00 0.11151152E+04</pdfrwt>
<pdfrwt beam="2">  1       -2 0.16798371E+00 0.11151152E+04</pdfrwt>
<totfact> 0.13525955E+00</totfact>
</mgrwt>
</event>
<event>
 4    1  0.1033139E-008  0.8533192E+03  0.7818608E-02  0.9485893E-01
         -2   -1    0    0    0  501 -0.00000000000E+00  0.00000000000E+00  0.26682550511E+04  0.26682550511E+04  0.25500000000E-02 0.  1.
          2   -1    0    0  501    0  0.00000000000E+00 -0.00000000000E+00 -0.40362156975E+03  0.40362156975E+03  0.25500000000E-02 0. -1.
    8880022    1    1    2    0    0  0.70514583008E+03  0.45555612017E+03  0.20064313741E+04  0.21803487180E+04  0.15294330000E+03 0.  0.
    8880022    1    1    2    0    0 -0.70514583008E+03 -0.45555612017E+03  0.25820210727E+03  0.89152790282E+03  0.15294330000E+03 0.  0.
<mgrwt>
<rscale>  0 0.85331921E+03</rscale>
<asrwt>0</asrwt>
<pdfrwt beam="1">  1        2 0.62095624E-01 0.85331921E+03</pdfrwt>
<pdfrwt beam="2">  1       -2 0.41050079E+00 0.85331921E+03</pdfrwt>
<totfact> 0.52096366E-01</totfact>
</mgrwt>
</event>
<event>
 4    1  0.1033139E-008  0.9839158E+03  0.7818608E-02  0.9326364E-01
          2   -1    0    0  501    0  0.00000000000E+00  0.00000000000E+00  0.14159312655E+04  0.14159312655E+04  0.25500000000E-02 0. -1.
         -2   -1    0    0    0  501 -0.00000000000E+00 -0.00000000000E+00 -0.10204399163E+04  0.10204399163E+04  0.25500000000E-02 0.  1.
    8880022    1    1    2    0    0  0.66296528214E+03  0.71075707352E+03 -0.50202997721E+03  0.11045923836E+04  0.15294330000E+03 0.  0.
    8880022    1    1    2    0    0 -0.66296528214E+03 -0.71075707352E+03  0.89752132642E+03  0.13317787982E+04  0.15294330000E+03 0.  0.
<mgrwt>
<rscale>  0 0.98391577E+03</rscale>
<asrwt>0</asrwt>
<pdfrwt beam="1">  1        2 0.21783558E+00 0.98391577E+03</pdfrwt>
<pdfrwt beam="2">  1       -2 0.15699076E+00 0.98391577E+03</pdfrwt>
<totfact> 0.37354479E+00</totfact>
</mgrwt>
</event>
<event>
 4    1  0.1033139E-008  0.7105864E+03  0.7818608E-02  0.9699297E-01
         -2   -1    0    0    0  501 -0.00000000000E+00  0.00000000000E+00  0.22289997313E+03  0.22289997315E+03  0.25500000000E-02 0.  1.
          2   -1    0    0  501    0  0.00000000000E+00 -0.00000000000E+00 -0.49726867923E+04  0.49726867923E+04  0.25500000000E-02 0. -1.
    8880022    1    1    2    0    0 -0.61301960245E+03  0.32518974249E+03 -0.42917296755E+04  0.43501582342E+04  0.15294330000E+03 0.  0.
    8880022    1    1    2    0    0  0.61301960245E+03 -0.32518974249E+03 -0.45805714362E+03  0.84542853124E+03  0.15294330000E+03 0.  0.
<mgrwt>
<rscale>  0 0.71058642E+03</rscale>
<asrwt>0</asrwt>
<pdfrwt beam="1">  1        2 0.76502865E+00 0.71058642E+03</pdfrwt>
<pdfrwt beam="2">  1       -2 0.34292307E-01 0.71058642E+03</pdfrwt>
<totfact> 0.35207402E-01</totfact>
</mgrwt>
</event>
<event>
 4    1  0.1033139E-008  0.1919265E+04  0.7818608E-02  0.8645326E-01
          2   -1    0    0  501    0  0.00000000000E+00  0.00000000000E+00  0.31006894413E+04  0.31006894413E+04  0.25500000000E-02 0. -1.
         -2   -1    0    0    0  501 -0.00000000000E+00 -0.00000000000E+00 -0.19189159664E+04  0.19189159664E+04  0.25500000000E-02 0.  1.
    8880022    1    1    2    0    0  0.17000467169E+04  0.87751234923E+03 -0.95810543435E+03  0.21451210780E+04  0.15294330000E+03 0.  0.
    8880022    1    1    2    0    0 -0.17000467169E+04 -0.87751234923E+03  0.21398789092E+04  0.28744843297E+04  0.15294330000E+03 0.  0.
<mgrwt>
<rscale>  0 0.19192651E+04</rscale>
<asrwt>0</asrwt>
<pdfrwt beam="1">  1        2 0.47702914E+00 0.19192651E+04</pdfrwt>
<pdfrwt beam="2">  1       -2 0.29521784E+00 0.19192651E+04</pdfrwt>
<totfact> 0.45623342E-02</totfact>
</mgrwt>
</event>
<event>
 4    1  0.1033139E-008  0.1308580E+04  0.7818608E-02  0.9022789E-01
         -2   -1    0    0    0  501 -0.00000000000E+00  0.00000000000E+00  0.51179953725E+03  0.51179953725E+03  0.25500000000E-02 0.  1.
          2   -1    0    0  501    0  0.00000000000E+00 -0.00000000000E+00 -0.42316910801E+04  0.42316910801E+04  0.25500000000E-02 0. -1.
    8880022    1    1    2    0    0 -0.11580590149E+04  0.58982183639E+03 -0.77477101160E+03  0.15207406926E+04  0.15294330000E+03 0.  0.
    8880022    1    1    2    0    0  0.11580590149E+04 -0.58982183639E+03 -0.29451205312E+04  0.32227499247E+04  0.15294330000E+03 0.  0.
<mgrwt>
<rscale>  0 0.13085802E+04</rscale>
<asrwt>0</asrwt>
<pdfrwt beam="1">  1        2 0.65102937E+00 0.13085802E+04</pdfrwt>
<pdfrwt beam="2">  1       -2 0.78738393E-01 0.13085802E+04</pdfrwt>
<totfact> 0.31450407E-01</totfact>
</mgrwt>
</event>
<event>
 4    1  0.1033139E-008  0.2180567E+03  0.7818608E-02  0.1135340E+00
         -2   -1    0    0    0  501 -0.00000000000E+00  0.00000000000E+00  0.23557144819E+03  0.23557144821E+03  0.25500000000E-02 0.  1.
          2   -1    0    0  501    0  0.00000000000E+00 -0.00000000000E+00 -0.50004530894E+03  0.50004530894E+03  0.25500000000E-02 0. -1.
    8880022    1    1    2    0    0 -0.10363015674E+03  0.11583547392E+03 -0.41627176152E+03  0.46992648240E+03  0.15294330000E+03 0.  0.
    8880022    1    1    2    0    0  0.10363015674E+03 -0.11583547392E+03  0.15179790078E+03  0.26569027475E+03  0.15294330000E+03 0.  0.
<mgrwt>
<rscale>  0 0.21805669E+03</rscale>
<asrwt>0</asrwt>
<pdfrwt beam="1">  1        2 0.76930047E-01 0.21805669E+03</pdfrwt>
<pdfrwt beam="2">  1       -2 0.36241761E-01 0.21805669E+03</pdfrwt>
<totfact> 0.45124582E+02</totfact>
</mgrwt>
</event>
<event>
 4    1  0.1033139E-008  0.1033721E+04  0.7818608E-02  0.9272315E-01
         -2   -1    0    0    0  501 -0.00000000000E+00  0.00000000000E+00  0.54485292161E+03  0.54485292162E+03  0.25500000000E-02 0.  1.
          2   -1    0    0  501    0  0.00000000000E+00 -0.00000000000E+00 -0.21658215410E+04  0.21658215410E+04  0.25500000000E-02 0. -1.
    8880022    1    1    2    0    0 -0.77312071562E+02 -0.10194164153E+04 -0.12270526096E+04  0.16044428142E+04  0.15294330000E+03 0.  0.
    8880022    1    1    2    0    0  0.77312071562E+02  0.10194164153E+04 -0.39391600976E+03  0.11062316484E+04  0.15294330000E+03 0.  0.
<mgrwt>
<rscale>  0 0.10337208E+04</rscale>
<asrwt>0</asrwt>
<pdfrwt beam="1">  1        2 0.33320331E+00 0.10337208E+04</pdfrwt>
<pdfrwt beam="2">  1       -2 0.83823528E-01 0.10337208E+04</pdfrwt>
<totfact> 0.67140281E+00</totfact>
</mgrwt>
</event>
<event>
 4    1  0.1033139E-008  0.1004776E+04  0.7818608E-02  0.9303322E-01
         -2   -1    0    0    0  501 -0.00000000000E+00  0.00000000000E+00  0.93510545959E+03  0.93510545960E+03  0.25500000000E-02 0.  1.
          2   -1    0    0  501    0  0.00000000000E+00 -0.00000000000E+00 -0.15133897507E+04  0.15133897507E+04  0.25500000000E-02 0. -1.
    8880022    1    1    2    0    0 -0.49948734844E+03  0.85830995423E+03 -0.94455441561E+03  0.13790425250E+04  0.15294330000E+03 0.  0.
    8880022    1    1    2    0    0  0.49948734844E+03 -0.85830995423E+03  0.36627012455E+03  0.10694526852E+04  0.15294330000E+03 0.  0.
<mgrwt>
<rscale>  0 0.10047762E+04</rscale>
<asrwt>0</asrwt>
<pdfrwt beam="1">  1        2 0.23282919E+00 0.10047762E+04</pdfrwt>
<pdfrwt beam="2">  1       -2 0.14386238E+00 0.10047762E+04</pdfrwt>
<totfact> 0.41414322E+00</totfact>
</mgrwt>
</event>
<event>
 4    1  0.1038873E-008  0.9026325E+03  0.7818608E-02  0.9422297E-01
         -2   -1    0    0    0  501 -0.00000000000E+00  0.00000000000E+00  0.11554651101E+04  0.11554651102E+04  0.25500000000E-02 0.  1.
          2   -1    0    0  501    0  0.00000000000E+00 -0.00000000000E+00 -0.29677093278E+04  0.29677093278E+04  0.25500000000E-02 0. -1.
    8880022    1    1    2    0    0 -0.88907751797E+03  0.29914747319E+02 -0.27062094679E+04  0.28527732231E+04  0.15294330000E+03 0.  0.
    8880022    1    1    2    0    0  0.88907751797E+03 -0.29914747319E+02  0.89396525026E+03  0.12704012149E+04  0.15294330000E+03 0.  0.
<mgrwt>
<rscale>  0 0.90263247E+03</rscale>
<asrwt>0</asrwt>
<pdfrwt beam="1">  1        2 0.45657066E+00 0.90263247E+03</pdfrwt>
<pdfrwt beam="2">  1       -2 0.17776386E+00 0.90263247E+03</pdfrwt>
<totfact> 0.35485197E-01</totfact>
</mgrwt>
</event>
<event>
 4    1  0.1033139E-008  0.1871617E+04  0.7818608E-02  0.8669115E-01
         -2   -1    0    0    0  501 -0.00000000000E+00  0.00000000000E+00  0.18913335094E+04  0.18913335094E+04  0.25500000000E-02 0.  1.
          2   -1    0    0  501    0  0.00000000000E+00 -0.00000000000E+00 -0.26981638271E+04  0.26981638272E+04  0.25500000000E-02 0. -1.
    8880022    1    1    2    0    0 -0.18473648867E+04  0.25846155737E+03  0.88157815663E+03  0.20688477713E+04  0.15294330000E+03 0.  0.
    8880022    1    1    2    0    0  0.18473648867E+04 -0.25846155737E+03 -0.16884084744E+04  0.25206495653E+04  0.15294330000E+03 0.  0.
<mgrwt>
<rscale>  0 0.18716172E+04</rscale>
<asrwt>0</asrwt>
<pdfrwt beam="1">  1        2 0.41510213E+00 0.18716172E+04</pdfrwt>
<pdfrwt beam="2">  1       -2 0.29097439E+00 0.18716172E+04</pdfrwt>
<totfact> 0.86264621E-02</totfact>
</mgrwt>
</event>
<event>
 4    1  0.1033139E-008  0.7245847E+03  0.7818608E-02  0.9676089E-01
         -2   -1    0    0    0  501 -0.00000000000E+00  0.00000000000E+00  0.39592175660E+03  0.39592175661E+03  0.25500000000E-02 0.  1.
          2   -1    0    0  501    0  0.00000000000E+00 -0.00000000000E+00 -0.20925725065E+04  0.20925725065E+04  0.25500000000E-02 0. -1.
    8880022    1    1    2    0    0 -0.63282890159E+03 -0.31805494209E+03 -0.16013704890E+04  0.17576718866E+04  0.15294330000E+03 0.  0.
    8880022    1    1    2    0    0  0.63282890159E+03  0.31805494209E+03 -0.95280260894E+02  0.73082237651E+03  0.15294330000E+03 0.  0.
<mgrwt>
<rscale>  0 0.72458472E+03</rscale>
<asrwt>0</asrwt>
<pdfrwt beam="1">  1        2 0.32193423E+00 0.72458472E+03</pdfrwt>
<pdfrwt beam="2">  1       -2 0.60911041E-01 0.72458472E+03</pdfrwt>
<totfact> 0.15487378E+01</totfact>
</mgrwt>
</event>
<event>
 4    1  0.1033139E-008  0.9752176E+03  0.7818608E-02  0.9336151E-01
         -2   -1    0    0    0  501 -0.00000000000E+00  0.00000000000E+00  0.77784029654E+03  0.77784029655E+03  0.25500000000E-02 0.  1.
          2   -1    0    0  501    0  0.00000000000E+00 -0.00000000000E+00 -0.37975007860E+04  0.37975007860E+04  0.25500000000E-02 0. -1.
    8880022    1    1    2    0    0  0.76166123319E+03 -0.58951660375E+03 -0.33935578259E+04  0.35309041379E+04  0.15294330000E+03 0.  0.
    8880022    1    1    2    0    0 -0.76166123319E+03  0.58951660375E+03  0.37389733641E+03  0.10444369447E+04  0.15294330000E+03 0.  0.
<mgrwt>
<rscale>  0 0.97521757E+03</rscale>
<asrwt>0</asrwt>
<pdfrwt beam="1">  1        2 0.58423088E+00 0.97521757E+03</pdfrwt>
<pdfrwt beam="2">  1       -2 0.11966774E+00 0.97521757E+03</pdfrwt>
<totfact> 0.27620066E-01</totfact>
</mgrwt>
</event>
<event>
 4    1  0.1033139E-008  0.8544328E+03  0.7818608E-02  0.9484407E-01
          2   -1    0    0  501    0  0.00000000000E+00  0.00000000000E+00  0.14845202104E+04  0.14845202104E+04  0.25500000000E-02 0. -1.
         -2   -1    0    0    0  501 -0.00000000000E+00 -0.00000000000E+00 -0.98661839721E+03  0.98661839721E+03  0.25500000000E-02 0.  1.
    8880022    1    1    2    0    0  0.12240013714E+03  0.83167423035E+03 -0.62608274696E+03  0.10592615721E+04  0.15294330000E+03 0.  0.
    8880022    1    1    2    0    0 -0.12240013714E+03 -0.83167423035E+03  0.11239845601E+04  0.14118770355E+04  0.15294330000E+03 0.  0.
<mgrwt>
<rscale>  0 0.85443284E+03</rscale>
<asrwt>0</asrwt>
<pdfrwt beam="1">  1        2 0.22838772E+00 0.85443284E+03</pdfrwt>
<pdfrwt beam="2">  1       -2 0.15178745E+00 0.85443284E+03</pdfrwt>
<totfact> 0.38013342E+00</totfact>
</mgrwt>
</event>
<event>
 4    1  0.1033139E-008  0.7730810E+03  0.7818608E-02  0.9599820E-01
          2   -1    0    0  501    0  0.00000000000E+00  0.00000000000E+00  0.28624737582E+04  0.28624737582E+04  0.25500000000E-02 0. -1.
         -2   -1    0    0    0  501 -0.00000000000E+00 -0.00000000000E+00 -0.10103208509E+04  0.10103208509E+04  0.25500000000E-02 0.  1.
    8880022    1    1    2    0    0  0.63464174586E+03 -0.41411637187E+03  0.26508222553E+04  0.27612520343E+04  0.15294330000E+03 0.  0.
    8880022    1    1    2    0    0 -0.63464174586E+03  0.41411637187E+03 -0.79866934800E+03  0.11115425748E+04  0.15294330000E+03 0.  0.
<mgrwt>
<rscale>  0 0.77308096E+03</rscale>
<asrwt>0</asrwt>
<pdfrwt beam="1">  1        2 0.44038057E+00 0.77308096E+03</pdfrwt>
<pdfrwt beam="2">  1       -2 0.15543398E+00 0.77308096E+03</pdfrwt>
<totfact> 0.61161388E-01</totfact>
</mgrwt>
</event>
<event>
 4    1  0.1033139E-008  0.1136612E+04  0.7818608E-02  0.9170224E-01
          2   -1    0    0  501    0  0.00000000000E+00  0.00000000000E+00  0.32556065783E+04  0.32556065783E+04  0.25500000000E-02 0. -1.
         -2   -1    0    0    0  501 -0.00000000000E+00 -0.00000000000E+00 -0.68855017232E+03  0.68855017232E+03  0.25500000000E-02 0.  1.
    8880022    1    1    2    0    0  0.10305465864E+04  0.45438767714E+03 -0.12556624421E+00  0.11366116736E+04  0.15294330000E+03 0.  0.
    8880022    1    1    2    0    0 -0.10305465864E+04 -0.45438767714E+03  0.25671819722E+04  0.28075450770E+04  0.15294330000E+03 0.  0.
<mgrwt>
<rscale>  0 0.11366117E+04</rscale>
<asrwt>0</asrwt>
<pdfrwt beam="1">  1        2 0.50086254E+00 0.11366117E+04</pdfrwt>
<pdfrwt beam="2">  1       -2 0.10593080E+00 0.11366117E+04</pdfrwt>
<totfact> 0.86106623E-01</totfact>
</mgrwt>
</event>
<event>
 4    1  0.1033139E-008  0.1134024E+04  0.7818608E-02  0.9172650E-01
          2   -1    0    0  501    0  0.00000000000E+00  0.00000000000E+00  0.27120094111E+04  0.27120094111E+04  0.25500000000E-02 0. -1.
         -2   -1    0    0    0  501 -0.00000000000E+00 -0.00000000000E+00 -0.68748002669E+03  0.68748002670E+03  0.25500000000E-02 0.  1.
    8880022    1    1    2    0    0  0.93575228712E+03  0.62208207835E+03  0.65508739896E+02  0.11359143907E+04  0.15294330000E+03 0.  0.
    8880022    1    1    2    0    0 -0.93575228712E+03 -0.62208207835E+03  0.19590206445E+04  0.22635750471E+04  0.15294330000E+03 0.  0.
<mgrwt>
<rscale>  0 0.11340239E+04</rscale>
<asrwt>0</asrwt>
<pdfrwt beam="1">  1        2 0.41723222E+00 0.11340239E+04</pdfrwt>
<pdfrwt beam="2">  1       -2 0.10576616E+00 0.11340239E+04</pdfrwt>
<totfact> 0.18748000E+00</totfact>
</mgrwt>
</event>
<event>
 4    1  0.1033139E-008  0.8193410E+03  0.7818608E-02  0.9532436E-01
         -2   -1    0    0    0  501 -0.00000000000E+00  0.00000000000E+00  0.37143853238E+03  0.37143853239E+03  0.25500000000E-02 0.  1.
          2   -1    0    0  501    0  0.00000000000E+00 -0.00000000000E+00 -0.36594331945E+04  0.36594331945E+04  0.25500000000E-02 0. -1.
    8880022    1    1    2    0    0 -0.74260950091E+03  0.31057866484E+03 -0.30778094712E+04  0.31850009061E+04  0.15294330000E+03 0.  0.
    8880022    1    1    2    0    0  0.74260950091E+03 -0.31057866484E+03 -0.21018519087E+03  0.84587082073E+03  0.15294330000E+03 0.  0.
<mgrwt>
<rscale>  0 0.81934097E+03</rscale>
<asrwt>0</asrwt>
<pdfrwt beam="1">  1        2 0.56298970E+00 0.81934097E+03</pdfrwt>
<pdfrwt beam="2">  1       -2 0.57144392E-01 0.81934097E+03</pdfrwt>
<totfact> 0.19342085E+00</totfact>
</mgrwt>
</event>
<event>
 4    1  0.1033139E-008  0.8757837E+03  0.7818608E-02  0.9456370E-01
          2   -1    0    0  501    0  0.00000000000E+00  0.00000000000E+00  0.11122509731E+04  0.11122509731E+04  0.25500000000E-02 0. -1.
         -2   -1    0    0    0  501 -0.00000000000E+00 -0.00000000000E+00 -0.20263152618E+04  0.20263152618E+04  0.25500000000E-02 0.  1.
    8880022    1    1    2    0    0 -0.56503343787E+03  0.65141594066E+03 -0.17316173404E+04  0.19404885417E+04  0.15294330000E+03 0.  0.
    8880022    1    1    2    0    0  0.56503343787E+03 -0.65141594066E+03  0.81755305177E+03  0.11980776933E+04  0.15294330000E+03 0.  0.
<mgrwt>
<rscale>  0 0.87578374E+03</rscale>
<asrwt>0</asrwt>
<pdfrwt beam="1">  1        2 0.17111553E+00 0.87578374E+03</pdfrwt>
<pdfrwt beam="2">  1       -2 0.31174081E+00 0.87578374E+03</pdfrwt>
<totfact> 0.59151453E-01</totfact>
</mgrwt>
</event>
<event>
 4    1  0.1033139E-008  0.1853102E+04  0.7818608E-02  0.8678559E-01
          2   -1    0    0  501    0  0.00000000000E+00  0.00000000000E+00  0.40321723822E+04  0.40321723822E+04  0.25500000000E-02 0. -1.
         -2   -1    0    0    0  501 -0.00000000000E+00 -0.00000000000E+00 -0.15493256936E+04  0.15493256936E+04  0.25500000000E-02 0.  1.
    8880022    1    1    2    0    0 -0.10082570807E+04  0.15472593665E+04  0.31141625583E+04  0.36238093191E+04  0.15294330000E+03 0.  0.
    8880022    1    1    2    0    0  0.10082570807E+04 -0.15472593665E+04 -0.63131586971E+03  0.19576887568E+04  0.15294330000E+03 0.  0.
<mgrwt>
<rscale>  0 0.18531016E+04</rscale>
<asrwt>0</asrwt>
<pdfrwt beam="1">  1        2 0.62033420E+00 0.18531016E+04</pdfrwt>
<pdfrwt beam="2">  1       -2 0.23835780E+00 0.18531016E+04</pdfrwt>
<totfact> 0.22173757E-02</totfact>
</mgrwt>
</event>
<event>
 4    1  0.1033139E-008  0.6607318E+03  0.7818608E-02  0.9786848E-01
         -2   -1    0    0    0  501 -0.00000000000E+00  0.00000000000E+00  0.93426808236E+03  0.93426808237E+03  0.25500000000E-02 0.  1.
          2   -1    0    0  501    0  0.00000000000E+00 -0.00000000000E+00 -0.13789959870E+04  0.13789959870E+04  0.25500000000E-02 0. -1.
    8880022    1    1    2    0    0 -0.54820880655E+03 -0.33562171788E+03 -0.11628298843E+04  0.13374377840E+04  0.15294330000E+03 0.  0.
    8880022    1    1    2    0    0  0.54820880655E+03  0.33562171788E+03  0.71810197968E+03  0.97582628542E+03  0.15294330000E+03 0.  0.
<mgrwt>
<rscale>  0 0.66073178E+03</rscale>
<asrwt>0</asrwt>
<pdfrwt beam="1">  1        2 0.21215323E+00 0.66073178E+03</pdfrwt>
<pdfrwt beam="2">  1       -2 0.14373355E+00 0.66073178E+03</pdfrwt>
<totfact> 0.51799708E+00</totfact>
</mgrwt>
</event>
<event>
 4    1  0.1033139E-008  0.1494452E+04  0.7818608E-02  0.8888151E-01
         -2   -1    0    0    0  501 -0.00000000000E+00  0.00000000000E+00  0.15992428152E+04  0.15992428152E+04  0.25500000000E-02 0.  1.
          2   -1    0    0  501    0  0.00000000000E+00 -0.00000000000E+00 -0.26891609638E+04  0.26891609638E+04  0.25500000000E-02 0. -1.
    8880022    1    1    2    0    0 -0.81267832400E+03  0.12448083015E+04 -0.20315623779E+04  0.25220291660E+04  0.15294330000E+03 0.  0.
    8880022    1    1    2    0    0  0.81267832400E+03 -0.12448083015E+04  0.94164422930E+03  0.17663746130E+04  0.15294330000E+03 0.  0.
<mgrwt>
<rscale>  0 0.14944515E+04</rscale>
<asrwt>0</asrwt>
<pdfrwt beam="1">  1        2 0.41371707E+00 0.14944515E+04</pdfrwt>
<pdfrwt beam="2">  1       -2 0.24603736E+00 0.14944515E+04</pdfrwt>
<totfact> 0.17210486E-01</totfact>
</mgrwt>
</event>
<event>
 4    1  0.1033139E-008  0.1038908E+04  0.7818608E-02  0.9266871E-01
         -2   -1    0    0    0  501 -0.00000000000E+00  0.00000000000E+00  0.16345087926E+04  0.16345087926E+04  0.25500000000E-02 0.  1.
          2   -1    0    0  501    0  0.00000000000E+00 -0.00000000000E+00 -0.10378045964E+04  0.10378045964E+04  0.25500000000E-02 0. -1.
    8880022    1    1    2    0    0  0.10177197890E+04 -0.14207616005E+03 -0.50746772718E+03  0.11562241787E+04  0.15294330000E+03 0.  0.
    8880022    1    1    2    0    0 -0.10177197890E+04  0.14207616005E+03  0.11041719233E+04  0.15160892103E+04  0.15294330000E+03 0.  0.
<mgrwt>
<rscale>  0 0.10389085E+04</rscale>
<asrwt>0</asrwt>
<pdfrwt beam="1">  1        2 0.15966225E+00 0.10389085E+04</pdfrwt>
<pdfrwt beam="2">  1       -2 0.25146289E+00 0.10389085E+04</pdfrwt>
<totfact> 0.14878541E+00</totfact>
</mgrwt>
</event>
<event>
 4    1  0.1033139E-008  0.3502075E+03  0.7818608E-02  0.1062530E+00
          2   -1    0    0  501    0  0.00000000000E+00  0.00000000000E+00  0.18119863901E+04  0.18119863901E+04  0.25500000000E-02 0. -1.
         -2   -1    0    0    0  501 -0.00000000000E+00 -0.00000000000E+00 -0.67801825413E+02  0.67801825461E+02  0.25500000000E-02 0.  1.
    8880022    1    1    2    0    0 -0.24380741580E+03 -0.19952840426E+03  0.83316943677E+03  0.90377906785E+03  0.15294330000E+03 0.  1.
    8880022    1    1    2    0    0  0.24380741580E+03  0.19952840426E+03  0.91101512792E+03  0.97600914771E+03  0.15294330000E+03 0. -1.
<mgrwt>
<rscale>  0 0.35020750E+03</rscale>
<asrwt>0</asrwt>
<pdfrwt beam="1">  1        2 0.27876717E+00 0.35020750E+03</pdfrwt>
<pdfrwt beam="2">  1       -2 0.10431049E-01 0.35020750E+03</pdfrwt>
<totfact> 0.57360445E+02</totfact>
</mgrwt>
</event>
<event>
 4    1  0.1033139E-008  0.4114477E+03  0.7818608E-02  0.1039886E+00
         -2   -1    0    0    0  501 -0.00000000000E+00  0.00000000000E+00  0.13611672013E+03  0.13611672015E+03  0.25500000000E-02 0.  1.
          2   -1    0    0  501    0  0.00000000000E+00 -0.00000000000E+00 -0.23973009172E+04  0.23973009172E+04  0.25500000000E-02 0. -1.
    8880022    1    1    2    0    0  0.32087961927E+03 -0.20720470375E+03 -0.25188891882E+03  0.48242844004E+03  0.15294330000E+03 0.  0.
    8880022    1    1    2    0    0 -0.32087961927E+03  0.20720470375E+03 -0.20092952782E+04  0.20509891973E+04  0.15294330000E+03 0.  0.
<mgrwt>
<rscale>  0 0.41144765E+03</rscale>
<asrwt>0</asrwt>
<pdfrwt beam="1">  1        2 0.36881549E+00 0.41144765E+03</pdfrwt>
<pdfrwt beam="2">  1       -2 0.20941036E-01 0.41144765E+03</pdfrwt>
<totfact> 0.85886873E+01</totfact>
</mgrwt>
</event>
<event>
 4    1  0.1033139E-008  0.6473948E+03  0.7818608E-02  0.9811680E-01
          2   -1    0    0  501    0  0.00000000000E+00  0.00000000000E+00  0.19580896632E+04  0.19580896632E+04  0.25500000000E-02 0. -1.
         -2   -1    0    0    0  501 -0.00000000000E+00 -0.00000000000E+00 -0.18264045159E+04  0.18264045159E+04  0.25500000000E-02 0.  1.
    8880022    1    1    2    0    0 -0.58062672909E+03 -0.24207625743E+03 -0.17120694077E+04  0.18303829169E+04  0.15294330000E+03 0.  0.
    8880022    1    1    2    0    0  0.58062672909E+03  0.24207625743E+03  0.18437545549E+04  0.19541112621E+04  0.15294330000E+03 0. -1.
<mgrwt>
<rscale>  0 0.64739475E+03</rscale>
<asrwt>0</asrwt>
<pdfrwt beam="1">  1        2 0.30124456E+00 0.64739475E+03</pdfrwt>
<pdfrwt beam="2">  1       -2 0.28098531E+00 0.64739475E+03</pdfrwt>
<totfact> 0.31895612E-01</totfact>
</mgrwt>
</event>
<event>
 4    1  0.1033139E-008  0.2506330E+03  0.7818608E-02  0.1112905E+00
          2   -1    0    0  501    0  0.00000000000E+00  0.00000000000E+00  0.17617717547E+04  0.17617717547E+04  0.25500000000E-02 0. -1.
         -2   -1    0    0    0  501 -0.00000000000E+00 -0.00000000000E+00 -0.18438897447E+03  0.18438897449E+03  0.25500000000E-02 0.  1.
    8880022    1    1    2    0    0 -0.15277113038E+03 -0.12683151063E+03  0.16626393130E+04  0.16814239169E+04  0.15294330000E+03 0.  0.
    8880022    1    1    2    0    0  0.15277113038E+03  0.12683151063E+03 -0.85256532755E+02  0.26473681224E+03  0.15294330000E+03 0.  0.
<mgrwt>
<rscale>  0 0.25063301E+03</rscale>
<asrwt>0</asrwt>
<pdfrwt beam="1">  1        2 0.27104181E+00 0.25063301E+03</pdfrwt>
<pdfrwt beam="2">  1       -2 0.28367534E-01 0.25063301E+03</pdfrwt>
<totfact> 0.11405720E+02</totfact>
</mgrwt>
</event>
<event>
 4    1  0.1033139E-008  0.4396771E+03  0.7818608E-02  0.1030846E+00
         -2   -1    0    0    0  501 -0.00000000000E+00  0.00000000000E+00  0.28454952374E+03  0.28454952376E+03  0.25500000000E-02 0.  1.
          2   -1    0    0  501    0  0.00000000000E+00 -0.00000000000E+00 -0.72930555262E+03  0.72930555262E+03  0.25500000000E-02 0. -1.
    8880022    1    1    2    0    0 -0.39607523581E+03 -0.11423097737E+03 -0.35501735077E+03  0.56511351158E+03  0.15294330000E+03 0. -1.
    8880022    1    1    2    0    0  0.39607523581E+03  0.11423097737E+03 -0.89738678104E+02  0.44874156479E+03  0.15294330000E+03 0.  1.
<mgrwt>
<rscale>  0 0.43967711E+03</rscale>
<asrwt>0</asrwt>
<pdfrwt beam="1">  1        2 0.11220085E+00 0.43967711E+03</pdfrwt>
<pdfrwt beam="2">  1       -2 0.43776850E-01 0.43967711E+03</pdfrwt>
<totfact> 0.19805596E+02</totfact>
</mgrwt>
</event>
<event>
 4    1  0.1033139E-008  0.6947937E+03  0.7818608E-02  0.9726177E-01
          2   -1    0    0  501    0  0.00000000000E+00  0.00000000000E+00  0.49190850553E+03  0.49190850554E+03  0.25500000000E-02 0. -1.
         -2   -1    0    0    0  501 -0.00000000000E+00 -0.00000000000E+00 -0.33691737614E+04  0.33691737614E+04  0.25500000000E-02 0.  1.
    8880022    1    1    2    0    0 -0.53609419972E+03  0.41466815061E+03  0.18660836175E+03  0.71941712504E+03  0.15294330000E+03 0.  0.
    8880022    1    1    2    0    0  0.53609419972E+03 -0.41466815061E+03 -0.30638736176E+04  0.31416651419E+04  0.15294330000E+03 0.  0.
<mgrwt>
<rscale>  0 0.69479372E+03</rscale>
<asrwt>0</asrwt>
<pdfrwt beam="1">  1        2 0.75678234E-01 0.69479372E+03</pdfrwt>
<pdfrwt beam="2">  1       -2 0.51833441E+00 0.69479372E+03</pdfrwt>
<totfact> 0.85301847E-02</totfact>
</mgrwt>
</event>
<event>
 4    1  0.1033139E-008  0.1098104E+04  0.7818608E-02  0.9207042E-01
         -2   -1    0    0    0  501 -0.00000000000E+00  0.00000000000E+00  0.12723263462E+04  0.12723263462E+04  0.25500000000E-02 0.  1.
          2   -1    0    0  501    0  0.00000000000E+00 -0.00000000000E+00 -0.10872895246E+04  0.10872895246E+04  0.25500000000E-02 0. -1.
    8880022    1    1    2    0    0 -0.60750510424E+03 -0.90187460180E+03 -0.33015619482E+03  0.11466625550E+04  0.15294330000E+03 0.  0.
    8880022    1    1    2    0    0  0.60750510424E+03  0.90187460180E+03  0.51519301642E+03  0.12129533158E+04  0.15294330000E+03 0.  0.
<mgrwt>
<rscale>  0 0.10981038E+04</rscale>
<asrwt>0</asrwt>
<pdfrwt beam="1">  1        2 0.16727531E+00 0.10981038E+04</pdfrwt>
<pdfrwt beam="2">  1       -2 0.19574251E+00 0.10981038E+04</pdfrwt>
<totfact> 0.30898673E+00</totfact>
</mgrwt>
</event>
<event>
 4    1  0.1033139E-008  0.4118090E+03  0.7818608E-02  0.1039766E+00
         -2   -1    0    0    0  501 -0.00000000000E+00  0.00000000000E+00  0.18425468244E+03  0.18425468246E+03  0.25500000000E-02 0.  1.
          2   -1    0    0  501    0  0.00000000000E+00 -0.00000000000E+00 -0.26219169468E+04  0.26219169468E+04  0.25500000000E-02 0. -1.
    8880022    1    1    2    0    0 -0.11045951277E+02 -0.38219493204E+03 -0.88530781887E+02  0.42121767706E+03  0.15294330000E+03 0.  0.
    8880022    1    1    2    0    0  0.11045951277E+02  0.38219493204E+03 -0.23491314824E+04  0.23849539522E+04  0.15294330000E+03 0. -1.
<mgrwt>
<rscale>  0 0.41180898E+03</rscale>
<asrwt>0</asrwt>
<pdfrwt beam="1">  1        2 0.40337181E+00 0.41180898E+03</pdfrwt>
<pdfrwt beam="2">  1       -2 0.28346876E-01 0.41180898E+03</pdfrwt>
<totfact> 0.37560256E+01</totfact>
</mgrwt>
</event>
<event>
 4    1  0.1033139E-008  0.1023829E+04  0.7818608E-02  0.9282789E-01
          2   -1    0    0  501    0  0.00000000000E+00  0.00000000000E+00  0.20477901347E+04  0.20477901347E+04  0.25500000000E-02 0. -1.
         -2   -1    0    0    0  501 -0.00000000000E+00 -0.00000000000E+00 -0.87603238589E+03  0.87603238590E+03  0.25500000000E-02 0.  1.
    8880022    1    1    2    0    0 -0.10123161431E+04  0.71122271809E+01 -0.35666488273E+03  0.10841752851E+04  0.15294330000E+03 0.  0.
    8880022    1    1    2    0    0  0.10123161431E+04 -0.71122271809E+01  0.15284226316E+04  0.18396472355E+04  0.15294330000E+03 0.  0.
<mgrwt>
<rscale>  0 0.10238292E+04</rscale>
<asrwt>0</asrwt>
<pdfrwt beam="1">  1        2 0.31504464E+00 0.10238292E+04</pdfrwt>
<pdfrwt beam="2">  1       -2 0.13477421E+00 0.10238292E+04</pdfrwt>
<totfact> 0.24790654E+00</totfact>
</mgrwt>
</event>
<event>
 4    1  0.1033139E-008  0.8093972E+03  0.7818608E-02  0.9546514E-01
         -2   -1    0    0    0  501 -0.00000000000E+00  0.00000000000E+00  0.87304479550E+03  0.87304479551E+03  0.25500000000E-02 0.  1.
          2   -1    0    0  501    0  0.00000000000E+00 -0.00000000000E+00 -0.10150077610E+04  0.10150077610E+04  0.25500000000E-02 0. -1.
    8880022    1    1    2    0    0 -0.84597236037E+02 -0.79030087149E+03  0.41103196223E+03  0.90778361233E+03  0.15294330000E+03 0.  0.
    8880022    1    1    2    0    0  0.84597236037E+02  0.79030087149E+03 -0.55299492777E+03  0.98026894421E+03  0.15294330000E+03 0. -1.
<mgrwt>
<rscale>  0 0.80939719E+03</rscale>
<asrwt>0</asrwt>
<pdfrwt beam="1">  1        2 0.15615504E+00 0.80939719E+03</pdfrwt>
<pdfrwt beam="2">  1       -2 0.13431458E+00 0.80939719E+03</pdfrwt>
<totfact> 0.99525741E+00</totfact>
</mgrwt>
</event>
<event>
 4    1  0.1033139E-008  0.2955910E+03  0.7818608E-02  0.1087466E+00
          2   -1    0    0  501    0  0.00000000000E+00  0.00000000000E+00  0.12215086127E+04  0.12215086127E+04  0.25500000000E-02 0. -1.
         -2   -1    0    0    0  501 -0.00000000000E+00 -0.00000000000E+00 -0.10147020004E+03  0.10147020008E+03  0.25500000000E-02 0.  1.
    8880022    1    1    2    0    0  0.22969027829E+02  0.25190232335E+03  0.91934133229E+03  0.96569275395E+03  0.15294330000E+03 0.  0.
    8880022    1    1    2    0    0 -0.22969027829E+02 -0.25190232335E+03  0.20069708034E+03  0.35728605881E+03  0.15294330000E+03 0.  0.
<mgrwt>
<rscale>  0 0.29559095E+03</rscale>
<asrwt>0</asrwt>
<pdfrwt beam="1">  1        2 0.18792441E+00 0.29559095E+03</pdfrwt>
<pdfrwt beam="2">  1       -2 0.15610799E-01 0.29559095E+03</pdfrwt>
<totfact> 0.62312458E+02</totfact>
</mgrwt>
</event>
<event>
 4    1  0.1033139E-008  0.4867282E+03  0.7818608E-02  0.1017302E+00
         -2   -1    0    0    0  501 -0.00000000000E+00  0.00000000000E+00  0.33877102997E+03  0.33877102998E+03  0.25500000000E-02 0.  1.
          2   -1    0    0  501    0  0.00000000000E+00 -0.00000000000E+00 -0.20528815664E+04  0.20528815664E+04  0.25500000000E-02 0. -1.
    8880022    1    1    2    0    0 -0.45881960104E+03 -0.54747373207E+02 -0.18280738228E+04  0.18917606232E+04  0.15294330000E+03 0.  0.
    8880022    1    1    2    0    0  0.45881960104E+03  0.54747373207E+02  0.11396328632E+03  0.49989197314E+03  0.15294330000E+03 0.  0.
<mgrwt>
<rscale>  0 0.48672821E+03</rscale>
<asrwt>0</asrwt>
<pdfrwt beam="1">  1        2 0.31582792E+00 0.48672821E+03</pdfrwt>
<pdfrwt beam="2">  1       -2 0.52118622E-01 0.48672821E+03</pdfrwt>
<totfact> 0.23485635E+01</totfact>
</mgrwt>
</event>
<event>
 4    1  0.1033139E-008  0.5797341E+03  0.7818608E-02  0.9948367E-01
         -2   -1    0    0    0  501 -0.00000000000E+00  0.00000000000E+00  0.53702885353E+03  0.53702885354E+03  0.25500000000E-02 0.  1.
          2   -1    0    0  501    0  0.00000000000E+00 -0.00000000000E+00 -0.15889141304E+04  0.15889141304E+04  0.25500000000E-02 0. -1.
    8880022    1    1    2    0    0  0.50337085882E+03 -0.24355242196E+03 -0.13535079986E+04  0.14724386435E+04  0.15294330000E+03 0.  0.
    8880022    1    1    2    0    0 -0.50337085882E+03  0.24355242196E+03  0.30162272166E+03  0.65350434045E+03  0.15294330000E+03 0.  0.
<mgrwt>
<rscale>  0 0.57973413E+03</rscale>
<asrwt>0</asrwt>
<pdfrwt beam="1">  1        2 0.24444833E+00 0.57973413E+03</pdfrwt>
<pdfrwt beam="2">  1       -2 0.82619824E-01 0.57973413E+03</pdfrwt>
<totfact> 0.15300544E+01</totfact>
</mgrwt>
</event>
<event>
 4    1  0.1033139E-008  0.7738802E+03  0.7818608E-02  0.9598613E-01
         -2   -1    0    0    0  501 -0.00000000000E+00  0.00000000000E+00  0.30761630163E+03  0.30761630164E+03  0.25500000000E-02 0.  1.
          2   -1    0    0  501    0  0.00000000000E+00 -0.00000000000E+00 -0.29582617489E+04  0.29582617489E+04  0.25500000000E-02 0. -1.
    8880022    1    1    2    0    0 -0.46450218048E+03 -0.59978050678E+03 -0.37052751565E+03  0.85801003773E+03  0.15294330000E+03 0.  0.
    8880022    1    1    2    0    0  0.46450218048E+03  0.59978050678E+03 -0.22801179316E+04  0.24078680128E+04  0.15294330000E+03 0.  0.
<mgrwt>
<rscale>  0 0.77388021E+03</rscale>
<asrwt>0</asrwt>
<pdfrwt beam="1">  1        2 0.45511717E+00 0.77388021E+03</pdfrwt>
<pdfrwt beam="2">  1       -2 0.47325587E-01 0.77388021E+03</pdfrwt>
<totfact> 0.82800091E+00</totfact>
</mgrwt>
</event>
<event>
 4    1  0.1033139E-008  0.1374555E+04  0.7818608E-02  0.8972446E-01
          2   -1    0    0  501    0  0.00000000000E+00  0.00000000000E+00  0.14141147962E+04  0.14141147962E+04  0.25500000000E-02 0. -1.
         -2   -1    0    0    0  501 -0.00000000000E+00 -0.00000000000E+00 -0.31914763200E+04  0.31914763200E+04  0.25500000000E-02 0.  1.
    8880022    1    1    2    0    0  0.13284068679E+04 -0.31834718132E+03  0.86712050763E+03  0.16252074828E+04  0.15294330000E+03 0.  0.
    8880022    1    1    2    0    0 -0.13284068679E+04  0.31834718132E+03 -0.26444820315E+04  0.29803836334E+04  0.15294330000E+03 0.  0.
<mgrwt>
<rscale>  0 0.13745550E+04</rscale>
<asrwt>0</asrwt>
<pdfrwt beam="1">  1        2 0.21755612E+00 0.13745550E+04</pdfrwt>
<pdfrwt beam="2">  1       -2 0.49099636E+00 0.13745550E+04</pdfrwt>
<totfact> 0.25400233E-02</totfact>
</mgrwt>
</event>
<event>
 4    1  0.1542842E-008  0.1059816E+04  0.7818608E-02  0.9245268E-01
         -2   -1    0    0    0  501 -0.00000000000E+00  0.00000000000E+00  0.21418188622E+04  0.21418188622E+04  0.25500000000E-02 0.  1.
          2   -1    0    0  501    0  0.00000000000E+00 -0.00000000000E+00 -0.19831535891E+04  0.19831535892E+04  0.25500000000E-02 0. -1.
    8880022    1    1    2    0    0 -0.64312768000E+03  0.82837502333E+03 -0.16895582897E+04  0.19944466048E+04  0.15294330000E+03 0.  0.
    8880022    1    1    2    0    0  0.64312768000E+03 -0.82837502333E+03  0.18482235628E+04  0.21305258466E+04  0.15294330000E+03 0.  0.
<mgrwt>
<rscale>  0 0.10598160E+04</rscale>
<asrwt>0</asrwt>
<pdfrwt beam="1">  1        2 0.30510055E+00 0.10598160E+04</pdfrwt>
<pdfrwt beam="2">  1       -2 0.32951060E+00 0.10598160E+04</pdfrwt>
<totfact> 0.14317929E-01</totfact>
</mgrwt>
</event>
<event>
 4    1  0.1033139E-008  0.4131032E+03  0.7818608E-02  0.1039335E+00
         -2   -1    0    0    0  501 -0.00000000000E+00  0.00000000000E+00  0.20732597308E+03  0.20732597309E+03  0.25500000000E-02 0.  1.
          2   -1    0    0  501    0  0.00000000000E+00 -0.00000000000E+00 -0.10373859587E+04  0.10373859587E+04  0.25500000000E-02 0. -1.
    8880022    1    1    2    0    0  0.74321529469E+01 -0.38367614991E+03 -0.69787248972E+03  0.81097490086E+03  0.15294330000E+03 0.  0.
    8880022    1    1    2    0    0 -0.74321529469E+01  0.38367614991E+03 -0.13218749590E+03  0.43373703093E+03  0.15294330000E+03 0.  0.
<mgrwt>
<rscale>  0 0.41310323E+03</rscale>
<asrwt>0</asrwt>
<pdfrwt beam="1">  1        2 0.15959784E+00 0.41310323E+03</pdfrwt>
<pdfrwt beam="2">  1       -2 0.31896304E-01 0.41310323E+03</pdfrwt>
<totfact> 0.22569885E+02</totfact>
</mgrwt>
</event>
<event>
 4    1  0.1033139E-008  0.9198816E+03  0.7818608E-02  0.9401064E-01
          2   -1    0    0  501    0  0.00000000000E+00  0.00000000000E+00  0.19658696916E+04  0.19658696916E+04  0.25500000000E-02 0. -1.
         -2   -1    0    0    0  501 -0.00000000000E+00 -0.00000000000E+00 -0.97496598625E+03  0.97496598625E+03  0.25500000000E-02 0.  1.
    8880022    1    1    2    0    0  0.61814801754E+03 -0.66384000761E+03 -0.60344444184E+03  0.11001487966E+04  0.15294330000E+03 0.  0.
    8880022    1    1    2    0    0 -0.61814801754E+03  0.66384000761E+03  0.15943481472E+04  0.18406868812E+04  0.15294330000E+03 0.  0.
<mgrwt>
<rscale>  0 0.91988161E+03</rscale>
<asrwt>0</asrwt>
<pdfrwt beam="1">  1        2 0.30244149E+00 0.91988161E+03</pdfrwt>
<pdfrwt beam="2">  1       -2 0.14999477E+00 0.91988161E+03</pdfrwt>
<totfact> 0.21095127E+00</totfact>
</mgrwt>
</event>
<event>
 4    1  0.1033139E-008  0.3908978E+03  0.7818608E-02  0.1046978E+00
         -2   -1    0    0    0  501 -0.00000000000E+00  0.00000000000E+00  0.37241275551E+03  0.37241275552E+03  0.25500000000E-02 0.  1.
          2   -1    0    0  501    0  0.00000000000E+00 -0.00000000000E+00 -0.21427428194E+04  0.21427428194E+04  0.25500000000E-02 0. -1.
    8880022    1    1    2    0    0 -0.31583065110E+03  0.17222212047E+03  0.24561787491E+03  0.46165923845E+03  0.15294330000E+03 0.  0.
    8880022    1    1    2    0    0  0.31583065110E+03 -0.17222212047E+03 -0.20159479388E+04  0.20534963365E+04  0.15294330000E+03 0.  0.
<mgrwt>
<rscale>  0 0.39089783E+03</rscale>
<asrwt>0</asrwt>
<pdfrwt beam="1">  1        2 0.32965273E+00 0.39089783E+03</pdfrwt>
<pdfrwt beam="2">  1       -2 0.57294272E-01 0.39089783E+03</pdfrwt>
<totfact> 0.17714580E+01</totfact>
</mgrwt>
</event>
<event>
 4    1  0.1033139E-008  0.4555016E+03  0.7818608E-02  0.1026094E+00
          2   -1    0    0  501    0  0.00000000000E+00  0.00000000000E+00  0.35953143026E+04  0.35953143026E+04  0.25500000000E-02 0. -1.
         -2   -1    0    0    0  501 -0.00000000000E+00 -0.00000000000E+00 -0.49771791139E+03  0.49771791140E+03  0.25500000000E-02 0.  1.
    8880022    1    1    2    0    0  0.28680752856E+03 -0.31911042033E+03 -0.37541997892E+03  0.59027267630E+03  0.15294330000E+03 0.  1.
    8880022    1    1    2    0    0 -0.28680752856E+03  0.31911042033E+03  0.34730163701E+04  0.35027595377E+04  0.15294330000E+03 0.  0.
<mgrwt>
<rscale>  0 0.45550156E+03</rscale>
<asrwt>0</asrwt>
<pdfrwt beam="1">  1        2 0.55312530E+00 0.45550156E+03</pdfrwt>
<pdfrwt beam="2">  1       -2 0.76571983E-01 0.45550156E+03</pdfrwt>
<totfact> 0.12688976E+00</totfact>
</mgrwt>
</event>
<event>
 4    1  0.1033139E-008  0.8414765E+03  0.7818608E-02  0.9501849E-01
          2   -1    0    0  501    0  0.00000000000E+00  0.00000000000E+00  0.97868379827E+03  0.97868379828E+03  0.25500000000E-02 0. -1.
         -2   -1    0    0    0  501 -0.00000000000E+00 -0.00000000000E+00 -0.16153558452E+04  0.16153558452E+04  0.25500000000E-02 0.  1.
    8880022    1    1    2    0    0  0.73529263330E+03  0.37952058448E+03  0.64540108844E+03  0.10604835447E+04  0.15294330000E+03 0.  0.
    8880022    1    1    2    0    0 -0.73529263330E+03 -0.37952058448E+03 -0.12820731353E+04  0.15335560987E+04  0.15294330000E+03 0.  0.
<mgrwt>
<rscale>  0 0.84147655E+03</rscale>
<asrwt>0</asrwt>
<pdfrwt beam="1">  1        2 0.15056674E+00 0.84147655E+03</pdfrwt>
<pdfrwt beam="2">  1       -2 0.24851628E+00 0.84147655E+03</pdfrwt>
<totfact> 0.17379447E+00</totfact>
</mgrwt>
</event>
<event>
 4    1  0.1033139E-008  0.1622420E+04  0.7818608E-02  0.8806892E-01
          2   -1    0    0  501    0  0.00000000000E+00  0.00000000000E+00  0.33307269826E+04  0.33307269826E+04  0.25500000000E-02 0. -1.
         -2   -1    0    0    0  501 -0.00000000000E+00 -0.00000000000E+00 -0.93946791764E+03  0.93946791765E+03  0.25500000000E-02 0.  1.
    8880022    1    1    2    0    0 -0.13537165009E+04 -0.88108250735E+03  0.34483185357E+03  0.16586607278E+04  0.15294330000E+03 0.  0.
    8880022    1    1    2    0    0  0.13537165009E+04  0.88108250735E+03  0.20464272114E+04  0.26115341725E+04  0.15294330000E+03 0.  0.
<mgrwt>
<rscale>  0 0.16224199E+04</rscale>
<asrwt>0</asrwt>
<pdfrwt beam="1">  1        2 0.51241953E+00 0.16224199E+04</pdfrwt>
<pdfrwt beam="2">  1       -2 0.14453353E+00 0.16224199E+04</pdfrwt>
<totfact> 0.32943795E-01</totfact>
</mgrwt>
</event>
<event>
 4    1  0.1033139E-008  0.9434887E+03  0.7818608E-02  0.9372794E-01
          2   -1    0    0  501    0  0.00000000000E+00  0.00000000000E+00  0.29275576682E+04  0.29275576682E+04  0.25500000000E-02 0. -1.
         -2   -1    0    0    0  501 -0.00000000000E+00 -0.00000000000E+00 -0.14045525933E+04  0.14045525933E+04  0.25500000000E-02 0.  1.
    8880022    1    1    2    0    0  0.45056416502E+03  0.81472157356E+03  0.26788148752E+04  0.28401091701E+04  0.15294330000E+03 0.  0.
    8880022    1    1    2    0    0 -0.45056416502E+03 -0.81472157356E+03 -0.11558098003E+04  0.14920010914E+04  0.15294330000E+03 0.  0.
<mgrwt>
<rscale>  0 0.94348872E+03</rscale>
<asrwt>0</asrwt>
<pdfrwt beam="1">  1        2 0.45039348E+00 0.94348872E+03</pdfrwt>
<pdfrwt beam="2">  1       -2 0.21608502E+00 0.94348872E+03</pdfrwt>
<totfact> 0.20799474E-01</totfact>
</mgrwt>
</event>
<event>
 4    1  0.1033139E-008  0.5981065E+03  0.7818608E-02  0.9909342E-01
          2   -1    0    0  501    0  0.00000000000E+00  0.00000000000E+00  0.68397995786E+03  0.68397995787E+03  0.25500000000E-02 0. -1.
         -2   -1    0    0    0  501 -0.00000000000E+00 -0.00000000000E+00 -0.12937325349E+04  0.12937325349E+04  0.25500000000E-02 0.  1.
    8880022    1    1    2    0    0  0.30561719424E+03  0.49085419444E+03  0.45835945728E+03  0.75354147511E+03  0.15294330000E+03 0.  0.
    8880022    1    1    2    0    0 -0.30561719424E+03 -0.49085419444E+03 -0.10681120343E+04  0.12241710176E+04  0.15294330000E+03 0.  0.
<mgrwt>
<rscale>  0 0.59810648E+03</rscale>
<asrwt>0</asrwt>
<pdfrwt beam="1">  1        2 0.10522769E+00 0.59810648E+03</pdfrwt>
<pdfrwt beam="2">  1       -2 0.19903577E+00 0.59810648E+03</pdfrwt>
<totfact> 0.59367099E+00</totfact>
</mgrwt>
</event>
<event>
 4    1  0.1033139E-008  0.4043047E+03  0.7818608E-02  0.1042299E+00
         -2   -1    0    0    0  501 -0.00000000000E+00  0.00000000000E+00  0.17165222595E+04  0.17165222595E+04  0.25500000000E-02 0.  1.
          2   -1    0    0  501    0  0.00000000000E+00 -0.00000000000E+00 -0.60210076367E+03  0.60210076367E+03  0.25500000000E-02 0. -1.
    8880022    1    1    2    0    0  0.20568940664E+03  0.31266998154E+03 -0.50647834839E+03  0.64806066056E+03  0.15294330000E+03 0.  0.
    8880022    1    1    2    0    0 -0.20568940664E+03 -0.31266998154E+03  0.16208998443E+04  0.16705623626E+04  0.15294330000E+03 0.  1.
<mgrwt>
<rscale>  0 0.40430471E+03</rscale>
<asrwt>0</asrwt>
<pdfrwt beam="1">  1        2 0.92630888E-01 0.40430471E+03</pdfrwt>
<pdfrwt beam="2">  1       -2 0.26408035E+00 0.40430471E+03</pdfrwt>
<totfact> 0.28826667E+00</totfact>
</mgrwt>
</event>
<event>
 4    1  0.1033139E-008  0.7734041E+03  0.7818608E-02  0.9599332E-01
         -2   -1    0    0    0  501 -0.00000000000E+00  0.00000000000E+00  0.35910986916E+03  0.35910986917E+03  0.25500000000E-02 0.  1.
          2   -1    0    0  501    0  0.00000000000E+00 -0.00000000000E+00 -0.23626218581E+04  0.23626218581E+04  0.25500000000E-02 0. -1.
    8880022    1    1    2    0    0 -0.61477790449E+03  0.44363314677E+03 -0.17408907583E+04  0.19049552557E+04  0.15294330000E+03 0.  0.
    8880022    1    1    2    0    0  0.61477790449E+03 -0.44363314677E+03 -0.26262123064E+03  0.81677647161E+03  0.15294330000E+03 0.  0.
<mgrwt>
<rscale>  0 0.77340409E+03</rscale>
<asrwt>0</asrwt>
<pdfrwt beam="1">  1        2 0.36348028E+00 0.77340409E+03</pdfrwt>
<pdfrwt beam="2">  1       -2 0.55247674E-01 0.77340409E+03</pdfrwt>
<totfact> 0.13379948E+01</totfact>
</mgrwt>
</event>
<event>
 4    1  0.1033139E-008  0.1099295E+04  0.7818608E-02  0.9205879E-01
         -2   -1    0    0    0  501 -0.00000000000E+00  0.00000000000E+00  0.47868235841E+03  0.47868235841E+03  0.25500000000E-02 0.  1.
          2   -1    0    0  501    0  0.00000000000E+00 -0.00000000000E+00 -0.34257515613E+04  0.34257515613E+04  0.25500000000E-02 0. -1.
    8880022    1    1    2    0    0  0.62939692258E+03  0.88821037812E+03 -0.24748364304E+04  0.27080002164E+04  0.15294330000E+03 0.  0.
    8880022    1    1    2    0    0 -0.62939692258E+03 -0.88821037812E+03 -0.47223277252E+03  0.11964337033E+04  0.15294330000E+03 0.  0.
<mgrwt>
<rscale>  0 0.10992951E+04</rscale>
<asrwt>0</asrwt>
<pdfrwt beam="1">  1        2 0.52703868E+00 0.10992951E+04</pdfrwt>
<pdfrwt beam="2">  1       -2 0.73643442E-01 0.10992951E+04</pdfrwt>
<totfact> 0.15485006E+00</totfact>
</mgrwt>
</event>
<event>
 4    1  0.1033139E-008  0.8862400E+03  0.7818608E-02  0.9442947E-01
          2   -1    0    0  501    0  0.00000000000E+00  0.00000000000E+00  0.86130747256E+03  0.86130747257E+03  0.25500000000E-02 0. -1.
         -2   -1    0    0    0  501 -0.00000000000E+00 -0.00000000000E+00 -0.24253905629E+04  0.24253905629E+04  0.25500000000E-02 0.  1.
    8880022    1    1    2    0    0  0.86039962467E+03  0.14745233644E+03  0.51612271090E+03  0.10255749662E+04  0.15294330000E+03 0.  0.
    8880022    1    1    2    0    0 -0.86039962467E+03 -0.14745233644E+03 -0.20802058012E+04  0.22611230692E+04  0.15294330000E+03 0.  0.
<mgrwt>
<rscale>  0 0.88624001E+03</rscale>
<asrwt>0</asrwt>
<pdfrwt beam="1">  1        2 0.13250884E+00 0.88624001E+03</pdfrwt>
<pdfrwt beam="2">  1       -2 0.37313701E+00 0.88624001E+03</pdfrwt>
<totfact> 0.35734513E-01</totfact>
</mgrwt>
</event>
<event>
 4    1  0.1033139E-008  0.5657856E+03  0.7818608E-02  0.9979048E-01
          2   -1    0    0  501    0  0.00000000000E+00  0.00000000000E+00  0.30946715242E+04  0.30946715242E+04  0.25500000000E-02 0. -1.
         -2   -1    0    0    0  501 -0.00000000000E+00 -0.00000000000E+00 -0.16698435120E+04  0.16698435120E+04  0.25500000000E-02 0.  1.
    8880022    1    1    2    0    0 -0.23113777473E+02 -0.54423106412E+03 -0.15948783106E+04  0.16922618522E+04  0.15294330000E+03 0.  0.
    8880022    1    1    2    0    0  0.23113777473E+02  0.54423106412E+03  0.30197063228E+04  0.30722531841E+04  0.15294330000E+03 0.  0.
<mgrwt>
<rscale>  0 0.56578561E+03</rscale>
<asrwt>0</asrwt>
<pdfrwt beam="1">  1        2 0.47610331E+00 0.56578561E+03</pdfrwt>
<pdfrwt beam="2">  1       -2 0.25689900E+00 0.56578561E+03</pdfrwt>
<totfact> 0.10273206E-01</totfact>
</mgrwt>
</event>
<event>
 4    1  0.1033139E-008  0.8560220E+03  0.7818608E-02  0.9482290E-01
          2   -1    0    0  501    0  0.00000000000E+00  0.00000000000E+00  0.23813326786E+04  0.23813326786E+04  0.25500000000E-02 0. -1.
         -2   -1    0    0    0  501 -0.00000000000E+00 -0.00000000000E+00 -0.11106233535E+04  0.11106233535E+04  0.25500000000E-02 0.  1.
    8880022    1    1    2    0    0  0.25670622888E+03  0.80217444824E+03 -0.84917251959E+03  0.12057643030E+04  0.15294330000E+03 0.  0.
    8880022    1    1    2    0    0 -0.25670622888E+03 -0.80217444824E+03  0.21198818447E+04  0.22861917291E+04  0.15294330000E+03 0.  0.
<mgrwt>
<rscale>  0 0.85602195E+03</rscale>
<asrwt>0</asrwt>
<pdfrwt beam="1">  1        2 0.36635887E+00 0.85602195E+03</pdfrwt>
<pdfrwt beam="2">  1       -2 0.17086513E+00 0.85602195E+03</pdfrwt>
<totfact> 0.88066448E-01</totfact>
</mgrwt>
</event>
<event>
 4    1  0.1033139E-008  0.3919444E+03  0.7818608E-02  0.1046605E+00
          2   -1    0    0  501    0  0.00000000000E+00  0.00000000000E+00  0.20672315328E+04  0.20672315328E+04  0.25500000000E-02 0. -1.
         -2   -1    0    0    0  501 -0.00000000000E+00 -0.00000000000E+00 -0.20095273555E+03  0.20095273557E+03  0.25500000000E-02 0.  1.
    8880022    1    1    2    0    0 -0.23089852247E+02 -0.36013277321E+03  0.32838173392E+02  0.39331762516E+03  0.15294330000E+03 0.  0.
    8880022    1    1    2    0    0  0.23089852247E+02  0.36013277321E+03  0.18334406239E+04  0.18748666432E+04  0.15294330000E+03 0.  0.
<mgrwt>
<rscale>  0 0.39194439E+03</rscale>
<asrwt>0</asrwt>
<pdfrwt beam="1">  1        2 0.31803563E+00 0.39194439E+03</pdfrwt>
<pdfrwt beam="2">  1       -2 0.30915805E-01 0.39194439E+03</pdfrwt>
<totfact> 0.64805951E+01</totfact>
</mgrwt>
</event>
<event>
 4    1  0.1033139E-008  0.5449313E+03  0.7818608E-02  0.1002674E+00
          2   -1    0    0  501    0  0.00000000000E+00  0.00000000000E+00  0.47753030275E+03  0.47753030276E+03  0.25500000000E-02 0. -1.
         -2   -1    0    0    0  501 -0.00000000000E+00 -0.00000000000E+00 -0.16757463710E+04  0.16757463710E+04  0.25500000000E-02 0.  1.
    8880022    1    1    2    0    0 -0.65893927062E+02  0.51886071161E+03  0.25471047403E+03  0.60152101067E+03  0.15294330000E+03 0.  0.
    8880022    1    1    2    0    0  0.65893927062E+02 -0.51886071161E+03 -0.14529265423E+04  0.15517556631E+04  0.15294330000E+03 0.  0.
<mgrwt>
<rscale>  0 0.54493128E+03</rscale>
<asrwt>0</asrwt>
<pdfrwt beam="1">  1        2 0.73466201E-01 0.54493128E+03</pdfrwt>
<pdfrwt beam="2">  1       -2 0.25780713E+00 0.54493128E+03</pdfrwt>
<totfact> 0.39807849E+00</totfact>
</mgrwt>
</event>
<event>
 4    1  0.1033139E-008  0.1160039E+04  0.7818608E-02  0.9148572E-01
         -2   -1    0    0    0  501 -0.00000000000E+00  0.00000000000E+00  0.60426665125E+03  0.60426665126E+03  0.25500000000E-02 0.  1.
          2   -1    0    0  501    0  0.00000000000E+00 -0.00000000000E+00 -0.30013328588E+04  0.30013328588E+04  0.25500000000E-02 0. -1.
    8880022    1    1    2    0    0  0.37614371079E+03 -0.10866527163E+04 -0.21142470002E+04  0.24115825194E+04  0.15294330000E+03 0.  0.
    8880022    1    1    2    0    0 -0.37614371079E+03  0.10866527163E+04 -0.28281920738E+03  0.11940169907E+04  0.15294330000E+03 0.  0.
<mgrwt>
<rscale>  0 0.11600387E+04</rscale>
<asrwt>0</asrwt>
<pdfrwt beam="1">  1        2 0.46174351E+00 0.11600387E+04</pdfrwt>
<pdfrwt beam="2">  1       -2 0.92964102E-01 0.11600387E+04</pdfrwt>
<totfact> 0.16982227E+00</totfact>
</mgrwt>
</event>
<event>
 4    1  0.1033139E-008  0.1431136E+04  0.7818608E-02  0.8931584E-01
          2   -1    0    0  501    0  0.00000000000E+00  0.00000000000E+00  0.24878099086E+04  0.24878099086E+04  0.25500000000E-02 0. -1.
         -2   -1    0    0    0  501 -0.00000000000E+00 -0.00000000000E+00 -0.12697932765E+04  0.12697932765E+04  0.25500000000E-02 0.  1.
    8880022    1    1    2    0    0 -0.72218495057E+03 -0.12260530504E+04 -0.50511839851E+03  0.15176605136E+04  0.15294330000E+03 0.  0.
    8880022    1    1    2    0    0  0.72218495057E+03  0.12260530504E+04  0.17231350306E+04  0.22399426715E+04  0.15294330000E+03 0.  0.
<mgrwt>
<rscale>  0 0.14311355E+04</rscale>
<asrwt>0</asrwt>
<pdfrwt beam="1">  1        2 0.38273998E+00 0.14311355E+04</pdfrwt>
<pdfrwt beam="2">  1       -2 0.19535282E+00 0.14311355E+04</pdfrwt>
<totfact> 0.47848636E-01</totfact>
</mgrwt>
</event>
<event>
 4    1  0.1033139E-008  0.1030813E+04  0.7818608E-02  0.9275380E-01
         -2   -1    0    0    0  501 -0.00000000000E+00  0.00000000000E+00  0.18583975258E+04  0.18583975258E+04  0.25500000000E-02 0.  1.
          2   -1    0    0  501    0  0.00000000000E+00 -0.00000000000E+00 -0.12877630081E+04  0.12877630081E+04  0.25500000000E-02 0. -1.
    8880022    1    1    2    0    0  0.82798895829E+03 -0.59465846757E+03  0.14582882820E+04  0.17858277561E+04  0.15294330000E+03 0.  0.
    8880022    1    1    2    0    0 -0.82798895829E+03  0.59465846757E+03 -0.88765376423E+03  0.13603327778E+04  0.15294330000E+03 0.  0.
<mgrwt>
<rscale>  0 0.10308133E+04</rscale>
<asrwt>0</asrwt>
<pdfrwt beam="1">  1        2 0.19811739E+00 0.10308133E+04</pdfrwt>
<pdfrwt beam="2">  1       -2 0.28590731E+00 0.10308133E+04</pdfrwt>
<totfact> 0.64970770E-01</totfact>
</mgrwt>
</event>
<event>
 4    1  0.1033139E-008  0.7799208E+03  0.7818608E-02  0.9589544E-01
         -2   -1    0    0    0  501 -0.00000000000E+00  0.00000000000E+00  0.71328693935E+03  0.71328693935E+03  0.25500000000E-02 0.  1.
          2   -1    0    0  501    0  0.00000000000E+00 -0.00000000000E+00 -0.15113442977E+04  0.15113442977E+04  0.25500000000E-02 0. -1.
    8880022    1    1    2    0    0 -0.76135576017E+03  0.72264777143E+02 -0.11332814633E+04  0.13757192009E+04  0.15294330000E+03 0.  0.
    8880022    1    1    2    0    0  0.76135576017E+03 -0.72264777143E+02  0.33522410499E+03  0.84891203616E+03  0.15294330000E+03 0.  0.
<mgrwt>
<rscale>  0 0.77992079E+03</rscale>
<asrwt>0</asrwt>
<pdfrwt beam="1">  1        2 0.23251451E+00 0.77992079E+03</pdfrwt>
<pdfrwt beam="2">  1       -2 0.10973645E+00 0.77992079E+03</pdfrwt>
<totfact> 0.84385002E+00</totfact>
</mgrwt>
</event>
<event>
 4    1  0.1158824E-008  0.1347635E+04  0.7818608E-02  0.8992620E-01
         -2   -1    0    0    0  501 -0.00000000000E+00  0.00000000000E+00  0.47522719196E+04  0.47522719196E+04  0.25500000000E-02 0.  1.
          2   -1    0    0  501    0  0.00000000000E+00 -0.00000000000E+00 -0.10534777134E+04  0.10534777134E+04  0.25500000000E-02 0. -1.
    8880022    1    1    2    0    0  0.11594525049E+04 -0.66962542770E+03  0.41666863535E+04  0.43792002861E+04  0.15294330000E+03 0.  0.
    8880022    1    1    2    0    0 -0.11594525049E+04  0.66962542770E+03 -0.46789214734E+03  0.14265493469E+04  0.15294330000E+03 0.  0.
<mgrwt>
<rscale>  0 0.13476350E+04</rscale>
<asrwt>0</asrwt>
<pdfrwt beam="1">  1        2 0.16207349E+00 0.13476350E+04</pdfrwt>
<pdfrwt beam="2">  1       -2 0.73111877E+00 0.13476350E+04</pdfrwt>
<totfact> 0.38899474E-03</totfact>
</mgrwt>
</event>
<event>
 4    1  0.1033139E-008  0.4722123E+03  0.7818608E-02  0.1021298E+00
         -2   -1    0    0    0  501 -0.00000000000E+00  0.00000000000E+00  0.56945889968E+03  0.56945889968E+03  0.25500000000E-02 0.  1.
          2   -1    0    0  501    0  0.00000000000E+00 -0.00000000000E+00 -0.10800584601E+04  0.10800584601E+04  0.25500000000E-02 0. -1.
    8880022    1    1    2    0    0  0.20447690724E+03  0.39721778802E+03  0.40319269410E+03  0.62092574299E+03  0.15294330000E+03 0.  0.
    8880022    1    1    2    0    0 -0.20447690724E+03 -0.39721778802E+03 -0.91379225448E+03  0.10285916168E+04  0.15294330000E+03 0.  0.
<mgrwt>
<rscale>  0 0.47221227E+03</rscale>
<asrwt>0</asrwt>
<pdfrwt beam="1">  1        2 0.16616284E+00 0.47221227E+03</pdfrwt>
<pdfrwt beam="2">  1       -2 0.87609061E-01 0.47221227E+03</pdfrwt>
<totfact> 0.26571998E+01</totfact>
</mgrwt>
</event>
<event>
 4    1  0.1033139E-008  0.9073688E+03  0.7818608E-02  0.9416417E-01
         -2   -1    0    0    0  501 -0.00000000000E+00  0.00000000000E+00  0.19184416303E+03  0.19184416304E+03  0.25500000000E-02 0.  1.
          2   -1    0    0  501    0  0.00000000000E+00 -0.00000000000E+00 -0.47900367472E+04  0.47900367472E+04  0.25500000000E-02 0. -1.
    8880022    1    1    2    0    0 -0.86983767245E+03 -0.20810784029E+03 -0.31026217635E+04  0.32325809982E+04  0.15294330000E+03 0.  0.
    8880022    1    1    2    0    0  0.86983767245E+03  0.20810784029E+03 -0.14955708207E+04  0.17492999121E+04  0.15294330000E+03 0.  0.
<mgrwt>
<rscale>  0 0.90736878E+03</rscale>
<asrwt>0</asrwt>
<pdfrwt beam="1">  1        2 0.73692864E+00 0.90736878E+03</pdfrwt>
<pdfrwt beam="2">  1       -2 0.29514490E-01 0.90736878E+03</pdfrwt>
<totfact> 0.71866530E-01</totfact>
</mgrwt>
</event>
<event>
 4    1  0.1033139E-008  0.6439440E+03  0.7818608E-02  0.9818210E-01
         -2   -1    0    0    0  501 -0.00000000000E+00  0.00000000000E+00  0.37676207744E+03  0.37676207745E+03  0.25500000000E-02 0.  1.
          2   -1    0    0  501    0  0.00000000000E+00 -0.00000000000E+00 -0.32189879209E+04  0.32189879209E+04  0.25500000000E-02 0. -1.
    8880022    1    1    2    0    0 -0.50649930596E+03  0.36705679383E+03  0.37374501861E+02  0.64502770735E+03  0.15294330000E+03 0.  1.
    8880022    1    1    2    0    0  0.50649930596E+03 -0.36705679383E+03 -0.28796003453E+04  0.29507222910E+04  0.15294330000E+03 0.  0.
<mgrwt>
<rscale>  0 0.64394401E+03</rscale>
<asrwt>0</asrwt>
<pdfrwt beam="1">  1        2 0.49522889E+00 0.64394401E+03</pdfrwt>
<pdfrwt beam="2">  1       -2 0.57963399E-01 0.64394401E+03</pdfrwt>
<totfact> 0.38623396E+00</totfact>
</mgrwt>
</event>
<event>
 4    1  0.1033139E-008  0.4974051E+03  0.7818608E-02  0.1014458E+00
          2   -1    0    0  501    0  0.00000000000E+00  0.00000000000E+00  0.10388155048E+04  0.10388155048E+04  0.25500000000E-02 0. -1.
         -2   -1    0    0    0  501 -0.00000000000E+00 -0.00000000000E+00 -0.43037034835E+03  0.43037034836E+03  0.25500000000E-02 0.  1.
    8880022    1    1    2    0    0  0.45699446529E+03  0.12319173871E+03  0.79513701008E+03  0.93789906899E+03  0.15294330000E+03 0.  0.
    8880022    1    1    2    0    0 -0.45699446529E+03 -0.12319173871E+03 -0.18669185364E+03  0.53128678416E+03  0.15294330000E+03 0.  1.
<mgrwt>
<rscale>  0 0.49740507E+03</rscale>
<asrwt>0</asrwt>
<pdfrwt beam="1">  1        2 0.15981777E+00 0.49740507E+03</pdfrwt>
<pdfrwt beam="2">  1       -2 0.66210823E-01 0.49740507E+03</pdfrwt>
<totfact> 0.52099332E+01</totfact>
</mgrwt>
</event>
<event>
 4    1  0.1033139E-008  0.9302547E+03  0.7818608E-02  0.9388532E-01
          2   -1    0    0  501    0  0.00000000000E+00  0.00000000000E+00  0.17221739698E+04  0.17221739698E+04  0.25500000000E-02 0. -1.
         -2   -1    0    0    0  501 -0.00000000000E+00 -0.00000000000E+00 -0.14265152050E+04  0.14265152050E+04  0.25500000000E-02 0.  1.
    8880022    1    1    2    0    0 -0.88302670633E+03  0.24949157816E+03  0.14149083547E+04  0.16933220358E+04  0.15294330000E+03 0.  0.
    8880022    1    1    2    0    0  0.88302670633E+03 -0.24949157816E+03 -0.11192495899E+04  0.14553671390E+04  0.15294330000E+03 0.  0.
<mgrwt>
<rscale>  0 0.93025473E+03</rscale>
<asrwt>0</asrwt>
<pdfrwt beam="1">  1        2 0.26494984E+00 0.93025473E+03</pdfrwt>
<pdfrwt beam="2">  1       -2 0.21946388E+00 0.93025473E+03</pdfrwt>
<totfact> 0.95674014E-01</totfact>
</mgrwt>
</event>
<event>
 4    1  0.1033139E-008  0.4575921E+03  0.7818608E-02  0.1025482E+00
          2   -1    0    0  501    0  0.00000000000E+00  0.00000000000E+00  0.20058683339E+04  0.20058683339E+04  0.25500000000E-02 0. -1.
         -2   -1    0    0    0  501 -0.00000000000E+00 -0.00000000000E+00 -0.21797639933E+03  0.21797639934E+03  0.25500000000E-02 0.  1.
    8880022    1    1    2    0    0 -0.24992512602E+03  0.35147738515E+03  0.91280050659E+02  0.46660756697E+03  0.15294330000E+03 0.  0.
    8880022    1    1    2    0    0  0.24992512602E+03 -0.35147738515E+03  0.16966118839E+04  0.17572371663E+04  0.15294330000E+03 0.  0.
<mgrwt>
<rscale>  0 0.45759215E+03</rscale>
<asrwt>0</asrwt>
<pdfrwt beam="1">  1        2 0.30859512E+00 0.45759215E+03</pdfrwt>
<pdfrwt beam="2">  1       -2 0.33534832E-01 0.45759215E+03</pdfrwt>
<totfact> 0.59268288E+01</totfact>
</mgrwt>
</event>
<event>
 4    1  0.1033139E-008  0.1223564E+04  0.7818608E-02  0.9092477E-01
         -2   -1    0    0    0  501 -0.00000000000E+00  0.00000000000E+00  0.52181312521E+03  0.52181312522E+03  0.25500000000E-02 0.  1.
          2   -1    0    0  501    0  0.00000000000E+00 -0.00000000000E+00 -0.31696763698E+04  0.31696763698E+04  0.25500000000E-02 0. -1.
    8880022    1    1    2    0    0 -0.12135698538E+04  0.31074696393E+02 -0.18923605197E+04  0.22534723021E+04  0.15294330000E+03 0.  0.
    8880022    1    1    2    0    0  0.12135698538E+04 -0.31074696393E+02 -0.75550272482E+03  0.14380171929E+04  0.15294330000E+03 0.  0.
<mgrwt>
<rscale>  0 0.12235641E+04</rscale>
<asrwt>0</asrwt>
<pdfrwt beam="1">  1        2 0.48764251E+00 0.12235641E+04</pdfrwt>
<pdfrwt beam="2">  1       -2 0.80278945E-01 0.12235641E+04</pdfrwt>
<totfact> 0.18490635E+00</totfact>
</mgrwt>
</event>
<event>
 4    1  0.1033139E-008  0.6668945E+03  0.7818608E-02  0.9775584E-01
          2   -1    0    0  501    0  0.00000000000E+00  0.00000000000E+00  0.45312201167E+04  0.45312201167E+04  0.25500000000E-02 0. -1.
         -2   -1    0    0    0  501 -0.00000000000E+00 -0.00000000000E+00 -0.15624690371E+03  0.15624690373E+03  0.25500000000E-02 0.  1.
    8880022    1    1    2    0    0  0.57245452210E+02 -0.64659075015E+03  0.36166160191E+04  0.36775888464E+04  0.15294330000E+03 0.  0.
    8880022    1    1    2    0    0 -0.57245452210E+02  0.64659075015E+03  0.75835719383E+03  0.10098781741E+04  0.15294330000E+03 0.  0.
<mgrwt>
<rscale>  0 0.66689451E+03</rscale>
<asrwt>0</asrwt>
<pdfrwt beam="1">  1        2 0.69711076E+00 0.66689451E+03</pdfrwt>
<pdfrwt beam="2">  1       -2 0.24037986E-01 0.66689451E+03</pdfrwt>
<totfact> 0.20498454E+00</totfact>
</mgrwt>
</event>
<event>
 4    1  0.1033139E-008  0.1104681E+04  0.7818608E-02  0.9200642E-01
         -2   -1    0    0    0  501 -0.00000000000E+00  0.00000000000E+00  0.22969561545E+04  0.22969561545E+04  0.25500000000E-02 0.  1.
          2   -1    0    0  501    0  0.00000000000E+00 -0.00000000000E+00 -0.10295587103E+04  0.10295587103E+04  0.25500000000E-02 0. -1.
    8880022    1    1    2    0    0 -0.10935263818E+04  0.33587203703E+02  0.17908001764E+04  0.21041114449E+04  0.15294330000E+03 0.  0.
    8880022    1    1    2    0    0  0.10935263818E+04 -0.33587203703E+02 -0.52340273211E+03  0.12224034199E+04  0.15294330000E+03 0.  0.
<mgrwt>
<rscale>  0 0.11046808E+04</rscale>
<asrwt>0</asrwt>
<pdfrwt beam="1">  1        2 0.15839365E+00 0.11046808E+04</pdfrwt>
<pdfrwt beam="2">  1       -2 0.35337787E+00 0.11046808E+04</pdfrwt>
<totfact> 0.35571706E-01</totfact>
</mgrwt>
</event>
<event>
 4    1  0.1033139E-008  0.1476468E+04  0.7818608E-02  0.8900254E-01
          2   -1    0    0  501    0  0.00000000000E+00  0.00000000000E+00  0.30227991788E+04  0.30227991788E+04  0.25500000000E-02 0. -1.
         -2   -1    0    0    0  501 -0.00000000000E+00 -0.00000000000E+00 -0.99857075221E+03  0.99857075221E+03  0.25500000000E-02 0.  1.
    8880022    1    1    2    0    0 -0.19857811316E+03 -0.14550374270E+04  0.20718721528E+04  0.25441330648E+04  0.15294330000E+03 0.  0.
    8880022    1    1    2    0    0  0.19857811316E+03  0.14550374270E+04 -0.47643726189E+02  0.14772368662E+04  0.15294330000E+03 0.  0.
<mgrwt>
<rscale>  0 0.14764684E+04</rscale>
<asrwt>0</asrwt>
<pdfrwt beam="1">  1        2 0.46504602E+00 0.14764684E+04</pdfrwt>
<pdfrwt beam="2">  1       -2 0.15362627E+00 0.14764684E+04</pdfrwt>
<totfact> 0.44998007E-01</totfact>
</mgrwt>
</event>
<event>
 4    1  0.1033139E-008  0.1256197E+04  0.7818608E-02  0.9065041E-01
         -2   -1    0    0    0  501 -0.00000000000E+00  0.00000000000E+00  0.21799428502E+04  0.21799428502E+04  0.25500000000E-02 0.  1.
          2   -1    0    0  501    0  0.00000000000E+00 -0.00000000000E+00 -0.18488284431E+04  0.18488284431E+04  0.25500000000E-02 0. -1.
    8880022    1    1    2    0    0  0.82603543102E+03 -0.93397226281E+03 -0.14057439859E+04  0.18852444212E+04  0.15294330000E+03 0.  0.
    8880022    1    1    2    0    0 -0.82603543102E+03  0.93397226281E+03  0.17368583930E+04  0.21435268721E+04  0.15294330000E+03 0.  0.
<mgrwt>
<rscale>  0 0.12561968E+04</rscale>
<asrwt>0</asrwt>
<pdfrwt beam="1">  1        2 0.28443515E+00 0.12561968E+04</pdfrwt>
<pdfrwt beam="2">  1       -2 0.33537582E+00 0.12561968E+04</pdfrwt>
<totfact> 0.15127688E-01</totfact>
</mgrwt>
</event>
<event>
 4    1  0.1033139E-008  0.9156156E+03  0.7818608E-02  0.9406269E-01
         -2   -1    0    0    0  501 -0.00000000000E+00  0.00000000000E+00  0.10214920673E+04  0.10214920673E+04  0.25500000000E-02 0.  1.
          2   -1    0    0  501    0  0.00000000000E+00 -0.00000000000E+00 -0.33694598950E+04  0.33694598950E+04  0.25500000000E-02 0. -1.
    8880022    1    1    2    0    0 -0.63846060335E+03  0.63822283759E+03 -0.30834497191E+04  0.32165220589E+04  0.15294330000E+03 0.  0.
    8880022    1    1    2    0    0  0.63846060335E+03 -0.63822283759E+03  0.73548189140E+03  0.11744299034E+04  0.15294330000E+03 0.  0.
<mgrwt>
<rscale>  0 0.91561563E+03</rscale>
<asrwt>0</asrwt>
<pdfrwt beam="1">  1        2 0.51837844E+00 0.91561563E+03</pdfrwt>
<pdfrwt beam="2">  1       -2 0.15715263E+00 0.91561563E+03</pdfrwt>
<totfact> 0.27622258E-01</totfact>
</mgrwt>
</event>
<event>
 4    1  0.1033139E-008  0.5267103E+03  0.7818608E-02  0.1007033E+00
          2   -1    0    0  501    0  0.00000000000E+00  0.00000000000E+00  0.22126359691E+04  0.22126359691E+04  0.25500000000E-02 0. -1.
         -2   -1    0    0    0  501 -0.00000000000E+00 -0.00000000000E+00 -0.69692421085E+03  0.69692421086E+03  0.25500000000E-02 0.  1.
    8880022    1    1    2    0    0 -0.22482015912E+03  0.45109640871E+03  0.20752899749E+04  0.21410866883E+04  0.15294330000E+03 0.  0.
    8880022    1    1    2    0    0  0.22482015912E+03 -0.45109640871E+03 -0.55957821662E+03  0.76847349169E+03  0.15294330000E+03 0.  0.
<mgrwt>
<rscale>  0 0.52671029E+03</rscale>
<asrwt>0</asrwt>
<pdfrwt beam="1">  1        2 0.34040554E+00 0.52671029E+03</pdfrwt>
<pdfrwt beam="2">  1       -2 0.10721911E+00 0.52671029E+03</pdfrwt>
<totfact> 0.38796458E+00</totfact>
</mgrwt>
</event>
<event>
 4    1  0.1033139E-008  0.5109183E+03  0.7818608E-02  0.1010968E+00
         -2   -1    0    0    0  501 -0.00000000000E+00  0.00000000000E+00  0.11336065271E+04  0.11336065271E+04  0.25500000000E-02 0.  1.
          2   -1    0    0  501    0  0.00000000000E+00 -0.00000000000E+00 -0.68602139209E+03  0.68602139210E+03  0.25500000000E-02 0. -1.
    8880022    1    1    2    0    0  0.28313243080E+03 -0.39683983169E+03 -0.51776858166E+03  0.72740757664E+03  0.15294330000E+03 0. -1.
    8880022    1    1    2    0    0 -0.28313243080E+03  0.39683983169E+03  0.96535371671E+03  0.10922203426E+04  0.15294330000E+03 0.  0.
<mgrwt>
<rscale>  0 0.51091827E+03</rscale>
<asrwt>0</asrwt>
<pdfrwt beam="1">  1        2 0.10554175E+00 0.51091827E+03</pdfrwt>
<pdfrwt beam="2">  1       -2 0.17440100E+00 0.51091827E+03</pdfrwt>
<totfact> 0.87687434E+00</totfact>
</mgrwt>
</event>
<event>
 4    1  0.1033139E-008  0.1081046E+04  0.7818608E-02  0.9223865E-01
          2   -1    0    0  501    0  0.00000000000E+00  0.00000000000E+00  0.22425755980E+04  0.22425755980E+04  0.25500000000E-02 0. -1.
         -2   -1    0    0    0  501 -0.00000000000E+00 -0.00000000000E+00 -0.61791350379E+03  0.61791350380E+03  0.25500000000E-02 0.  1.
    8880022    1    1    2    0    0  0.75786340895E+03 -0.75558767735E+03  0.13783868122E+04  0.17517452845E+04  0.15294330000E+03 0.  0.
    8880022    1    1    2    0    0 -0.75786340895E+03  0.75558767735E+03  0.24627528200E+03  0.11087438173E+04  0.15294330000E+03 0.  0.
<mgrwt>
<rscale>  0 0.10810464E+04</rscale>
<asrwt>0</asrwt>
<pdfrwt beam="1">  1        2 0.34501163E+00 0.10810464E+04</pdfrwt>
<pdfrwt beam="2">  1       -2 0.95063617E-01 0.10810464E+04</pdfrwt>
<totfact> 0.45217592E+00</totfact>
</mgrwt>
</event>
<event>
 4    1  0.1033139E-008  0.4108388E+03  0.7818608E-02  0.1040090E+00
         -2   -1    0    0    0  501 -0.00000000000E+00  0.00000000000E+00  0.21486899885E+03  0.21486899886E+03  0.25500000000E-02 0.  1.
          2   -1    0    0  501    0  0.00000000000E+00 -0.00000000000E+00 -0.40020708646E+04  0.40020708646E+04  0.25500000000E-02 0. -1.
    8880022    1    1    2    0    0  0.24903966007E+03 -0.28874917775E+03 -0.37838489548E+04  0.38060874144E+04  0.15294330000E+03 0.  0.
    8880022    1    1    2    0    0 -0.24903966007E+03  0.28874917775E+03 -0.33529109805E+01  0.41085244914E+03  0.15294330000E+03 0.  0.
<mgrwt>
<rscale>  0 0.41083877E+03</rscale>
<asrwt>0</asrwt>
<pdfrwt beam="1">  1        2 0.61570316E+00 0.41083877E+03</pdfrwt>
<pdfrwt beam="2">  1       -2 0.33056772E-01 0.41083877E+03</pdfrwt>
<totfact> 0.35779282E+00</totfact>
</mgrwt>
</event>
<event>
 4    1  0.1033139E-008  0.3925343E+03  0.7818608E-02  0.1046396E+00
         -2   -1    0    0    0  501 -0.00000000000E+00  0.00000000000E+00  0.48817462140E+03  0.48817462141E+03  0.25500000000E-02 0.  1.
          2   -1    0    0  501    0  0.00000000000E+00 -0.00000000000E+00 -0.19338279411E+04  0.19338279411E+04  0.25500000000E-02 0. -1.
    8880022    1    1    2    0    0  0.27231933164E+03 -0.23776814808E+03  0.38494778499E+03  0.54978901482E+03  0.15294330000E+03 0.  0.
    8880022    1    1    2    0    0 -0.27231933164E+03  0.23776814808E+03 -0.18306011047E+04  0.18722135476E+04  0.15294330000E+03 0.  0.
<mgrwt>
<rscale>  0 0.39253428E+03</rscale>
<asrwt>0</asrwt>
<pdfrwt beam="1">  1        2 0.29751199E+00 0.39253428E+03</pdfrwt>
<pdfrwt beam="2">  1       -2 0.75103789E-01 0.39253428E+03</pdfrwt>
<totfact> 0.12858903E+01</totfact>
</mgrwt>
</event>
<event>
 4    1  0.1033139E-008  0.2375428E+04  0.7818608E-02  0.8448761E-01
         -2   -1    0    0    0  501 -0.00000000000E+00  0.00000000000E+00  0.27837674229E+04  0.27837674229E+04  0.25500000000E-02 0.  1.
          2   -1    0    0  501    0  0.00000000000E+00 -0.00000000000E+00 -0.21740169337E+04  0.21740169337E+04  0.25500000000E-02 0. -1.
    8880022    1    1    2    0    0  0.65246976744E+03  0.22789361205E+04 -0.33978392290E+03  0.23996065107E+04  0.15294330000E+03 0.  0.
    8880022    1    1    2    0    0 -0.65246976744E+03 -0.22789361205E+04  0.94953441201E+03  0.25581778459E+04  0.15294330000E+03 0.  0.
<mgrwt>
<rscale>  0 0.23754280E+04</rscale>
<asrwt>0</asrwt>
<pdfrwt beam="1">  1        2 0.33446415E+00 0.23754280E+04</pdfrwt>
<pdfrwt beam="2">  1       -2 0.42827191E+00 0.23754280E+04</pdfrwt>
<totfact> 0.21971328E-02</totfact>
</mgrwt>
</event>
<event>
 4    1  0.1033139E-008  0.5517796E+03  0.7818608E-02  0.1001083E+00
         -2   -1    0    0    0  501 -0.00000000000E+00  0.00000000000E+00  0.33870462094E+03  0.33870462095E+03  0.25500000000E-02 0.  1.
          2   -1    0    0  501    0  0.00000000000E+00 -0.00000000000E+00 -0.27535125678E+04  0.27535125678E+04  0.25500000000E-02 0. -1.
    8880022    1    1    2    0    0  0.49206962340E+03  0.19732357213E+03  0.61484192302E+02  0.55519461931E+03  0.15294330000E+03 0.  0.
    8880022    1    1    2    0    0 -0.49206962340E+03 -0.19732357213E+03 -0.24762921391E+04  0.25370225694E+04  0.15294330000E+03 0. -1.
<mgrwt>
<rscale>  0 0.55177963E+03</rscale>
<asrwt>0</asrwt>
<pdfrwt beam="1">  1        2 0.42361730E+00 0.55177963E+03</pdfrwt>
<pdfrwt beam="2">  1       -2 0.52108405E-01 0.55177963E+03</pdfrwt>
<totfact> 0.94348476E+00</totfact>
</mgrwt>
</event>
<event>
 4    1  0.1033139E-008  0.3901887E+03  0.7818608E-02  0.1047231E+00
          2   -1    0    0  501    0  0.00000000000E+00  0.00000000000E+00  0.74932228750E+03  0.74932228750E+03  0.25500000000E-02 0. -1.
         -2   -1    0    0    0  501 -0.00000000000E+00 -0.00000000000E+00 -0.31305796802E+04  0.31305796802E+04  0.25500000000E-02 0.  1.
    8880022    1    1    2    0    0 -0.35838007333E+03 -0.20477449034E+02  0.68531323531E+03  0.78860730810E+03  0.15294330000E+03 0.  0.
    8880022    1    1    2    0    0  0.35838007333E+03  0.20477449034E+02 -0.30665706280E+04  0.30912946596E+04  0.15294330000E+03 0.  0.
<mgrwt>
<rscale>  0 0.39018874E+03</rscale>
<asrwt>0</asrwt>
<pdfrwt beam="1">  1        2 0.11528035E+00 0.39018874E+03</pdfrwt>
<pdfrwt beam="2">  1       -2 0.48162764E+00 0.39018874E+03</pdfrwt>
<totfact> 0.96668043E-02</totfact>
</mgrwt>
</event>
<event>
 4    1  0.1033139E-008  0.1073851E+04  0.7818608E-02  0.9231060E-01
          2   -1    0    0  501    0  0.00000000000E+00  0.00000000000E+00  0.40002582543E+04  0.40002582543E+04  0.25500000000E-02 0. -1.
         -2   -1    0    0    0  501 -0.00000000000E+00 -0.00000000000E+00 -0.52348622101E+03  0.52348622101E+03  0.25500000000E-02 0.  1.
    8880022    1    1    2    0    0 -0.37267422039E+03 -0.99542854331E+03  0.22221292483E+03  0.10966012477E+04  0.15294330000E+03 0.  0.
    8880022    1    1    2    0    0  0.37267422039E+03  0.99542854331E+03  0.32545591085E+04  0.34271432277E+04  0.15294330000E+03 0.  0.
<mgrwt>
<rscale>  0 0.10738509E+04</rscale>
<asrwt>0</asrwt>
<pdfrwt beam="1">  1        2 0.61542437E+00 0.10738509E+04</pdfrwt>
<pdfrwt beam="2">  1       -2 0.80536339E-01 0.10738509E+04</pdfrwt>
<totfact> 0.48348973E-01</totfact>
</mgrwt>
</event>
<event>
 4    1  0.1033139E-008  0.1134279E+04  0.7818608E-02  0.9172410E-01
          2   -1    0    0  501    0  0.00000000000E+00  0.00000000000E+00  0.95642994011E+03  0.95642994011E+03  0.25500000000E-02 0. -1.
         -2   -1    0    0    0  501 -0.00000000000E+00 -0.00000000000E+00 -0.14352745054E+04  0.14352745054E+04  0.25500000000E-02 0.  1.
    8880022    1    1    2    0    0  0.11061181248E+04 -0.19925109210E+03 -0.53900031330E+03  0.12558309179E+04  0.15294330000E+03 0.  0.
    8880022    1    1    2    0    0 -0.11061181248E+04  0.19925109210E+03  0.60155747962E+02  0.11358735276E+04  0.15294330000E+03 0.  0.
<mgrwt>
<rscale>  0 0.11342795E+04</rscale>
<asrwt>0</asrwt>
<pdfrwt beam="1">  1        2 0.14714307E+00 0.11342795E+04</pdfrwt>
<pdfrwt beam="2">  1       -2 0.22081146E+00 0.11342795E+04</pdfrwt>
<totfact> 0.25725501E+00</totfact>
</mgrwt>
</event>
<event>
 4    1  0.1033139E-008  0.8774993E+03  0.7818608E-02  0.9454154E-01
          2   -1    0    0  501    0  0.00000000000E+00  0.00000000000E+00  0.17571397997E+04  0.17571397997E+04  0.25500000000E-02 0. -1.
         -2   -1    0    0    0  501 -0.00000000000E+00 -0.00000000000E+00 -0.47988117408E+03  0.47988117409E+03  0.25500000000E-02 0.  1.
    8880022    1    1    2    0    0 -0.70585947385E+03 -0.49837309152E+03  0.30904608526E+03  0.93033030210E+03  0.15294330000E+03 0.  0.
    8880022    1    1    2    0    0  0.70585947385E+03  0.49837309152E+03  0.96821254037E+03  0.13066906717E+04  0.15294330000E+03 0.  0.
<mgrwt>
<rscale>  0 0.87749928E+03</rscale>
<asrwt>0</asrwt>
<pdfrwt beam="1">  1        2 0.27032920E+00 0.87749928E+03</pdfrwt>
<pdfrwt beam="2">  1       -2 0.73827873E-01 0.87749928E+03</pdfrwt>
<totfact> 0.15268367E+01</totfact>
</mgrwt>
</event>
<event>
 4    1  0.1033139E-008  0.9965282E+03  0.7818608E-02  0.9312361E-01
         -2   -1    0    0    0  501 -0.00000000000E+00  0.00000000000E+00  0.24575978514E+04  0.24575978514E+04  0.25500000000E-02 0.  1.
          2   -1    0    0  501    0  0.00000000000E+00 -0.00000000000E+00 -0.92859907961E+03  0.92859907962E+03  0.25500000000E-02 0. -1.
    8880022    1    1    2    0    0 -0.54354150346E+03 -0.82112079855E+03  0.20369717492E+04  0.22676689114E+04  0.15294330000E+03 0.  0.
    8880022    1    1    2    0    0  0.54354150346E+03  0.82112079855E+03 -0.50797297741E+03  0.11185280196E+04  0.15294330000E+03 0.  0.
<mgrwt>
<rscale>  0 0.99652817E+03</rscale>
<asrwt>0</asrwt>
<pdfrwt beam="1">  1        2 0.14286140E+00 0.99652817E+03</pdfrwt>
<pdfrwt beam="2">  1       -2 0.37809198E+00 0.99652817E+03</pdfrwt>
<totfact> 0.29345681E-01</totfact>
</mgrwt>
</event>
<event>
 4    1  0.1033139E-008  0.1003286E+04  0.7818608E-02  0.9304948E-01
         -2   -1    0    0    0  501 -0.00000000000E+00  0.00000000000E+00  0.34132809094E+03  0.34132809095E+03  0.25500000000E-02 0.  1.
          2   -1    0    0  501    0  0.00000000000E+00 -0.00000000000E+00 -0.36732230603E+04  0.36732230603E+04  0.25500000000E-02 0. -1.
    8880022    1    1    2    0    0 -0.85242667173E+03  0.50651812759E+03 -0.25572259477E+04  0.27469961859E+04  0.15294330000E+03 0. -1.
    8880022    1    1    2    0    0  0.85242667173E+03 -0.50651812759E+03 -0.77466902164E+03  0.12675549654E+04  0.15294330000E+03 0.  0.
<mgrwt>
<rscale>  0 0.10032863E+04</rscale>
<asrwt>0</asrwt>
<pdfrwt beam="1">  1        2 0.56511121E+00 0.10032863E+04</pdfrwt>
<pdfrwt beam="2">  1       -2 0.52512016E-01 0.10032863E+04</pdfrwt>
<totfact> 0.21783545E+00</totfact>
</mgrwt>
</event>
<event>
 4    1  0.1033139E-008  0.2656991E+03  0.7818608E-02  0.1103767E+00
         -2   -1    0    0    0  501 -0.00000000000E+00  0.00000000000E+00  0.93628997946E+03  0.93628997946E+03  0.25500000000E-02 0.  1.
          2   -1    0    0  501    0  0.00000000000E+00 -0.00000000000E+00 -0.66881097058E+03  0.66881097058E+03  0.25500000000E-02 0. -1.
    8880022    1    1    2    0    0 -0.13466767546E+03  0.17049624373E+03  0.88969903893E+03  0.92852592039E+03  0.15294330000E+03 0.  0.
    8880022    1    1    2    0    0  0.13466767546E+03 -0.17049624373E+03 -0.62222003005E+03  0.67657502966E+03  0.15294330000E+03 0. -1.
<mgrwt>
<rscale>  0 0.26569909E+03</rscale>
<asrwt>0</asrwt>
<pdfrwt beam="1">  1        2 0.10289400E+00 0.26569909E+03</pdfrwt>
<pdfrwt beam="2">  1       -2 0.14404461E+00 0.26569909E+03</pdfrwt>
<totfact> 0.15864604E+01</totfact>
</mgrwt>
</event>
<event>
 4    1  0.1033139E-008  0.6218222E+03  0.7818608E-02  0.9861138E-01
          2   -1    0    0  501    0  0.00000000000E+00  0.00000000000E+00  0.64452744208E+03  0.64452744209E+03  0.25500000000E-02 0. -1.
         -2   -1    0    0    0  501 -0.00000000000E+00 -0.00000000000E+00 -0.92626393351E+03  0.92626393351E+03  0.25500000000E-02 0.  1.
    8880022    1    1    2    0    0 -0.51879219927E+03 -0.30679928069E+03 -0.60705623568E+03  0.86901097286E+03  0.15294330000E+03 0.  0.
    8880022    1    1    2    0    0  0.51879219927E+03  0.30679928069E+03  0.32531974425E+03  0.70178040274E+03  0.15294330000E+03 0.  0.
<mgrwt>
<rscale>  0 0.62182216E+03</rscale>
<asrwt>0</asrwt>
<pdfrwt beam="1">  1        2 0.99158067E-01 0.62182216E+03</pdfrwt>
<pdfrwt beam="2">  1       -2 0.14250214E+00 0.62182216E+03</pdfrwt>
<totfact> 0.16022123E+01</totfact>
</mgrwt>
</event>
<event>
 4    1  0.1033139E-008  0.3820136E+03  0.7818608E-02  0.1050192E+00
          2   -1    0    0  501    0  0.00000000000E+00  0.00000000000E+00  0.13267915727E+04  0.13267915727E+04  0.25500000000E-02 0. -1.
         -2   -1    0    0    0  501 -0.00000000000E+00 -0.00000000000E+00 -0.54974982659E+03  0.54974982660E+03  0.25500000000E-02 0.  1.
    8880022    1    1    2    0    0  0.24470806723E+03  0.25032120461E+03 -0.45065533037E+03  0.59078305955E+03  0.15294330000E+03 0.  0.
    8880022    1    1    2    0    0 -0.24470806723E+03 -0.25032120461E+03  0.12276970765E+04  0.12857583398E+04  0.15294330000E+03 0.  0.
<mgrwt>
<rscale>  0 0.38201361E+03</rscale>
<asrwt>0</asrwt>
<pdfrwt beam="1">  1        2 0.20412178E+00 0.38201361E+03</pdfrwt>
<pdfrwt beam="2">  1       -2 0.84576897E-01 0.38201361E+03</pdfrwt>
<totfact> 0.21060071E+01</totfact>
</mgrwt>
</event>
<event>
 4    1  0.1033139E-008  0.8089785E+03  0.7818608E-02  0.9547111E-01
          2   -1    0    0  501    0  0.00000000000E+00  0.00000000000E+00  0.28863797171E+04  0.28863797171E+04  0.25500000000E-02 0. -1.
         -2   -1    0    0    0  501 -0.00000000000E+00 -0.00000000000E+00 -0.61112149803E+03  0.61112149804E+03  0.25500000000E-02 0.  1.
    8880022    1    1    2    0    0 -0.79108343478E+03  0.72398606143E+02 -0.24927869090E+03  0.84651407414E+03  0.15294330000E+03 0.  0.
    8880022    1    1    2    0    0  0.79108343478E+03 -0.72398606143E+02  0.25245369099E+04  0.26509871410E+04  0.15294330000E+03 0.  0.
<mgrwt>
<rscale>  0 0.80897850E+03</rscale>
<asrwt>0</asrwt>
<pdfrwt beam="1">  1        2 0.44405842E+00 0.80897850E+03</pdfrwt>
<pdfrwt beam="2">  1       -2 0.94018692E-01 0.80897850E+03</pdfrwt>
<totfact> 0.20556194E+00</totfact>
</mgrwt>
</event>
<event>
 4    1  0.1033139E-008  0.7021257E+03  0.7818608E-02  0.9713604E-01
         -2   -1    0    0    0  501 -0.00000000000E+00  0.00000000000E+00  0.40285326482E+03  0.40285326483E+03  0.25500000000E-02 0.  1.
          2   -1    0    0  501    0  0.00000000000E+00 -0.00000000000E+00 -0.18328984182E+04  0.18328984182E+04  0.25500000000E-02 0. -1.
    8880022    1    1    2    0    0 -0.68524825786E+03  0.48607299209E+01 -0.70562723124E+02  0.70566249192E+03  0.15294330000E+03 0.  0.
    8880022    1    1    2    0    0  0.68524825786E+03 -0.48607299209E+01 -0.13594824303E+04  0.15300891911E+04  0.15294330000E+03 0.  0.
<mgrwt>
<rscale>  0 0.70212567E+03</rscale>
<asrwt>0</asrwt>
<pdfrwt beam="1">  1        2 0.28198437E+00 0.70212567E+03</pdfrwt>
<pdfrwt beam="2">  1       -2 0.61977427E-01 0.70212567E+03</pdfrwt>
<totfact> 0.20744656E+01</totfact>
</mgrwt>
</event>
<event>
 4    1  0.1033139E-008  0.5200594E+03  0.7818608E-02  0.1008672E+00
         -2   -1    0    0    0  501 -0.00000000000E+00  0.00000000000E+00  0.11595598677E+03  0.11595598680E+03  0.25500000000E-02 0.  1.
          2   -1    0    0  501    0  0.00000000000E+00 -0.00000000000E+00 -0.26763066791E+04  0.26763066791E+04  0.25500000000E-02 0. -1.
    8880022    1    1    2    0    0  0.49356876515E+03  0.58821765192E+02 -0.77974253922E+03  0.93726207993E+03  0.15294330000E+03 0.  0.
    8880022    1    1    2    0    0 -0.49356876515E+03 -0.58821765192E+02 -0.17806081531E+04  0.18550005859E+04  0.15294330000E+03 0.  0.
<mgrwt>
<rscale>  0 0.52005940E+03</rscale>
<asrwt>0</asrwt>
<pdfrwt beam="1">  1        2 0.41173944E+00 0.52005940E+03</pdfrwt>
<pdfrwt beam="2">  1       -2 0.17839385E-01 0.52005940E+03</pdfrwt>
<totfact> 0.77284742E+01</totfact>
</mgrwt>
</event>
<event>
 4    1  0.1033139E-008  0.9973915E+03  0.7818608E-02  0.9311410E-01
          2   -1    0    0  501    0  0.00000000000E+00  0.00000000000E+00  0.16659213025E+04  0.16659213025E+04  0.25500000000E-02 0. -1.
         -2   -1    0    0    0  501 -0.00000000000E+00 -0.00000000000E+00 -0.92410300137E+03  0.92410300137E+03  0.25500000000E-02 0.  1.
    8880022    1    1    2    0    0 -0.69888391478E+03  0.69495281926E+03 -0.39939518024E+03  0.10743864809E+04  0.15294330000E+03 0.  0.
    8880022    1    1    2    0    0  0.69888391478E+03 -0.69495281926E+03  0.11412134814E+04  0.15156378230E+04  0.15294330000E+03 0.  0.
<mgrwt>
<rscale>  0 0.99739150E+03</rscale>
<asrwt>0</asrwt>
<pdfrwt beam="1">  1        2 0.25629559E+00 0.99739150E+03</pdfrwt>
<pdfrwt beam="2">  1       -2 0.14216969E+00 0.99739150E+03</pdfrwt>
<totfact> 0.35157709E+00</totfact>
</mgrwt>
</event>
<event>
 4    1  0.1033139E-008  0.5486217E+03  0.7818608E-02  0.1001813E+00
          2   -1    0    0  501    0  0.00000000000E+00  0.00000000000E+00  0.28216648024E+04  0.28216648024E+04  0.25500000000E-02 0. -1.
         -2   -1    0    0    0  501 -0.00000000000E+00 -0.00000000000E+00 -0.11221924213E+04  0.11221924213E+04  0.25500000000E-02 0.  1.
    8880022    1    1    2    0    0  0.25611590865E+03 -0.46043326444E+03  0.27256046036E+04  0.27802708965E+04  0.15294330000E+03 0.  0.
    8880022    1    1    2    0    0 -0.25611590865E+03  0.46043326444E+03 -0.10261322225E+04  0.11635863271E+04  0.15294330000E+03 0.  0.
<mgrwt>
<rscale>  0 0.54862173E+03</rscale>
<asrwt>0</asrwt>
<pdfrwt beam="1">  1        2 0.43410228E+00 0.54862173E+03</pdfrwt>
<pdfrwt beam="2">  1       -2 0.17264499E+00 0.54862173E+03</pdfrwt>
<totfact> 0.51637410E-01</totfact>
</mgrwt>
</event>
<event>
 4    1  0.1033139E-008  0.1854686E+03  0.7818608E-02  0.1162613E+00
         -2   -1    0    0    0  501 -0.00000000000E+00  0.00000000000E+00  0.37984197961E+03  0.37984197962E+03  0.25500000000E-02 0.  1.
          2   -1    0    0  501    0  0.00000000000E+00 -0.00000000000E+00 -0.23232667301E+04  0.23232667302E+04  0.25500000000E-02 0. -1.
    8880022    1    1    2    0    0  0.63635867286E+02  0.83411202468E+02 -0.22966632943E+04  0.23041399464E+04  0.15294330000E+03 0.  0.
    8880022    1    1    2    0    0 -0.63635867286E+02 -0.83411202468E+02  0.35323854377E+03  0.39896876334E+03  0.15294330000E+03 0.  1.
<mgrwt>
<rscale>  0 0.18546861E+03</rscale>
<asrwt>0</asrwt>
<pdfrwt beam="1">  1        2 0.35742564E+00 0.18546861E+03</pdfrwt>
<pdfrwt beam="2">  1       -2 0.58437229E-01 0.18546861E+03</pdfrwt>
<totfact> 0.14893122E+01</totfact>
</mgrwt>
</event>
<event>
 4    1  0.1033139E-008  0.4807526E+03  0.7818608E-02  0.1018929E+00
          2   -1    0    0  501    0  0.00000000000E+00  0.00000000000E+00  0.33472544602E+04  0.33472544602E+04  0.25500000000E-02 0. -1.
         -2   -1    0    0    0  501 -0.00000000000E+00 -0.00000000000E+00 -0.72271938673E+03  0.72271938673E+03  0.25500000000E-02 0.  1.
    8880022    1    1    2    0    0 -0.80173809735E+01  0.45570508182E+03 -0.62306824700E+03  0.78697972873E+03  0.15294330000E+03 0.  0.
    8880022    1    1    2    0    0  0.80173809735E+01 -0.45570508182E+03  0.32476033204E+04  0.32829941182E+04  0.15294330000E+03 0.  0.
<mgrwt>
<rscale>  0 0.48075259E+03</rscale>
<asrwt>0</asrwt>
<pdfrwt beam="1">  1        2 0.51496222E+00 0.48075259E+03</pdfrwt>
<pdfrwt beam="2">  1       -2 0.11118760E+00 0.48075259E+03</pdfrwt>
<totfact> 0.77817134E-01</totfact>
</mgrwt>
</event>
<event>
 4    1  0.1033139E-008  0.1387050E+04  0.7818608E-02  0.8963246E-01
         -2   -1    0    0    0  501 -0.00000000000E+00  0.00000000000E+00  0.91596438496E+03  0.91596438496E+03  0.25500000000E-02 0.  1.
          2   -1    0    0  501    0  0.00000000000E+00 -0.00000000000E+00 -0.25648468490E+04  0.25648468490E+04  0.25500000000E-02 0. -1.
    8880022    1    1    2    0    0  0.66871018097E+03  0.12055462689E+04 -0.15650349495E+04  0.20912295806E+04  0.15294330000E+03 0.  0.
    8880022    1    1    2    0    0 -0.66871018097E+03 -0.12055462689E+04 -0.83847514557E+02  0.13895816534E+04  0.15294330000E+03 0.  0.
<mgrwt>
<rscale>  0 0.13870497E+04</rscale>
<asrwt>0</asrwt>
<pdfrwt beam="1">  1        2 0.39459182E+00 0.13870497E+04</pdfrwt>
<pdfrwt beam="2">  1       -2 0.14091760E+00 0.13870497E+04</pdfrwt>
<totfact> 0.10792963E+00</totfact>
</mgrwt>
</event>
<event>
 4    1  0.1033139E-008  0.2276412E+04  0.7818608E-02  0.8487280E-01
          2   -1    0    0  501    0  0.00000000000E+00  0.00000000000E+00  0.38078845715E+04  0.38078845715E+04  0.25500000000E-02 0. -1.
         -2   -1    0    0    0  501 -0.00000000000E+00 -0.00000000000E+00 -0.16257214925E+04  0.16257214925E+04  0.25500000000E-02 0.  1.
    8880022    1    1    2    0    0 -0.94794856428E+03  0.20639895748E+04 -0.54800126972E+01  0.22764184872E+04  0.15294330000E+03 0.  0.
    8880022    1    1    2    0    0  0.94794856428E+03 -0.20639895748E+04  0.21876430917E+04  0.31571875768E+04  0.15294330000E+03 0.  0.
<mgrwt>
<rscale>  0 0.22764119E+04</rscale>
<asrwt>0</asrwt>
<pdfrwt beam="1">  1        2 0.58582839E+00 0.22764119E+04</pdfrwt>
<pdfrwt beam="2">  1       -2 0.25011100E+00 0.22764119E+04</pdfrwt>
<totfact> 0.26836007E-02</totfact>
</mgrwt>
</event>
<event>
 4    1  0.1033139E-008  0.1361284E+04  0.7818608E-02  0.8982330E-01
         -2   -1    0    0    0  501 -0.00000000000E+00  0.00000000000E+00  0.10151225349E+04  0.10151225349E+04  0.25500000000E-02 0.  1.
          2   -1    0    0  501    0  0.00000000000E+00 -0.00000000000E+00 -0.31068676252E+04  0.31068676252E+04  0.25500000000E-02 0. -1.
    8880022    1    1    2    0    0 -0.12698630718E+04 -0.46599321669E+03 -0.23694658543E+04  0.27326657290E+04  0.15294330000E+03 0.  0.
    8880022    1    1    2    0    0  0.12698630718E+04  0.46599321669E+03  0.27772076394E+03  0.13893244311E+04  0.15294330000E+03 0.  0.
<mgrwt>
<rscale>  0 0.13612838E+04</rscale>
<asrwt>0</asrwt>
<pdfrwt beam="1">  1        2 0.47797963E+00 0.13612838E+04</pdfrwt>
<pdfrwt beam="2">  1       -2 0.15617270E+00 0.13612838E+04</pdfrwt>
<totfact> 0.38645154E-01</totfact>
</mgrwt>
</event>
<event>
 4    1  0.1033139E-008  0.8371799E+03  0.7818608E-02  0.9507707E-01
         -2   -1    0    0    0  501 -0.00000000000E+00  0.00000000000E+00  0.11236842403E+04  0.11236842403E+04  0.25500000000E-02 0.  1.
          2   -1    0    0  501    0  0.00000000000E+00 -0.00000000000E+00 -0.11903776331E+04  0.11903776331E+04  0.25500000000E-02 0. -1.
    8880022    1    1    2    0    0 -0.53439859122E+03 -0.62601645089E+03  0.76494386840E+03  0.11340234680E+04  0.15294330000E+03 0.  0.
    8880022    1    1    2    0    0  0.53439859122E+03  0.62601645089E+03 -0.83163726118E+03  0.11800384054E+04  0.15294330000E+03 0.  0.
<mgrwt>
<rscale>  0 0.83717985E+03</rscale>
<asrwt>0</asrwt>
<pdfrwt beam="1">  1        2 0.18313502E+00 0.83717985E+03</pdfrwt>
<pdfrwt beam="2">  1       -2 0.17287450E+00 0.83717985E+03</pdfrwt>
<totfact> 0.39458529E+00</totfact>
</mgrwt>
</event>
<event>
 4    1  0.1033139E-008  0.1036547E+04  0.7818608E-02  0.9269344E-01
         -2   -1    0    0    0  501 -0.00000000000E+00  0.00000000000E+00  0.89012192971E+03  0.89012192971E+03  0.25500000000E-02 0.  1.
          2   -1    0    0  501    0  0.00000000000E+00 -0.00000000000E+00 -0.17122702436E+04  0.17122702436E+04  0.25500000000E-02 0. -1.
    8880022    1    1    2    0    0 -0.10036838472E+04  0.20894346489E+03 -0.11178680788E+04  0.15244865796E+04  0.15294330000E+03 0.  0.
    8880022    1    1    2    0    0  0.10036838472E+04 -0.20894346489E+03  0.29571976496E+03  0.10779055937E+04  0.15294330000E+03 0.  0.
<mgrwt>
<rscale>  0 0.10365473E+04</rscale>
<asrwt>0</asrwt>
<pdfrwt beam="1">  1        2 0.26342619E+00 0.10365473E+04</pdfrwt>
<pdfrwt beam="2">  1       -2 0.13694184E+00 0.10365473E+04</pdfrwt>
<totfact> 0.36368422E+00</totfact>
</mgrwt>
</event>
<event>
 4    1  0.1033139E-008  0.7530914E+03  0.7818608E-02  0.9630513E-01
         -2   -1    0    0    0  501 -0.00000000000E+00  0.00000000000E+00  0.11295348398E+04  0.11295348398E+04  0.25500000000E-02 0.  1.
          2   -1    0    0  501    0  0.00000000000E+00 -0.00000000000E+00 -0.80277531364E+03  0.80277531364E+03  0.25500000000E-02 0. -1.
    8880022    1    1    2    0    0  0.70690942216E+03  0.20984293094E+03  0.75466103111E+03  0.10661425382E+04  0.15294330000E+03 0.  0.
    8880022    1    1    2    0    0 -0.70690942216E+03 -0.20984293094E+03 -0.42790150495E+03  0.86616761528E+03  0.15294330000E+03 0.  0.
<mgrwt>
<rscale>  0 0.75309139E+03</rscale>
<asrwt>0</asrwt>
<pdfrwt beam="1">  1        2 0.12350389E+00 0.75309139E+03</pdfrwt>
<pdfrwt beam="2">  1       -2 0.17377459E+00 0.75309139E+03</pdfrwt>
<totfact> 0.69955856E+00</totfact>
</mgrwt>
</event>
<event>
 4    1  0.1033139E-008  0.1097116E+04  0.7818608E-02  0.9208008E-01
          2   -1    0    0  501    0  0.00000000000E+00  0.00000000000E+00  0.16536972994E+04  0.16536972994E+04  0.25500000000E-02 0. -1.
         -2   -1    0    0    0  501 -0.00000000000E+00 -0.00000000000E+00 -0.20341790541E+04  0.20341790541E+04  0.25500000000E-02 0.  1.
    8880022    1    1    2    0    0  0.65836394208E+03 -0.86419205766E+03  0.12874246561E+04  0.16914860008E+04  0.15294330000E+03 0.  0.
    8880022    1    1    2    0    0 -0.65836394208E+03  0.86419205766E+03 -0.16679064107E+04  0.19963903528E+04  0.15294330000E+03 0.  0.
<mgrwt>
<rscale>  0 0.10971156E+04</rscale>
<asrwt>0</asrwt>
<pdfrwt beam="1">  1        2 0.25441497E+00 0.10971156E+04</pdfrwt>
<pdfrwt beam="2">  1       -2 0.31295062E+00 0.10971156E+04</pdfrwt>
<totfact> 0.27329429E-01</totfact>
</mgrwt>
</event>
<event>
 4    1  0.1033139E-008  0.1303046E+04  0.7818608E-02  0.9027153E-01
          2   -1    0    0  501    0  0.00000000000E+00  0.00000000000E+00  0.90169657399E+03  0.90169657400E+03  0.25500000000E-02 0. -1.
         -2   -1    0    0    0  501 -0.00000000000E+00 -0.00000000000E+00 -0.18931334466E+04  0.18931334466E+04  0.25500000000E-02 0.  1.
    8880022    1    1    2    0    0  0.66369988375E+03 -0.11108737137E+04 -0.39367589609E+03  0.13612164808E+04  0.15294330000E+03 0. -1.
    8880022    1    1    2    0    0 -0.66369988375E+03  0.11108737137E+04 -0.59776097650E+03  0.14336135398E+04  0.15294330000E+03 0.  1.
<mgrwt>
<rscale>  0 0.13030463E+04</rscale>
<asrwt>0</asrwt>
<pdfrwt beam="1">  1        2 0.13872255E+00 0.13030463E+04</pdfrwt>
<pdfrwt beam="2">  1       -2 0.29125130E+00 0.13030463E+04</pdfrwt>
<totfact> 0.10174375E+00</totfact>
</mgrwt>
</event>
<event>
 4    1  0.1033139E-008  0.1129286E+04  0.7818608E-02  0.9177109E-01
          2   -1    0    0  501    0  0.00000000000E+00  0.00000000000E+00  0.10421147833E+04  0.10421147833E+04  0.25500000000E-02 0. -1.
         -2   -1    0    0    0  501 -0.00000000000E+00 -0.00000000000E+00 -0.12843166441E+04  0.12843166441E+04  0.25500000000E-02 0.  1.
    8880022    1    1    2    0    0 -0.29531639845E+03 -0.10792045221E+04  0.13150777529E+03  0.11369169379E+04  0.15294330000E+03 0.  0.
    8880022    1    1    2    0    0  0.29531639845E+03  0.10792045221E+04 -0.37370963612E+03  0.11895144895E+04  0.15294330000E+03 0.  0.
<mgrwt>
<rscale>  0 0.11292855E+04</rscale>
<asrwt>0</asrwt>
<pdfrwt beam="1">  1        2 0.16032535E+00 0.11292855E+04</pdfrwt>
<pdfrwt beam="2">  1       -2 0.19758718E+00 0.11292855E+04</pdfrwt>
<totfact> 0.31972957E+00</totfact>
</mgrwt>
</event>
<event>
 4    1  0.1033139E-008  0.5056737E+03  0.7818608E-02  0.1012309E+00
         -2   -1    0    0    0  501 -0.00000000000E+00  0.00000000000E+00  0.45502254206E+03  0.45502254207E+03  0.25500000000E-02 0.  1.
          2   -1    0    0  501    0  0.00000000000E+00 -0.00000000000E+00 -0.10489962487E+04  0.10489962487E+04  0.25500000000E-02 0. -1.
    8880022    1    1    2    0    0  0.47947897993E+03 -0.49134357326E+02  0.21542068324E+03  0.54964716050E+03  0.15294330000E+03 0.  0.
    8880022    1    1    2    0    0 -0.47947897993E+03  0.49134357326E+02 -0.80939438985E+03  0.95437163024E+03  0.15294330000E+03 0.  0.
<mgrwt>
<rscale>  0 0.50567374E+03</rscale>
<asrwt>0</asrwt>
<pdfrwt beam="1">  1        2 0.16138404E+00 0.50567374E+03</pdfrwt>
<pdfrwt beam="2">  1       -2 0.70003468E-01 0.50567374E+03</pdfrwt>
<totfact> 0.45487506E+01</totfact>
</mgrwt>
</event>
<event>
 4    1  0.1033139E-008  0.3687911E+03  0.7818608E-02  0.1055156E+00
          2   -1    0    0  501    0  0.00000000000E+00  0.00000000000E+00  0.38595691778E+04  0.38595691778E+04  0.25500000000E-02 0. -1.
         -2   -1    0    0    0  501 -0.00000000000E+00 -0.00000000000E+00 -0.12162752747E+04  0.12162752747E+04  0.25500000000E-02 0.  1.
    8880022    1    1    2    0    0  0.30934842698E+03 -0.13007225465E+03  0.38225336153E+04  0.38402825591E+04  0.15294330000E+03 0. -1.
    8880022    1    1    2    0    0 -0.30934842698E+03  0.13007225465E+03 -0.11792397121E+04  0.12355618934E+04  0.15294330000E+03 0.  0.
<mgrwt>
<rscale>  0 0.36879112E+03</rscale>
<asrwt>0</asrwt>
<pdfrwt beam="1">  1        2 0.59377986E+00 0.36879112E+03</pdfrwt>
<pdfrwt beam="2">  1       -2 0.18711928E+00 0.36879112E+03</pdfrwt>
<totfact> 0.94165349E-02</totfact>
</mgrwt>
</event>
<event>
 4    1  0.1033139E-008  0.1305995E+04  0.7818608E-02  0.9024824E-01
         -2   -1    0    0    0  501 -0.00000000000E+00  0.00000000000E+00  0.13519679013E+04  0.13519679013E+04  0.25500000000E-02 0.  1.
          2   -1    0    0  501    0  0.00000000000E+00 -0.00000000000E+00 -0.30841763014E+04  0.30841763014E+04  0.25500000000E-02 0. -1.
    8880022    1    1    2    0    0 -0.85678466568E+03  0.97373079429E+03  0.83899885703E+03  0.15522700661E+04  0.15294330000E+03 0.  0.
    8880022    1    1    2    0    0  0.85678466568E+03 -0.97373079429E+03 -0.25712072572E+04  0.28838741365E+04  0.15294330000E+03 0.  0.
<mgrwt>
<rscale>  0 0.13059951E+04</rscale>
<asrwt>0</asrwt>
<pdfrwt beam="1">  1        2 0.47448866E+00 0.13059951E+04</pdfrwt>
<pdfrwt beam="2">  1       -2 0.20799506E+00 0.13059951E+04</pdfrwt>
<totfact> 0.17594888E-01</totfact>
</mgrwt>
</event>
<event>
 4    1  0.1033139E-008  0.2996087E+03  0.7818608E-02  0.1085436E+00
          2   -1    0    0  501    0  0.00000000000E+00  0.00000000000E+00  0.87050810321E+03  0.87050810322E+03  0.25500000000E-02 0. -1.
         -2   -1    0    0    0  501 -0.00000000000E+00 -0.00000000000E+00 -0.36772098215E+03  0.36772098215E+03  0.25500000000E-02 0.  1.
    8880022    1    1    2    0    0  0.25748484977E+03 -0.86763695814E+01  0.77657438424E+03  0.83236599794E+03  0.15294330000E+03 0.  0.
    8880022    1    1    2    0    0 -0.25748484977E+03  0.86763695814E+01 -0.27378726317E+03  0.40586308743E+03  0.15294330000E+03 0.  0.
<mgrwt>
<rscale>  0 0.29960871E+03</rscale>
<asrwt>0</asrwt>
<pdfrwt beam="1">  1        2 0.13392432E+00 0.29960871E+03</pdfrwt>
<pdfrwt beam="2">  1       -2 0.56572459E-01 0.29960871E+03</pdfrwt>
<totfact> 0.95647738E+01</totfact>
</mgrwt>
</event>
<event>
 4    1  0.1033139E-008  0.8572447E+03  0.7818608E-02  0.9480665E-01
         -2   -1    0    0    0  501 -0.00000000000E+00  0.00000000000E+00  0.68544029809E+03  0.68544029810E+03  0.25500000000E-02 0.  1.
          2   -1    0    0  501    0  0.00000000000E+00 -0.00000000000E+00 -0.14363498589E+04  0.14363498589E+04  0.25500000000E-02 0. -1.
    8880022    1    1    2    0    0 -0.10469171618E+03  0.83696860479E+03 -0.90969321956E+03  0.12499640825E+04  0.15294330000E+03 0.  0.
    8880022    1    1    2    0    0  0.10469171618E+03 -0.83696860479E+03  0.15878365876E+03  0.87182607449E+03  0.15294330000E+03 0.  0.
<mgrwt>
<rscale>  0 0.85724469E+03</rscale>
<asrwt>0</asrwt>
<pdfrwt beam="1">  1        2 0.22097690E+00 0.85724469E+03</pdfrwt>
<pdfrwt beam="2">  1       -2 0.10545235E+00 0.85724469E+03</pdfrwt>
<totfact> 0.10135994E+01</totfact>
</mgrwt>
</event>
<event>
 4    1  0.1033139E-008  0.1386296E+04  0.7818608E-02  0.8963799E-01
         -2   -1    0    0    0  501 -0.00000000000E+00  0.00000000000E+00  0.80553182246E+03  0.80553182246E+03  0.25500000000E-02 0.  1.
          2   -1    0    0  501    0  0.00000000000E+00 -0.00000000000E+00 -0.27050471529E+04  0.27050471529E+04  0.25500000000E-02 0. -1.
    8880022    1    1    2    0    0 -0.12613196822E+04  0.55452405316E+03 -0.34672152269E+03  0.14289967577E+04  0.15294330000E+03 0.  0.
    8880022    1    1    2    0    0  0.12613196822E+04 -0.55452405316E+03 -0.15527938077E+04  0.20815822176E+04  0.15294330000E+03 0.  0.
<mgrwt>
<rscale>  0 0.13862958E+04</rscale>
<asrwt>0</asrwt>
<pdfrwt beam="1">  1        2 0.41616110E+00 0.13862958E+04</pdfrwt>
<pdfrwt beam="2">  1       -2 0.12392797E+00 0.13862958E+04</pdfrwt>
<totfact> 0.12422843E+00</totfact>
</mgrwt>
</event>
<event>
 4    1  0.1033139E-008  0.6694607E+03  0.7818608E-02  0.9770933E-01
          2   -1    0    0  501    0  0.00000000000E+00  0.00000000000E+00  0.65079271723E+03  0.65079271724E+03  0.25500000000E-02 0. -1.
         -2   -1    0    0    0  501 -0.00000000000E+00 -0.00000000000E+00 -0.14612424071E+04  0.14612424071E+04  0.25500000000E-02 0.  1.
    8880022    1    1    2    0    0  0.57163901942E+03  0.31307316889E+03 -0.11730834232E+04  0.13506673714E+04  0.15294330000E+03 0.  0.
    8880022    1    1    2    0    0 -0.57163901942E+03 -0.31307316889E+03  0.36263373329E+03  0.76136775289E+03  0.15294330000E+03 0.  0.
<mgrwt>
<rscale>  0 0.66946070E+03</rscale>
<asrwt>0</asrwt>
<pdfrwt beam="1">  1        2 0.10012196E+00 0.66946070E+03</pdfrwt>
<pdfrwt beam="2">  1       -2 0.22480652E+00 0.66946070E+03</pdfrwt>
<totfact> 0.42899439E+00</totfact>
</mgrwt>
</event>
<event>
 4    1  0.1033139E-008  0.4551533E+03  0.7818608E-02  0.1026196E+00
         -2   -1    0    0    0  501 -0.00000000000E+00  0.00000000000E+00  0.25034213434E+03  0.25034213436E+03  0.25500000000E-02 0.  1.
          2   -1    0    0  501    0  0.00000000000E+00 -0.00000000000E+00 -0.13941056800E+04  0.13941056800E+04  0.25500000000E-02 0. -1.
    8880022    1    1    2    0    0  0.35319073685E+03  0.24295917625E+03 -0.47710852062E+02  0.45764706526E+03  0.15294330000E+03 0.  0.
    8880022    1    1    2    0    0 -0.35319073685E+03 -0.24295917625E+03 -0.10960526936E+04  0.11868007491E+04  0.15294330000E+03 0.  0.
<mgrwt>
<rscale>  0 0.45515328E+03</rscale>
<asrwt>0</asrwt>
<pdfrwt beam="1">  1        2 0.21447779E+00 0.45515328E+03</pdfrwt>
<pdfrwt beam="2">  1       -2 0.38514175E-01 0.45515328E+03</pdfrwt>
<totfact> 0.97651487E+01</totfact>
</mgrwt>
</event>
<event>
 4    1  0.1033139E-008  0.6082395E+03  0.7818608E-02  0.9888458E-01
         -2   -1    0    0    0  501 -0.00000000000E+00  0.00000000000E+00  0.95340825943E+03  0.95340825943E+03  0.25500000000E-02 0.  1.
          2   -1    0    0  501    0  0.00000000000E+00 -0.00000000000E+00 -0.97156817908E+03  0.97156817908E+03  0.25500000000E-02 0. -1.
    8880022    1    1    2    0    0 -0.56533673448E+03 -0.16418913052E+03  0.73683913585E+03  0.95545133788E+03  0.15294330000E+03 0.  0.
    8880022    1    1    2    0    0  0.56533673448E+03  0.16418913052E+03 -0.75499905550E+03  0.96952510063E+03  0.15294330000E+03 0. -1.
<mgrwt>
<rscale>  0 0.60823955E+03</rscale>
<asrwt>0</asrwt>
<pdfrwt beam="1">  1        2 0.14947203E+00 0.60823955E+03</pdfrwt>
<pdfrwt beam="2">  1       -2 0.14667819E+00 0.60823955E+03</pdfrwt>
<totfact> 0.86692471E+00</totfact>
</mgrwt>
</event>
<event>
 4    1  0.1033139E-008  0.6953024E+03  0.7818608E-02  0.9725300E-01
         -2   -1    0    0    0  501 -0.00000000000E+00  0.00000000000E+00  0.41862984728E+03  0.41862984728E+03  0.25500000000E-02 0.  1.
          2   -1    0    0  501    0  0.00000000000E+00 -0.00000000000E+00 -0.15499854523E+04  0.15499854523E+04  0.25500000000E-02 0. -1.
    8880022    1    1    2    0    0  0.45041643572E+03 -0.50712797575E+03 -0.10626730382E+04  0.12699288911E+04  0.15294330000E+03 0.  0.
    8880022    1    1    2    0    0 -0.45041643572E+03  0.50712797575E+03 -0.68682566804E+02  0.69868640845E+03  0.15294330000E+03 0.  0.
<mgrwt>
<rscale>  0 0.69530238E+03</rscale>
<asrwt>0</asrwt>
<pdfrwt beam="1">  1        2 0.23845930E+00 0.69530238E+03</pdfrwt>
<pdfrwt beam="2">  1       -2 0.64404593E-01 0.69530238E+03</pdfrwt>
<totfact> 0.27318152E+01</totfact>
</mgrwt>
</event>
<event>
 4    1  0.1033139E-008  0.5862771E+03  0.7818608E-02  0.9934293E-01
         -2   -1    0    0    0  501 -0.00000000000E+00  0.00000000000E+00  0.64549666602E+03  0.64549666602E+03  0.25500000000E-02 0.  1.
          2   -1    0    0  501    0  0.00000000000E+00 -0.00000000000E+00 -0.23494654413E+04  0.23494654413E+04  0.25500000000E-02 0. -1.
    8880022    1    1    2    0    0  0.46329476336E+03  0.32509566867E+03 -0.21688797456E+04  0.22467221091E+04  0.15294330000E+03 0.  0.
    8880022    1    1    2    0    0 -0.46329476336E+03 -0.32509566867E+03  0.46491097036E+03  0.74823999820E+03  0.15294330000E+03 0.  0.
<mgrwt>
<rscale>  0 0.58627714E+03</rscale>
<asrwt>0</asrwt>
<pdfrwt beam="1">  1        2 0.36145622E+00 0.58627714E+03</pdfrwt>
<pdfrwt beam="2">  1       -2 0.99307180E-01 0.58627714E+03</pdfrwt>
<totfact> 0.38587723E+00</totfact>
</mgrwt>
</event>
<event>
 4    1  0.1033139E-008  0.1107837E+04  0.7818608E-02  0.9197587E-01
         -2   -1    0    0    0  501 -0.00000000000E+00  0.00000000000E+00  0.18754374423E+04  0.18754374423E+04  0.25500000000E-02 0.  1.
          2   -1    0    0  501    0  0.00000000000E+00 -0.00000000000E+00 -0.11524118031E+04  0.11524118031E+04  0.25500000000E-02 0. -1.
    8880022    1    1    2    0    0  0.82460335067E+03  0.72383769287E+03  0.13567262999E+04  0.17515734633E+04  0.15294330000E+03 0.  0.
    8880022    1    1    2    0    0 -0.82460335067E+03 -0.72383769287E+03 -0.63370066069E+03  0.12762757821E+04  0.15294330000E+03 0.  0.
<mgrwt>
<rscale>  0 0.11078372E+04</rscale>
<asrwt>0</asrwt>
<pdfrwt beam="1">  1        2 0.17729412E+00 0.11078372E+04</pdfrwt>
<pdfrwt beam="2">  1       -2 0.28852884E+00 0.11078372E+04</pdfrwt>
<totfact> 0.74623202E-01</totfact>
</mgrwt>
</event>
<event>
 4    1  0.1033139E-008  0.4332751E+03  0.7818608E-02  0.1032830E+00
          2   -1    0    0  501    0  0.00000000000E+00  0.00000000000E+00  0.94768445792E+03  0.94768445792E+03  0.25500000000E-02 0. -1.
         -2   -1    0    0    0  501 -0.00000000000E+00 -0.00000000000E+00 -0.33868055860E+03  0.33868055861E+03  0.25500000000E-02 0.  1.
    8880022    1    1    2    0    0 -0.12607627423E+02  0.40518728436E+03  0.71889867189E+03  0.83937038376E+03  0.15294330000E+03 0. -1.
    8880022    1    1    2    0    0  0.12607627423E+02 -0.40518728436E+03 -0.10989477257E+03  0.44699463277E+03  0.15294330000E+03 0.  0.
<mgrwt>
<rscale>  0 0.43327513E+03</rscale>
<asrwt>0</asrwt>
<pdfrwt beam="1">  1        2 0.14579761E+00 0.43327513E+03</pdfrwt>
<pdfrwt beam="2">  1       -2 0.52104702E-01 0.43327513E+03</pdfrwt>
<totfact> 0.98878175E+01</totfact>
</mgrwt>
</event>
<event>
 4    1  0.1033139E-008  0.1224204E+04  0.7818608E-02  0.9091931E-01
          2   -1    0    0  501    0  0.00000000000E+00  0.00000000000E+00  0.32886331873E+04  0.32886331873E+04  0.25500000000E-02 0. -1.
         -2   -1    0    0    0  501 -0.00000000000E+00 -0.00000000000E+00 -0.70307409633E+03  0.70307409633E+03  0.25500000000E-02 0.  1.
    8880022    1    1    2    0    0 -0.34823045822E+03  0.11636236127E+04  0.10893955223E+03  0.12290418394E+04  0.15294330000E+03 0.  0.
    8880022    1    1    2    0    0  0.34823045822E+03 -0.11636236127E+04  0.24766195388E+04  0.27626654443E+04  0.15294330000E+03 0.  0.
<mgrwt>
<rscale>  0 0.12242042E+04</rscale>
<asrwt>0</asrwt>
<pdfrwt beam="1">  1        2 0.50594356E+00 0.12242042E+04</pdfrwt>
<pdfrwt beam="2">  1       -2 0.10816525E+00 0.12242042E+04</pdfrwt>
<totfact> 0.76897267E-01</totfact>
</mgrwt>
</event>
<event>
 4    1  0.1033139E-008  0.1473545E+04  0.7818608E-02  0.8902238E-01
         -2   -1    0    0    0  501 -0.00000000000E+00  0.00000000000E+00  0.99071327353E+03  0.99071327354E+03  0.25500000000E-02 0.  1.
          2   -1    0    0  501    0  0.00000000000E+00 -0.00000000000E+00 -0.31528406182E+04  0.31528406182E+04  0.25500000000E-02 0. -1.
    8880022    1    1    2    0    0 -0.14434370476E+04 -0.25383808853E+03  0.62835674004E+02  0.14748844905E+04  0.15294330000E+03 0.  0.
    8880022    1    1    2    0    0  0.14434370476E+04  0.25383808853E+03 -0.22249630187E+04  0.26686694012E+04  0.15294330000E+03 0.  0.
<mgrwt>
<rscale>  0 0.14735454E+04</rscale>
<asrwt>0</asrwt>
<pdfrwt beam="1">  1        2 0.48505240E+00 0.14735454E+04</pdfrwt>
<pdfrwt beam="2">  1       -2 0.15241743E+00 0.14735454E+04</pdfrwt>
<totfact> 0.38033356E-01</totfact>
</mgrwt>
</event>
<event>
 4    1  0.1033139E-008  0.6238714E+03  0.7818608E-02  0.9857082E-01
         -2   -1    0    0    0  501 -0.00000000000E+00  0.00000000000E+00  0.32337589276E+03  0.32337589277E+03  0.25500000000E-02 0.  1.
          2   -1    0    0  501    0  0.00000000000E+00 -0.00000000000E+00 -0.24369331380E+04  0.24369331380E+04  0.25500000000E-02 0. -1.
    8880022    1    1    2    0    0 -0.58273838428E+02 -0.60201999798E+03 -0.20386303653E+04  0.21319543470E+04  0.15294330000E+03 0.  0.
    8880022    1    1    2    0    0  0.58273838428E+02  0.60201999798E+03 -0.74926879864E+02  0.62835468373E+03  0.15294330000E+03 0.  0.
<mgrwt>
<rscale>  0 0.62387144E+03</rscale>
<asrwt>0</asrwt>
<pdfrwt beam="1">  1        2 0.37491278E+00 0.62387144E+03</pdfrwt>
<pdfrwt beam="2">  1       -2 0.49750139E-01 0.62387144E+03</pdfrwt>
<totfact> 0.15463927E+01</totfact>
</mgrwt>
</event>
<event>
 4    1  0.1033139E-008  0.1051440E+04  0.7818608E-02  0.9253858E-01
          2   -1    0    0  501    0  0.00000000000E+00  0.00000000000E+00  0.11876226112E+04  0.11876226112E+04  0.25500000000E-02 0. -1.
         -2   -1    0    0    0  501 -0.00000000000E+00 -0.00000000000E+00 -0.15481348960E+04  0.15481348960E+04  0.25500000000E-02 0.  1.
    8880022    1    1    2    0    0  0.10008362292E+04 -0.28365775375E+03  0.68347330865E+03  0.12540583302E+04  0.15294330000E+03 0.  0.
    8880022    1    1    2    0    0 -0.10008362292E+04  0.28365775375E+03 -0.10439855934E+04  0.14816991770E+04  0.15294330000E+03 0.  0.
<mgrwt>
<rscale>  0 0.10514402E+04</rscale>
<asrwt>0</asrwt>
<pdfrwt beam="1">  1        2 0.18271117E+00 0.10514402E+04</pdfrwt>
<pdfrwt beam="2">  1       -2 0.23817460E+00 0.10514402E+04</pdfrwt>
<totfact> 0.14487367E+00</totfact>
</mgrwt>
</event>
<event>
 4    1  0.1033139E-008  0.9174538E+03  0.7818608E-02  0.9404023E-01
         -2   -1    0    0    0  501 -0.00000000000E+00  0.00000000000E+00  0.40733869652E+03  0.40733869652E+03  0.25500000000E-02 0.  1.
          2   -1    0    0  501    0  0.00000000000E+00 -0.00000000000E+00 -0.29506759281E+04  0.29506759281E+04  0.25500000000E-02 0. -1.
    8880022    1    1    2    0    0 -0.74744260228E+02  0.90152263806E+03 -0.21908213771E+04  0.23751673058E+04  0.15294330000E+03 0.  0.
    8880022    1    1    2    0    0  0.74744260228E+02 -0.90152263806E+03 -0.35251585449E+03  0.98284731879E+03  0.15294330000E+03 0.  0.
<mgrwt>
<rscale>  0 0.91745377E+03</rscale>
<asrwt>0</asrwt>
<pdfrwt beam="1">  1        2 0.45395013E+00 0.91745377E+03</pdfrwt>
<pdfrwt beam="2">  1       -2 0.62667494E-01 0.91745377E+03</pdfrwt>
<totfact> 0.45633536E+00</totfact>
</mgrwt>
</event>
<event>
 4    1  0.1033139E-008  0.2164348E+03  0.7818608E-02  0.1136569E+00
          2   -1    0    0  501    0  0.00000000000E+00  0.00000000000E+00  0.28578222678E+03  0.28578222679E+03  0.25500000000E-02 0. -1.
         -2   -1    0    0    0  501 -0.00000000000E+00 -0.00000000000E+00 -0.11185481582E+04  0.11185481582E+04  0.25500000000E-02 0.  1.
    8880022    1    1    2    0    0 -0.12020756100E+03 -0.94881637914E+02 -0.10650624718E+04  0.10868312218E+04  0.15294330000E+03 0.  1.
    8880022    1    1    2    0    0  0.12020756100E+03  0.94881637914E+02  0.23229654036E+03  0.31749916317E+03  0.15294330000E+03 0.  0.
<mgrwt>
<rscale>  0 0.21643483E+03</rscale>
<asrwt>0</asrwt>
<pdfrwt beam="1">  1        2 0.43966497E-01 0.21643483E+03</pdfrwt>
<pdfrwt beam="2">  1       -2 0.17208433E+00 0.21643483E+03</pdfrwt>
<totfact> 0.25921878E+01</totfact>
</mgrwt>
</event>
<event>
 4    1  0.1033139E-008  0.6719189E+03  0.7818608E-02  0.9766498E-01
         -2   -1    0    0    0  501 -0.00000000000E+00  0.00000000000E+00  0.45290242287E+03  0.45290242288E+03  0.25500000000E-02 0.  1.
          2   -1    0    0  501    0  0.00000000000E+00 -0.00000000000E+00 -0.27168197408E+04  0.27168197408E+04  0.25500000000E-02 0. -1.
    8880022    1    1    2    0    0 -0.11840754030E+03 -0.64347722822E+03 -0.23929770653E+04  0.24855209066E+04  0.15294330000E+03 0. -1.
    8880022    1    1    2    0    0  0.11840754030E+03  0.64347722822E+03  0.12905974738E+03  0.68420125712E+03  0.15294330000E+03 0.  0.
<mgrwt>
<rscale>  0 0.67191885E+03</rscale>
<asrwt>0</asrwt>
<pdfrwt beam="1">  1        2 0.41797226E+00 0.67191885E+03</pdfrwt>
<pdfrwt beam="2">  1       -2 0.69677297E-01 0.67191885E+03</pdfrwt>
<totfact> 0.52277711E+00</totfact>
</mgrwt>
</event>
<event>
 4    1  0.1033139E-008  0.4284317E+03  0.7818608E-02  0.1034357E+00
          2   -1    0    0  501    0  0.00000000000E+00  0.00000000000E+00  0.69352328732E+03  0.69352328732E+03  0.25500000000E-02 0. -1.
         -2   -1    0    0    0  501 -0.00000000000E+00 -0.00000000000E+00 -0.36265091802E+03  0.36265091803E+03  0.25500000000E-02 0.  1.
    8880022    1    1    2    0    0 -0.35896738076E+03  0.17693073514E+03  0.43993179612E+03  0.61407955815E+03  0.15294330000E+03 0.  0.
    8880022    1    1    2    0    0  0.35896738076E+03 -0.17693073514E+03 -0.10905942682E+03  0.44209464720E+03  0.15294330000E+03 0.  0.
<mgrwt>
<rscale>  0 0.42843170E+03</rscale>
<asrwt>0</asrwt>
<pdfrwt beam="1">  1        2 0.10669589E+00 0.42843170E+03</pdfrwt>
<pdfrwt beam="2">  1       -2 0.55792450E-01 0.42843170E+03</pdfrwt>
<totfact> 0.12951013E+02</totfact>
</mgrwt>
</event>
<event>
 4    1  0.1033139E-008  0.7043985E+03  0.7818608E-02  0.9709740E-01
         -2   -1    0    0    0  501 -0.00000000000E+00  0.00000000000E+00  0.61339241006E+03  0.61339241007E+03  0.25500000000E-02 0.  1.
          2   -1    0    0  501    0  0.00000000000E+00 -0.00000000000E+00 -0.10113185439E+04  0.10113185439E+04  0.25500000000E-02 0. -1.
    8880022    1    1    2    0    0 -0.25083299973E+03 -0.64020961619E+03 -0.56239253797E+03  0.90136705409E+03  0.15294330000E+03 0.  0.
    8880022    1    1    2    0    0  0.25083299973E+03  0.64020961619E+03  0.16446640412E+03  0.72334389989E+03  0.15294330000E+03 0.  0.
<mgrwt>
<rscale>  0 0.70439847E+03</rscale>
<asrwt>0</asrwt>
<pdfrwt beam="1">  1        2 0.15558747E+00 0.70439847E+03</pdfrwt>
<pdfrwt beam="2">  1       -2 0.94368063E-01 0.70439847E+03</pdfrwt>
<totfact> 0.23950042E+01</totfact>
</mgrwt>
</event>
<event>
 4    1  0.1033139E-008  0.1565004E+04  0.7818608E-02  0.8842340E-01
         -2   -1    0    0    0  501 -0.00000000000E+00  0.00000000000E+00  0.10327057148E+04  0.10327057148E+04  0.25500000000E-02 0.  1.
          2   -1    0    0  501    0  0.00000000000E+00 -0.00000000000E+00 -0.24485548265E+04  0.24485548265E+04  0.25500000000E-02 0. -1.
    8880022    1    1    2    0    0 -0.14246518622E+04  0.62945491271E+03 -0.39948543490E+03  0.16151862683E+04  0.15294330000E+03 0.  0.
    8880022    1    1    2    0    0  0.14246518622E+04 -0.62945491271E+03 -0.10163636769E+04  0.18660742730E+04  0.15294330000E+03 0.  0.
<mgrwt>
<rscale>  0 0.15650042E+04</rscale>
<asrwt>0</asrwt>
<pdfrwt beam="1">  1        2 0.37670074E+00 0.15650042E+04</pdfrwt>
<pdfrwt beam="2">  1       -2 0.15887780E+00 0.15650042E+04</pdfrwt>
<totfact> 0.89732498E-01</totfact>
</mgrwt>
</event>
<event>
 4    1  0.1033139E-008  0.7480574E+03  0.7818608E-02  0.9638403E-01
         -2   -1    0    0    0  501 -0.00000000000E+00  0.00000000000E+00  0.68980084506E+03  0.68980084506E+03  0.25500000000E-02 0.  1.
          2   -1    0    0  501    0  0.00000000000E+00 -0.00000000000E+00 -0.27114562363E+04  0.27114562363E+04  0.25500000000E-02 0. -1.
    8880022    1    1    2    0    0  0.55562326454E+03  0.47694967037E+03  0.41284569940E+03  0.85441876425E+03  0.15294330000E+03 0.  0.
    8880022    1    1    2    0    0 -0.55562326454E+03 -0.47694967037E+03 -0.24345010907E+04  0.25468383171E+04  0.15294330000E+03 0. -1.
<mgrwt>
<rscale>  0 0.74805739E+03</rscale>
<asrwt>0</asrwt>
<pdfrwt beam="1">  1        2 0.41714711E+00 0.74805739E+03</pdfrwt>
<pdfrwt beam="2">  1       -2 0.10612321E+00 0.74805739E+03</pdfrwt>
<totfact> 0.19814551E+00</totfact>
</mgrwt>
</event>
<event>
 4    1  0.1033139E-008  0.1148752E+04  0.7818608E-02  0.9158936E-01
          2   -1    0    0  501    0  0.00000000000E+00  0.00000000000E+00  0.14701112535E+04  0.14701112535E+04  0.25500000000E-02 0. -1.
         -2   -1    0    0    0  501 -0.00000000000E+00 -0.00000000000E+00 -0.10990806330E+04  0.10990806330E+04  0.25500000000E-02 0.  1.
    8880022    1    1    2    0    0 -0.11372056918E+04  0.54794398693E+02  0.73546778584E+03  0.13640174957E+04  0.15294330000E+03 0.  0.
    8880022    1    1    2    0    0  0.11372056918E+04 -0.54794398693E+02 -0.36443716537E+03  0.12051743908E+04  0.15294330000E+03 0.  0.
<mgrwt>
<rscale>  0 0.11487519E+04</rscale>
<asrwt>0</asrwt>
<pdfrwt beam="1">  1        2 0.22617096E+00 0.11487519E+04</pdfrwt>
<pdfrwt beam="2">  1       -2 0.16908933E+00 0.11487519E+04</pdfrwt>
<totfact> 0.27867973E+00</totfact>
</mgrwt>
</event>
<event>
 4    1  0.1033139E-008  0.9206586E+03  0.7818608E-02  0.9400119E-01
          2   -1    0    0  501    0  0.00000000000E+00  0.00000000000E+00  0.45124599678E+04  0.45124599678E+04  0.25500000000E-02 0. -1.
         -2   -1    0    0    0  501 -0.00000000000E+00 -0.00000000000E+00 -0.22214205683E+03  0.22214205685E+03  0.25500000000E-02 0.  1.
    8880022    1    1    2    0    0 -0.90786496448E+03 -0.13326763796E+01  0.30754305383E+04  0.32102780594E+04  0.15294330000E+03 0.  0.
    8880022    1    1    2    0    0  0.90786496448E+03  0.13326763796E+01  0.12148873727E+04  0.15243239653E+04  0.15294330000E+03 0.  0.
<mgrwt>
<rscale>  0 0.92065858E+03</rscale>
<asrwt>0</asrwt>
<pdfrwt beam="1">  1        2 0.69422453E+00 0.92065858E+03</pdfrwt>
<pdfrwt beam="2">  1       -2 0.34175705E-01 0.92065858E+03</pdfrwt>
<totfact> 0.10495403E+00</totfact>
</mgrwt>
</event>
<event>
 4    1  0.1033139E-008  0.3899388E+03  0.7818608E-02  0.1047320E+00
          2   -1    0    0  501    0  0.00000000000E+00  0.00000000000E+00  0.75315323880E+03  0.75315323881E+03  0.25500000000E-02 0. -1.
         -2   -1    0    0    0  501 -0.00000000000E+00 -0.00000000000E+00 -0.39527970214E+03  0.39527970215E+03  0.25500000000E-02 0.  1.
    8880022    1    1    2    0    0 -0.17538486913E+03  0.31289099146E+03  0.58058215997E+03  0.69937680998E+03  0.15294330000E+03 0.  0.
    8880022    1    1    2    0    0  0.17538486913E+03 -0.31289099146E+03 -0.22270862330E+03  0.44905613097E+03  0.15294330000E+03 0.  0.
<mgrwt>
<rscale>  0 0.38993881E+03</rscale>
<asrwt>0</asrwt>
<pdfrwt beam="1">  1        2 0.11586973E+00 0.38993881E+03</pdfrwt>
<pdfrwt beam="2">  1       -2 0.60812263E-01 0.38993881E+03</pdfrwt>
<totfact> 0.98054216E+01</totfact>
</mgrwt>
</event>
<event>
 4    1  0.1033139E-008  0.4851646E+03  0.7818608E-02  0.1017725E+00
          2   -1    0    0  501    0  0.00000000000E+00  0.00000000000E+00  0.77001919862E+03  0.77001919862E+03  0.25500000000E-02 0. -1.
         -2   -1    0    0    0  501 -0.00000000000E+00 -0.00000000000E+00 -0.14590814276E+04  0.14590814276E+04  0.25500000000E-02 0.  1.
    8880022    1    1    2    0    0  0.29741395402E+03 -0.35147974235E+03 -0.13354745643E+04  0.14208719274E+04  0.15294330000E+03 0.  0.
    8880022    1    1    2    0    0 -0.29741395402E+03  0.35147974235E+03  0.64641233529E+03  0.80822869880E+03  0.15294330000E+03 0.  0.
<mgrwt>
<rscale>  0 0.48516463E+03</rscale>
<asrwt>0</asrwt>
<pdfrwt beam="1">  1        2 0.11846449E+00 0.48516463E+03</pdfrwt>
<pdfrwt beam="2">  1       -2 0.22447407E+00 0.48516463E+03</pdfrwt>
<totfact> 0.36088063E+00</totfact>
</mgrwt>
</event>
<event>
 4    1  0.1033139E-008  0.2961176E+03  0.7818608E-02  0.1087198E+00
         -2   -1    0    0    0  501 -0.00000000000E+00  0.00000000000E+00  0.14123392438E+03  0.14123392441E+03  0.25500000000E-02 0.  1.
          2   -1    0    0  501    0  0.00000000000E+00 -0.00000000000E+00 -0.77870185054E+03  0.77870185055E+03  0.25500000000E-02 0. -1.
    8880022    1    1    2    0    0  0.15370827991E+03  0.20166248197E+03 -0.11164294446E+03  0.31646451935E+03  0.15294330000E+03 0.  1.
    8880022    1    1    2    0    0 -0.15370827991E+03 -0.20166248197E+03 -0.52582498170E+03  0.60347125561E+03  0.15294330000E+03 0. -1.
<mgrwt>
<rscale>  0 0.29611762E+03</rscale>
<asrwt>0</asrwt>
<pdfrwt beam="1">  1        2 0.11980028E+00 0.29611762E+03</pdfrwt>
<pdfrwt beam="2">  1       -2 0.21728296E-01 0.29611762E+03</pdfrwt>
<totfact> 0.67034918E+02</totfact>
</mgrwt>
</event>
<event>
 4    1  0.1033139E-008  0.6653280E+03  0.7818608E-02  0.9778435E-01
          2   -1    0    0  501    0  0.00000000000E+00  0.00000000000E+00  0.61582185556E+03  0.61582185557E+03  0.25500000000E-02 0. -1.
         -2   -1    0    0    0  501 -0.00000000000E+00 -0.00000000000E+00 -0.12074964231E+04  0.12074964231E+04  0.25500000000E-02 0.  1.
    8880022    1    1    2    0    0  0.22123043328E+03 -0.60854483318E+03 -0.87580380269E+03  0.10998607514E+04  0.15294330000E+03 0.  0.
    8880022    1    1    2    0    0 -0.22123043328E+03  0.60854483318E+03  0.28412923511E+03  0.72345752734E+03  0.15294330000E+03 0.  0.
<mgrwt>
<rscale>  0 0.66532802E+03</rscale>
<asrwt>0</asrwt>
<pdfrwt beam="1">  1        2 0.94741824E-01 0.66532802E+03</pdfrwt>
<pdfrwt beam="2">  1       -2 0.18576868E+00 0.66532802E+03</pdfrwt>
<totfact> 0.81829521E+00</totfact>
</mgrwt>
</event>
<event>
 4    1  0.1033139E-008  0.6648903E+03  0.7818608E-02  0.9779233E-01
         -2   -1    0    0    0  501 -0.00000000000E+00  0.00000000000E+00  0.62614241872E+03  0.62614241872E+03  0.25500000000E-02 0.  1.
          2   -1    0    0  501    0  0.00000000000E+00 -0.00000000000E+00 -0.22267618486E+04  0.22267618486E+04  0.25500000000E-02 0. -1.
    8880022    1    1    2    0    0  0.52278508610E+03  0.38129153998E+03  0.37850560092E+03  0.76507883754E+03  0.15294330000E+03 0.  0.
    8880022    1    1    2    0    0 -0.52278508610E+03 -0.38129153998E+03 -0.19791250308E+04  0.20878254298E+04  0.15294330000E+03 0.  0.
<mgrwt>
<rscale>  0 0.66489032E+03</rscale>
<asrwt>0</asrwt>
<pdfrwt beam="1">  1        2 0.34257874E+00 0.66489032E+03</pdfrwt>
<pdfrwt beam="2">  1       -2 0.96329604E-01 0.66489032E+03</pdfrwt>
<totfact> 0.47628775E+00</totfact>
</mgrwt>
</event>
<event>
 4    1  0.1033139E-008  0.1323080E+04  0.7818608E-02  0.9011460E-01
          2   -1    0    0  501    0  0.00000000000E+00  0.00000000000E+00  0.19371173045E+04  0.19371173045E+04  0.25500000000E-02 0. -1.
         -2   -1    0    0    0  501 -0.00000000000E+00 -0.00000000000E+00 -0.15325180919E+04  0.15325180919E+04  0.25500000000E-02 0.  1.
    8880022    1    1    2    0    0  0.98743289432E+03  0.86725218667E+03 -0.90896916829E+03  0.16052310357E+04  0.15294330000E+03 0.  0.
    8880022    1    1    2    0    0 -0.98743289432E+03 -0.86725218667E+03  0.13135683808E+04  0.18644043607E+04  0.15294330000E+03 0.  0.
<mgrwt>
<rscale>  0 0.13230804E+04</rscale>
<asrwt>0</asrwt>
<pdfrwt beam="1">  1        2 0.29801805E+00 0.13230804E+04</pdfrwt>
<pdfrwt beam="2">  1       -2 0.23577201E+00 0.13230804E+04</pdfrwt>
<totfact> 0.54524613E-01</totfact>
</mgrwt>
</event>
<event>
 4    1  0.1033139E-008  0.1064078E+04  0.7818608E-02  0.9240929E-01
         -2   -1    0    0    0  501 -0.00000000000E+00  0.00000000000E+00  0.57173068842E+03  0.57173068842E+03  0.25500000000E-02 0.  1.
          2   -1    0    0  501    0  0.00000000000E+00 -0.00000000000E+00 -0.23093187448E+04  0.23093187448E+04  0.25500000000E-02 0. -1.
    8880022    1    1    2    0    0 -0.55358822601E+03  0.89577363783E+03 -0.14124392102E+04  0.17684022477E+04  0.15294330000E+03 0.  0.
    8880022    1    1    2    0    0  0.55358822601E+03 -0.89577363783E+03 -0.32514884617E+03  0.11126471855E+04  0.15294330000E+03 0.  0.
<mgrwt>
<rscale>  0 0.10640780E+04</rscale>
<asrwt>0</asrwt>
<pdfrwt beam="1">  1        2 0.35527980E+00 0.10640780E+04</pdfrwt>
<pdfrwt beam="2">  1       -2 0.87958569E-01 0.10640780E+04</pdfrwt>
<totfact> 0.49808622E+00</totfact>
</mgrwt>
</event>
<event>
 4    1  0.1033139E-008  0.6052801E+03  0.7818608E-02  0.9894512E-01
          2   -1    0    0  501    0  0.00000000000E+00  0.00000000000E+00  0.12536366120E+04  0.12536366120E+04  0.25500000000E-02 0. -1.
         -2   -1    0    0    0  501 -0.00000000000E+00 -0.00000000000E+00 -0.96715160812E+03  0.96715160812E+03  0.25500000000E-02 0.  1.
    8880022    1    1    2    0    0 -0.58268313588E+03 -0.58760064184E+02 -0.78434095146E+03  0.99073445642E+03  0.15294330000E+03 0.  0.
    8880022    1    1    2    0    0  0.58268313588E+03  0.58760064184E+02  0.10708259553E+04  0.12300537637E+04  0.15294330000E+03 0.  0.
<mgrwt>
<rscale>  0 0.60528013E+03</rscale>
<asrwt>0</asrwt>
<pdfrwt beam="1">  1        2 0.19286717E+00 0.60528013E+03</pdfrwt>
<pdfrwt beam="2">  1       -2 0.14879255E+00 0.60528013E+03</pdfrwt>
<totfact> 0.56336124E+00</totfact>
</mgrwt>
</event>
<event>
 4    1  0.1033139E-008  0.5736442E+03  0.7818608E-02  0.9961647E-01
         -2   -1    0    0    0  501 -0.00000000000E+00  0.00000000000E+00  0.32049052816E+03  0.32049052817E+03  0.25500000000E-02 0.  1.
          2   -1    0    0  501    0  0.00000000000E+00 -0.00000000000E+00 -0.31463845872E+04  0.31463845872E+04  0.25500000000E-02 0. -1.
    8880022    1    1    2    0    0 -0.16442041989E+03  0.52786542713E+03  0.98125662006E+01  0.57372809161E+03  0.15294330000E+03 0.  1.
    8880022    1    1    2    0    0  0.16442041989E+03 -0.52786542713E+03 -0.28357066252E+04  0.28931470237E+04  0.15294330000E+03 0.  0.
<mgrwt>
<rscale>  0 0.57364417E+03</rscale>
<asrwt>0</asrwt>
<pdfrwt beam="1">  1        2 0.48405915E+00 0.57364417E+03</pdfrwt>
<pdfrwt beam="2">  1       -2 0.49306237E-01 0.57364417E+03</pdfrwt>
<totfact> 0.60913859E+00</totfact>
</mgrwt>
</event>
<event>
 4    1  0.1033139E-008  0.1294844E+04  0.7818608E-02  0.9033664E-01
          2   -1    0    0  501    0  0.00000000000E+00  0.00000000000E+00  0.17188733776E+04  0.17188733776E+04  0.25500000000E-02 0. -1.
         -2   -1    0    0    0  501 -0.00000000000E+00 -0.00000000000E+00 -0.16098779335E+04  0.16098779335E+04  0.25500000000E-02 0.  1.
    8880022    1    1    2    0    0  0.54723327825E+03 -0.11635139906E+04 -0.99035924948E+03  0.16301632320E+04  0.15294330000E+03 0.  0.
    8880022    1    1    2    0    0 -0.54723327825E+03  0.11635139906E+04  0.10993546936E+04  0.16985880791E+04  0.15294330000E+03 0. -1.
<mgrwt>
<rscale>  0 0.12948439E+04</rscale>
<asrwt>0</asrwt>
<pdfrwt beam="1">  1        2 0.26444206E+00 0.12948439E+04</pdfrwt>
<pdfrwt beam="2">  1       -2 0.24767353E+00 0.12948439E+04</pdfrwt>
<totfact> 0.61053457E-01</totfact>
</mgrwt>
</event>
<event>
 4    1  0.1033139E-008  0.2742563E+03  0.7818608E-02  0.1098868E+00
          2   -1    0    0  501    0  0.00000000000E+00  0.00000000000E+00  0.14496350759E+04  0.14496350759E+04  0.25500000000E-02 0. -1.
         -2   -1    0    0    0  501 -0.00000000000E+00 -0.00000000000E+00 -0.76409733773E+03  0.76409733773E+03  0.25500000000E-02 0.  1.
    8880022    1    1    2    0    0  0.88495487453E+02  0.20974610423E+03  0.14113932176E+04  0.14377925258E+04  0.15294330000E+03 0. -1.
    8880022    1    1    2    0    0 -0.88495487453E+02 -0.20974610423E+03 -0.72585547942E+03  0.77593988785E+03  0.15294330000E+03 0.  0.
<mgrwt>
<rscale>  0 0.27425633E+03</rscale>
<asrwt>0</asrwt>
<pdfrwt beam="1">  1        2 0.22302078E+00 0.27425633E+03</pdfrwt>
<pdfrwt beam="2">  1       -2 0.11755344E+00 0.27425633E+03</pdfrwt>
<totfact> 0.86348536E+00</totfact>
</mgrwt>
</event>
<event>
 4    1  0.1033139E-008  0.1961672E+04  0.7818608E-02  0.8624753E-01
          2   -1    0    0  501    0  0.00000000000E+00  0.00000000000E+00  0.33415154478E+04  0.33415154478E+04  0.25500000000E-02 0. -1.
         -2   -1    0    0    0  501 -0.00000000000E+00 -0.00000000000E+00 -0.11811525682E+04  0.11811525682E+04  0.25500000000E-02 0.  1.
    8880022    1    1    2    0    0 -0.19126528071E+04  0.40807365823E+03  0.72261132518E+03  0.20905319063E+04  0.15294330000E+03 0.  0.
    8880022    1    1    2    0    0  0.19126528071E+04 -0.40807365823E+03  0.14377515544E+04  0.24321361097E+04  0.15294330000E+03 0.  0.
<mgrwt>
<rscale>  0 0.19616719E+04</rscale>
<asrwt>0</asrwt>
<pdfrwt beam="1">  1        2 0.51407929E+00 0.19616719E+04</pdfrwt>
<pdfrwt beam="2">  1       -2 0.18171578E+00 0.19616719E+04</pdfrwt>
<totfact> 0.16589455E-01</totfact>
</mgrwt>
</event>
<event>
 4    1  0.1033139E-008  0.7127923E+03  0.7818608E-02  0.9695602E-01
         -2   -1    0    0    0  501 -0.00000000000E+00  0.00000000000E+00  0.42783749713E+03  0.42783749714E+03  0.25500000000E-02 0.  1.
          2   -1    0    0  501    0  0.00000000000E+00 -0.00000000000E+00 -0.17330908107E+04  0.17330908107E+04  0.25500000000E-02 0. -1.
    8880022    1    1    2    0    0  0.65157569371E+03 -0.24521473324E+03 -0.12588303125E+04  0.14466259222E+04  0.15294330000E+03 0.  0.
    8880022    1    1    2    0    0 -0.65157569371E+03  0.24521473324E+03 -0.46423000997E+02  0.71430238560E+03  0.15294330000E+03 0.  0.
<mgrwt>
<rscale>  0 0.71279226E+03</rscale>
<asrwt>0</asrwt>
<pdfrwt beam="1">  1        2 0.26662935E+00 0.71279226E+03</pdfrwt>
<pdfrwt beam="2">  1       -2 0.65821154E-01 0.71279226E+03</pdfrwt>
<totfact> 0.20641161E+01</totfact>
</mgrwt>
</event>
<event>
 4    1  0.1033139E-008  0.2924255E+03  0.7818608E-02  0.1089090E+00
         -2   -1    0    0    0  501 -0.00000000000E+00  0.00000000000E+00  0.86678272722E+02  0.86678272760E+02  0.25500000000E-02 0.  1.
          2   -1    0    0  501    0  0.00000000000E+00 -0.00000000000E+00 -0.31204682767E+04  0.31204682767E+04  0.25500000000E-02 0. -1.
    8880022    1    1    2    0    0  0.24027440641E+03  0.66251081630E+02 -0.19082154745E+03  0.34917833865E+03  0.15294330000E+03 0.  0.
    8880022    1    1    2    0    0 -0.24027440641E+03 -0.66251081630E+02 -0.28429684565E+04  0.28579682108E+04  0.15294330000E+03 0.  0.
<mgrwt>
<rscale>  0 0.29242546E+03</rscale>
<asrwt>0</asrwt>
<pdfrwt beam="1">  1        2 0.48007196E+00 0.29242546E+03</pdfrwt>
<pdfrwt beam="2">  1       -2 0.13335121E-01 0.29242546E+03</pdfrwt>
<totfact> 0.73084620E+01</totfact>
</mgrwt>
</event>
<event>
 4    1  0.1033139E-008  0.1165098E+04  0.7818608E-02  0.9143967E-01
          2   -1    0    0  501    0  0.00000000000E+00  0.00000000000E+00  0.26309104655E+04  0.26309104655E+04  0.25500000000E-02 0. -1.
         -2   -1    0    0    0  501 -0.00000000000E+00 -0.00000000000E+00 -0.67357380703E+03  0.67357380704E+03  0.25500000000E-02 0.  1.
    8880022    1    1    2    0    0  0.85831893385E+03 -0.77288493017E+03  0.17779009518E+04  0.21256495372E+04  0.15294330000E+03 0.  0.
    8880022    1    1    2    0    0 -0.85831893385E+03  0.77288493017E+03  0.17943570669E+03  0.11788347354E+04  0.15294330000E+03 0.  0.
<mgrwt>
<rscale>  0 0.11650983E+04</rscale>
<asrwt>0</asrwt>
<pdfrwt beam="1">  1        2 0.40475545E+00 0.11650983E+04</pdfrwt>
<pdfrwt beam="2">  1       -2 0.10362674E+00 0.11650983E+04</pdfrwt>
<totfact> 0.21890902E+00</totfact>
</mgrwt>
</event>
<event>
 4    1  0.1033139E-008  0.1024182E+04  0.7818608E-02  0.9282413E-01
          2   -1    0    0  501    0  0.00000000000E+00  0.00000000000E+00  0.17174593268E+04  0.17174593268E+04  0.25500000000E-02 0. -1.
         -2   -1    0    0    0  501 -0.00000000000E+00 -0.00000000000E+00 -0.64272330800E+03  0.64272330800E+03  0.25500000000E-02 0.  1.
    8880022    1    1    2    0    0  0.77137111702E+03 -0.65615764145E+03  0.27418410098E+03  0.10602475300E+04  0.15294330000E+03 0.  0.
    8880022    1    1    2    0    0 -0.77137111702E+03  0.65615764145E+03  0.80055191783E+03  0.12999351048E+04  0.15294330000E+03 0.  0.
<mgrwt>
<rscale>  0 0.10241816E+04</rscale>
<asrwt>0</asrwt>
<pdfrwt beam="1">  1        2 0.26422451E+00 0.10241816E+04</pdfrwt>
<pdfrwt beam="2">  1       -2 0.98880508E-01 0.10241816E+04</pdfrwt>
<totfact> 0.80925546E+00</totfact>
</mgrwt>
</event>
<event>
 4    1  0.1033139E-008  0.9582959E+03  0.7818608E-02  0.9355506E-01
          2   -1    0    0  501    0  0.00000000000E+00  0.00000000000E+00  0.12264612553E+04  0.12264612553E+04  0.25500000000E-02 0. -1.
         -2   -1    0    0    0  501 -0.00000000000E+00 -0.00000000000E+00 -0.16308776193E+04  0.16308776193E+04  0.25500000000E-02 0.  1.
    8880022    1    1    2    0    0 -0.25956234201E+03 -0.90970695188E+03 -0.12529188402E+04  0.15773828390E+04  0.15294330000E+03 0.  1.
    8880022    1    1    2    0    0  0.25956234201E+03  0.90970695188E+03  0.84850247625E+03  0.12799560355E+04  0.15294330000E+03 0.  0.
<mgrwt>
<rscale>  0 0.95829588E+03</rscale>
<asrwt>0</asrwt>
<pdfrwt beam="1">  1        2 0.18868635E+00 0.95829588E+03</pdfrwt>
<pdfrwt beam="2">  1       -2 0.25090425E+00 0.95829588E+03</pdfrwt>
<totfact> 0.11622274E+00</totfact>
</mgrwt>
</event>
<event>
 4    1  0.1033139E-008  0.1190282E+04  0.7818608E-02  0.9121406E-01
         -2   -1    0    0    0  501 -0.00000000000E+00  0.00000000000E+00  0.29937169993E+04  0.29937169993E+04  0.25500000000E-02 0.  1.
          2   -1    0    0  501    0  0.00000000000E+00 -0.00000000000E+00 -0.88388316630E+03  0.88388316630E+03  0.25500000000E-02 0. -1.
    8880022    1    1    2    0    0  0.11255388740E+04  0.35572680152E+03  0.23764060607E+04  0.26578330896E+04  0.15294330000E+03 0.  0.
    8880022    1    1    2    0    0 -0.11255388740E+04 -0.35572680152E+03 -0.26657222765E+03  0.12197670760E+04  0.15294330000E+03 0.  0.
<mgrwt>
<rscale>  0 0.11902819E+04</rscale>
<asrwt>0</asrwt>
<pdfrwt beam="1">  1        2 0.13598203E+00 0.11902819E+04</pdfrwt>
<pdfrwt beam="2">  1       -2 0.46057185E+00 0.11902819E+04</pdfrwt>
<totfact> 0.87733933E-02</totfact>
</mgrwt>
</event>
<event>
 4    1  0.1033139E-008  0.3290104E+03  0.7818608E-02  0.1071576E+00
          2   -1    0    0  501    0  0.00000000000E+00  0.00000000000E+00  0.23866122471E+04  0.23866122471E+04  0.25500000000E-02 0. -1.
         -2   -1    0    0    0  501 -0.00000000000E+00 -0.00000000000E+00 -0.13234408272E+03  0.13234408275E+03  0.25500000000E-02 0.  1.
    8880022    1    1    2    0    0 -0.25483033688E+03 -0.14113009522E+03  0.10603577826E+03  0.34567534430E+03  0.15294330000E+03 0.  0.
    8880022    1    1    2    0    0  0.25483033688E+03  0.14113009522E+03  0.21482323861E+04  0.21732809856E+04  0.15294330000E+03 0.  0.
<mgrwt>
<rscale>  0 0.32901042E+03</rscale>
<asrwt>0</asrwt>
<pdfrwt beam="1">  1        2 0.36717110E+00 0.32901042E+03</pdfrwt>
<pdfrwt beam="2">  1       -2 0.20360629E-01 0.32901042E+03</pdfrwt>
<totfact> 0.93273060E+01</totfact>
</mgrwt>
</event>
<event>
 4    1  0.1033139E-008  0.2679573E+03  0.7818608E-02  0.1102454E+00
          2   -1    0    0  501    0  0.00000000000E+00  0.00000000000E+00  0.69170935447E+03  0.69170935448E+03  0.25500000000E-02 0. -1.
         -2   -1    0    0    0  501 -0.00000000000E+00 -0.00000000000E+00 -0.48897054433E+03  0.48897054434E+03  0.25500000000E-02 0.  1.
    8880022    1    1    2    0    0  0.21476977405E+03 -0.47785219683E+02 -0.42257591882E+03  0.50037140531E+03  0.15294330000E+03 0.  1.
    8880022    1    1    2    0    0 -0.21476977405E+03  0.47785219683E+02  0.62531472896E+03  0.68030849351E+03  0.15294330000E+03 0.  0.
<mgrwt>
<rscale>  0 0.26795734E+03</rscale>
<asrwt>0</asrwt>
<pdfrwt beam="1">  1        2 0.10641682E+00 0.26795734E+03</pdfrwt>
<pdfrwt beam="2">  1       -2 0.75226237E-01 0.26795734E+03</pdfrwt>
<totfact> 0.70387638E+01</totfact>
</mgrwt>
</event>
<event>
 4    1  0.1033139E-008  0.1530600E+04  0.7818608E-02  0.8864356E-01
          2   -1    0    0  501    0  0.00000000000E+00  0.00000000000E+00  0.33366508737E+04  0.33366508737E+04  0.25500000000E-02 0. -1.
         -2   -1    0    0    0  501 -0.00000000000E+00 -0.00000000000E+00 -0.10201958723E+04  0.10201958723E+04  0.25500000000E-02 0.  1.
    8880022    1    1    2    0    0  0.14058901642E+04  0.58550542281E+03  0.23745944841E+04  0.28251432478E+04  0.15294330000E+03 0.  0.
    8880022    1    1    2    0    0 -0.14058901642E+04 -0.58550542281E+03 -0.58139482687E+02  0.15317034982E+04  0.15294330000E+03 0.  0.
<mgrwt>
<rscale>  0 0.15305997E+04</rscale>
<asrwt>0</asrwt>
<pdfrwt beam="1">  1        2 0.51333091E+00 0.15305997E+04</pdfrwt>
<pdfrwt beam="2">  1       -2 0.15695321E+00 0.15305997E+04</pdfrwt>
<totfact> 0.26441704E-01</totfact>
</mgrwt>
</event>
<event>
 4    1  0.1033139E-008  0.6647348E+03  0.7818608E-02  0.9779517E-01
          2   -1    0    0  501    0  0.00000000000E+00  0.00000000000E+00  0.14583092050E+04  0.14583092050E+04  0.25500000000E-02 0. -1.
         -2   -1    0    0    0  501 -0.00000000000E+00 -0.00000000000E+00 -0.35674477710E+03  0.35674477711E+03  0.25500000000E-02 0.  1.
    8880022    1    1    2    0    0  0.63967330524E+03 -0.96429862455E+02  0.90302010485E+03  0.11213017518E+04  0.15294330000E+03 0.  0.
    8880022    1    1    2    0    0 -0.63967330524E+03  0.96429862455E+02  0.19854432303E+03  0.69375223029E+03  0.15294330000E+03 0.  0.
<mgrwt>
<rscale>  0 0.66473477E+03</rscale>
<asrwt>0</asrwt>
<pdfrwt beam="1">  1        2 0.22435526E+00 0.66473477E+03</pdfrwt>
<pdfrwt beam="2">  1       -2 0.54883812E-01 0.66473477E+03</pdfrwt>
<totfact> 0.43175227E+01</totfact>
</mgrwt>
</event>
<event>
 4    1  0.1033139E-008  0.1337206E+04  0.7818608E-02  0.9000570E-01
          2   -1    0    0  501    0  0.00000000000E+00  0.00000000000E+00  0.17905290904E+04  0.17905290904E+04  0.25500000000E-02 0. -1.
         -2   -1    0    0    0  501 -0.00000000000E+00 -0.00000000000E+00 -0.11915766559E+04  0.11915766559E+04  0.25500000000E-02 0.  1.
    8880022    1    1    2    0    0  0.38107052869E+03  0.12726013902E+04  0.89943666783E+03  0.16115542245E+04  0.15294330000E+03 0.  0.
    8880022    1    1    2    0    0 -0.38107052869E+03 -0.12726013902E+04 -0.30048423337E+03  0.13705515217E+04  0.15294330000E+03 0.  0.
<mgrwt>
<rscale>  0 0.13372063E+04</rscale>
<asrwt>0</asrwt>
<pdfrwt beam="1">  1        2 0.27546601E+00 0.13372063E+04</pdfrwt>
<pdfrwt beam="2">  1       -2 0.18331949E+00 0.13372063E+04</pdfrwt>
<totfact> 0.14370434E+00</totfact>
</mgrwt>
</event>
<event>
 4    1  0.1033139E-008  0.9262506E+03  0.7818608E-02  0.9393349E-01
          2   -1    0    0  501    0  0.00000000000E+00  0.00000000000E+00  0.94160471464E+03  0.94160471465E+03  0.25500000000E-02 0. -1.
         -2   -1    0    0    0  501 -0.00000000000E+00 -0.00000000000E+00 -0.91240992706E+03  0.91240992706E+03  0.25500000000E-02 0.  1.
    8880022    1    1    2    0    0 -0.85462786194E+03 -0.32273786035E+03 -0.19893504485E+02  0.92646419977E+03  0.15294330000E+03 0. -1.
    8880022    1    1    2    0    0  0.85462786194E+03  0.32273786035E+03  0.49088292069E+02  0.92755044194E+03  0.15294330000E+03 0.  1.
<mgrwt>
<rscale>  0 0.92625059E+03</rscale>
<asrwt>0</asrwt>
<pdfrwt beam="1">  1        2 0.14486226E+00 0.92625059E+03</pdfrwt>
<pdfrwt beam="2">  1       -2 0.14037076E+00 0.92625059E+03</pdfrwt>
<totfact> 0.97929193E+00</totfact>
</mgrwt>
</event>
<event>
 4    1  0.1033139E-008  0.6780444E+03  0.7818608E-02  0.9755534E-01
         -2   -1    0    0    0  501 -0.00000000000E+00  0.00000000000E+00  0.14081252703E+04  0.14081252703E+04  0.25500000000E-02 0.  1.
          2   -1    0    0  501    0  0.00000000000E+00 -0.00000000000E+00 -0.78682029786E+03  0.78682029787E+03  0.25500000000E-02 0. -1.
    8880022    1    1    2    0    0 -0.45533876352E+03  0.47855951269E+03  0.11500910997E+04  0.13350856854E+04  0.15294330000E+03 0.  0.
    8880022    1    1    2    0    0  0.45533876352E+03 -0.47855951269E+03 -0.52878612720E+03  0.85985988282E+03  0.15294330000E+03 0.  0.
<mgrwt>
<rscale>  0 0.67804443E+03</rscale>
<asrwt>0</asrwt>
<pdfrwt beam="1">  1        2 0.12104928E+00 0.67804443E+03</pdfrwt>
<pdfrwt beam="2">  1       -2 0.21663465E+00 0.67804443E+03</pdfrwt>
<totfact> 0.37865451E+00</totfact>
</mgrwt>
</event>
<event>
 4    1  0.1033139E-008  0.7302679E+03  0.7818608E-02  0.9666826E-01
         -2   -1    0    0    0  501 -0.00000000000E+00  0.00000000000E+00  0.12188234401E+04  0.12188234401E+04  0.25500000000E-02 0.  1.
          2   -1    0    0  501    0  0.00000000000E+00 -0.00000000000E+00 -0.10143636345E+04  0.10143636345E+04  0.25500000000E-02 0. -1.
    8880022    1    1    2    0    0 -0.14220617539E+03  0.69976921014E+03  0.94424053855E+03  0.11936839579E+04  0.15294330000E+03 0.  0.
    8880022    1    1    2    0    0  0.14220617539E+03 -0.69976921014E+03 -0.73978073295E+03  0.10395031167E+04  0.15294330000E+03 0.  0.
<mgrwt>
<rscale>  0 0.73026789E+03</rscale>
<asrwt>0</asrwt>
<pdfrwt beam="1">  1        2 0.15605594E+00 0.73026789E+03</pdfrwt>
<pdfrwt beam="2">  1       -2 0.18751130E+00 0.73026789E+03</pdfrwt>
<totfact> 0.40738691E+00</totfact>
</mgrwt>
</event>
<event>
 4    1  0.1033139E-008  0.9374487E+03  0.7818608E-02  0.9379943E-01
          2   -1    0    0  501    0  0.00000000000E+00  0.00000000000E+00  0.24981560012E+04  0.24981560012E+04  0.25500000000E-02 0. -1.
         -2   -1    0    0    0  501 -0.00000000000E+00 -0.00000000000E+00 -0.65058955989E+03  0.65058955989E+03  0.25500000000E-02 0.  1.
    8880022    1    1    2    0    0 -0.62459707287E+03 -0.68212672388E+03 -0.14317825575E+03  0.94831958580E+03  0.15294330000E+03 0.  0.
    8880022    1    1    2    0    0  0.62459707287E+03  0.68212672388E+03  0.19907446971E+04  0.22004259753E+04  0.15294330000E+03 0.  0.
<mgrwt>
<rscale>  0 0.93744868E+03</rscale>
<asrwt>0</asrwt>
<pdfrwt beam="1">  1        2 0.38433169E+00 0.93744868E+03</pdfrwt>
<pdfrwt beam="2">  1       -2 0.10009070E+00 0.93744868E+03</pdfrwt>
<totfact> 0.29273950E+00</totfact>
</mgrwt>
</event>
<event>
 4    1  0.1033139E-008  0.8823525E+03  0.7818608E-02  0.9447915E-01
          2   -1    0    0  501    0  0.00000000000E+00  0.00000000000E+00  0.15738539022E+04  0.15738539022E+04  0.25500000000E-02 0. -1.
         -2   -1    0    0    0  501 -0.00000000000E+00 -0.00000000000E+00 -0.10998871554E+04  0.10998871554E+04  0.25500000000E-02 0.  1.
    8880022    1    1    2    0    0 -0.12545204676E+03 -0.85989303471E+03  0.12286579258E+04  0.15126619578E+04  0.15294330000E+03 0.  0.
    8880022    1    1    2    0    0  0.12545204676E+03  0.85989303471E+03 -0.75469117897E+03  0.11610790997E+04  0.15294330000E+03 0.  0.
<mgrwt>
<rscale>  0 0.88235248E+03</rscale>
<asrwt>0</asrwt>
<pdfrwt beam="1">  1        2 0.24213137E+00 0.88235248E+03</pdfrwt>
<pdfrwt beam="2">  1       -2 0.16921341E+00 0.88235248E+03</pdfrwt>
<totfact> 0.25123482E+00</totfact>
</mgrwt>
</event>
<event>
 4    1  0.1033139E-008  0.8638371E+03  0.7818608E-02  0.9471951E-01
         -2   -1    0    0    0  501 -0.00000000000E+00  0.00000000000E+00  0.22806301311E+04  0.22806301311E+04  0.25500000000E-02 0.  1.
          2   -1    0    0  501    0  0.00000000000E+00 -0.00000000000E+00 -0.54498750459E+03  0.54498750460E+03  0.25500000000E-02 0. -1.
    8880022    1    1    2    0    0  0.81460593871E+03  0.24339272641E+03  0.17609416067E+04  0.19614101687E+04  0.15294330000E+03 0.  0.
    8880022    1    1    2    0    0 -0.81460593871E+03 -0.24339272641E+03 -0.25298980174E+02  0.86420746702E+03  0.15294330000E+03 0.  0.
<mgrwt>
<rscale>  0 0.86383708E+03</rscale>
<asrwt>0</asrwt>
<pdfrwt beam="1">  1        2 0.83844233E-01 0.86383708E+03</pdfrwt>
<pdfrwt beam="2">  1       -2 0.35086617E+00 0.86383708E+03</pdfrwt>
<totfact> 0.88447556E-01</totfact>
</mgrwt>
</event>
<event>
 4    1  0.1033139E-008  0.8273852E+03  0.7818608E-02  0.9521203E-01
         -2   -1    0    0    0  501 -0.00000000000E+00  0.00000000000E+00  0.79487796389E+03  0.79487796390E+03  0.25500000000E-02 0.  1.
          2   -1    0    0  501    0  0.00000000000E+00 -0.00000000000E+00 -0.16055188256E+04  0.16055188256E+04  0.25500000000E-02 0. -1.
    8880022    1    1    2    0    0 -0.62482813618E+03 -0.52035022729E+03  0.41186099947E+03  0.92422707962E+03  0.15294330000E+03 0.  0.
    8880022    1    1    2    0    0  0.62482813618E+03  0.52035022729E+03 -0.12225018612E+04  0.14761697099E+04  0.15294330000E+03 0.  0.
<mgrwt>
<rscale>  0 0.82738517E+03</rscale>
<asrwt>0</asrwt>
<pdfrwt beam="1">  1        2 0.24700289E+00 0.82738517E+03</pdfrwt>
<pdfrwt beam="2">  1       -2 0.12228892E+00 0.82738517E+03</pdfrwt>
<totfact> 0.56988297E+00</totfact>
</mgrwt>
</event>
<event>
 4    1  0.1033139E-008  0.8296033E+03  0.7818608E-02  0.9518129E-01
          2   -1    0    0  501    0  0.00000000000E+00  0.00000000000E+00  0.11381994104E+04  0.11381994104E+04  0.25500000000E-02 0. -1.
         -2   -1    0    0    0  501 -0.00000000000E+00 -0.00000000000E+00 -0.19639094023E+04  0.19639094023E+04  0.25500000000E-02 0.  1.
    8880022    1    1    2    0    0 -0.18863308682E+03 -0.79326380811E+03  0.87751236394E+03  0.12075883043E+04  0.15294330000E+03 0.  0.
    8880022    1    1    2    0    0  0.18863308682E+03  0.79326380811E+03 -0.17032223558E+04  0.18945205084E+04  0.15294330000E+03 0.  0.
<mgrwt>
<rscale>  0 0.82960326E+03</rscale>
<asrwt>0</asrwt>
<pdfrwt beam="1">  1        2 0.17510760E+00 0.82960326E+03</pdfrwt>
<pdfrwt beam="2">  1       -2 0.30213991E+00 0.82960326E+03</pdfrwt>
<totfact> 0.65750785E-01</totfact>
</mgrwt>
</event>
<event>
 4    1  0.1033139E-008  0.9822191E+03  0.7818608E-02  0.9328264E-01
          2   -1    0    0  501    0  0.00000000000E+00  0.00000000000E+00  0.18121323161E+04  0.18121323161E+04  0.25500000000E-02 0. -1.
         -2   -1    0    0    0  501 -0.00000000000E+00 -0.00000000000E+00 -0.15069544058E+04  0.15069544058E+04  0.25500000000E-02 0.  1.
    8880022    1    1    2    0    0 -0.47963580191E+03 -0.84339327011E+03 -0.11819911668E+04  0.15368335896E+04  0.15294330000E+03 0.  0.
    8880022    1    1    2    0    0  0.47963580191E+03  0.84339327011E+03  0.14871690771E+04  0.17822531323E+04  0.15294330000E+03 0.  0.
<mgrwt>
<rscale>  0 0.98221910E+03</rscale>
<asrwt>0</asrwt>
<pdfrwt beam="1">  1        2 0.27878959E+00 0.98221910E+03</pdfrwt>
<pdfrwt beam="2">  1       -2 0.23183914E+00 0.98221910E+03</pdfrwt>
<totfact> 0.70865677E-01</totfact>
</mgrwt>
</event>
<event>
 4    1  0.1033139E-008  0.7720426E+03  0.7818608E-02  0.9601390E-01
          2   -1    0    0  501    0  0.00000000000E+00  0.00000000000E+00  0.17293751820E+04  0.17293751821E+04  0.25500000000E-02 0. -1.
         -2   -1    0    0    0  501 -0.00000000000E+00 -0.00000000000E+00 -0.77626448350E+03  0.77626448350E+03  0.25500000000E-02 0.  1.
    8880022    1    1    2    0    0  0.16427686490E+03  0.73869567228E+03 -0.45761429318E+03  0.89747461186E+03  0.15294330000E+03 0.  1.
    8880022    1    1    2    0    0 -0.16427686490E+03 -0.73869567228E+03  0.14107249917E+04  0.16081650537E+04  0.15294330000E+03 0.  0.
<mgrwt>
<rscale>  0 0.77204264E+03</rscale>
<asrwt>0</asrwt>
<pdfrwt beam="1">  1        2 0.26605771E+00 0.77204264E+03</pdfrwt>
<pdfrwt beam="2">  1       -2 0.11942531E+00 0.77204264E+03</pdfrwt>
<totfact> 0.52094360E+00</totfact>
</mgrwt>
</event>
<event>
 4    1  0.1033139E-008  0.9317813E+03  0.7818608E-02  0.9386703E-01
          2   -1    0    0  501    0  0.00000000000E+00  0.00000000000E+00  0.23660281225E+04  0.23660281225E+04  0.25500000000E-02 0. -1.
         -2   -1    0    0    0  501 -0.00000000000E+00 -0.00000000000E+00 -0.84546049489E+03  0.84546049490E+03  0.25500000000E-02 0.  1.
    8880022    1    1    2    0    0 -0.12887380274E+03 -0.91006385916E+03  0.19683063066E+04  0.21777157882E+04  0.15294330000E+03 0.  0.
    8880022    1    1    2    0    0  0.12887380274E+03  0.91006385916E+03 -0.44773867893E+03  0.10337728292E+04  0.15294330000E+03 0.  0.
<mgrwt>
<rscale>  0 0.93178127E+03</rscale>
<asrwt>0</asrwt>
<pdfrwt beam="1">  1        2 0.36400432E+00 0.93178127E+03</pdfrwt>
<pdfrwt beam="2">  1       -2 0.13007085E+00 0.93178127E+03</pdfrwt>
<totfact> 0.18291770E+00</totfact>
</mgrwt>
</event>
<event>
 4    1  0.1033139E-008  0.1562432E+04  0.7818608E-02  0.8843966E-01
         -2   -1    0    0    0  501 -0.00000000000E+00  0.00000000000E+00  0.22647957429E+04  0.22647957429E+04  0.25500000000E-02 0.  1.
          2   -1    0    0  501    0  0.00000000000E+00 -0.00000000000E+00 -0.14791889510E+04  0.14791889510E+04  0.25500000000E-02 0. -1.
    8880022    1    1    2    0    0  0.15239365346E+04  0.30890157565E+03  0.13678553474E+04  0.20765891865E+04  0.15294330000E+03 0.  0.
    8880022    1    1    2    0    0 -0.15239365346E+04 -0.30890157565E+03 -0.58224855551E+03  0.16673955075E+04  0.15294330000E+03 0.  0.
<mgrwt>
<rscale>  0 0.15624322E+04</rscale>
<asrwt>0</asrwt>
<pdfrwt beam="1">  1        2 0.22756753E+00 0.15624322E+04</pdfrwt>
<pdfrwt beam="2">  1       -2 0.34843012E+00 0.15624322E+04</pdfrwt>
<totfact> 0.19425271E-01</totfact>
</mgrwt>
</event>
<event>
 4    1  0.1033139E-008  0.4278346E+03  0.7818608E-02  0.1034546E+00
         -2   -1    0    0    0  501 -0.00000000000E+00  0.00000000000E+00  0.16677787246E+04  0.16677787246E+04  0.25500000000E-02 0.  1.
          2   -1    0    0  501    0  0.00000000000E+00 -0.00000000000E+00 -0.18404283805E+04  0.18404283805E+04  0.25500000000E-02 0. -1.
    8880022    1    1    2    0    0  0.30413397064E+03  0.25913959291E+03  0.16146726523E+04  0.16703922377E+04  0.15294330000E+03 0.  0.
    8880022    1    1    2    0    0 -0.30413397064E+03 -0.25913959291E+03 -0.17873223082E+04  0.18378148675E+04  0.15294330000E+03 0.  0.
<mgrwt>
<rscale>  0 0.42783461E+03</rscale>
<asrwt>0</asrwt>
<pdfrwt beam="1">  1        2 0.28314283E+00 0.42783461E+03</pdfrwt>
<pdfrwt beam="2">  1       -2 0.25658134E+00 0.42783461E+03</pdfrwt>
<totfact> 0.55538382E-01</totfact>
</mgrwt>
</event>
<event>
 4    1  0.1033139E-008  0.7339726E+03  0.7818608E-02  0.9660836E-01
         -2   -1    0    0    0  501 -0.00000000000E+00  0.00000000000E+00  0.36376702180E+03  0.36376702181E+03  0.25500000000E-02 0.  1.
          2   -1    0    0  501    0  0.00000000000E+00 -0.00000000000E+00 -0.29858678554E+04  0.29858678554E+04  0.25500000000E-02 0. -1.
    8880022    1    1    2    0    0  0.12630963344E+03 -0.70666112542E+03 -0.25000743119E+04  0.26055877048E+04  0.15294330000E+03 0.  0.
    8880022    1    1    2    0    0 -0.12630963344E+03  0.70666112542E+03 -0.12202652170E+03  0.74404717236E+03  0.15294330000E+03 0.  0.
<mgrwt>
<rscale>  0 0.73397256E+03</rscale>
<asrwt>0</asrwt>
<pdfrwt beam="1">  1        2 0.45936427E+00 0.73397256E+03</pdfrwt>
<pdfrwt beam="2">  1       -2 0.55964159E-01 0.73397256E+03</pdfrwt>
<totfact> 0.56925741E+00</totfact>
</mgrwt>
</event>
<event>
 4    1  0.1033139E-008  0.5904041E+03  0.7818608E-02  0.9925517E-01
         -2   -1    0    0    0  501 -0.00000000000E+00  0.00000000000E+00  0.57041726237E+03  0.57041726237E+03  0.25500000000E-02 0.  1.
          2   -1    0    0  501    0  0.00000000000E+00 -0.00000000000E+00 -0.19661817472E+04  0.19661817472E+04  0.25500000000E-02 0. -1.
    8880022    1    1    2    0    0  0.53139223842E+03 -0.20690004930E+03 -0.17507992569E+04  0.18476674572E+04  0.15294330000E+03 0.  0.
    8880022    1    1    2    0    0 -0.53139223842E+03  0.20690004930E+03  0.35503477206E+03  0.68893155237E+03  0.15294330000E+03 0.  1.
<mgrwt>
<rscale>  0 0.59040409E+03</rscale>
<asrwt>0</asrwt>
<pdfrwt beam="1">  1        2 0.30248950E+00 0.59040409E+03</pdfrwt>
<pdfrwt beam="2">  1       -2 0.87756503E-01 0.59040409E+03</pdfrwt>
<totfact> 0.83155389E+00</totfact>
</mgrwt>
</event>
<event>
 4    1  0.1739196E-008  0.9231508E+03  0.7818608E-02  0.9397096E-01
          2   -1    0    0  501    0  0.00000000000E+00  0.00000000000E+00  0.19074347744E+04  0.19074347744E+04  0.25500000000E-02 0. -1.
         -2   -1    0    0    0  501 -0.00000000000E+00 -0.00000000000E+00 -0.22662836958E+04  0.22662836958E+04  0.25500000000E-02 0.  1.
    8880022    1    1    2    0    0 -0.78352311748E+03 -0.46358100807E+03  0.16904491541E+04  0.19260908137E+04  0.15294330000E+03 0.  0.
    8880022    1    1    2    0    0  0.78352311748E+03  0.46358100807E+03 -0.20492980755E+04  0.22476276565E+04  0.15294330000E+03 0.  0.
<mgrwt>
<rscale>  0 0.92315084E+03</rscale>
<asrwt>0</asrwt>
<pdfrwt beam="1">  1        2 0.29345150E+00 0.92315084E+03</pdfrwt>
<pdfrwt beam="2">  1       -2 0.34865903E+00 0.92315084E+03</pdfrwt>
<totfact> 0.12323592E-01</totfact>
</mgrwt>
</event>
<event>
 4    1  0.1033139E-008  0.9376550E+03  0.7818608E-02  0.9379697E-01
          2   -1    0    0  501    0  0.00000000000E+00  0.00000000000E+00  0.23994842559E+04  0.23994842559E+04  0.25500000000E-02 0. -1.
         -2   -1    0    0    0  501 -0.00000000000E+00 -0.00000000000E+00 -0.71564532377E+03  0.71564532377E+03  0.25500000000E-02 0.  1.
    8880022    1    1    2    0    0 -0.90342160673E+03 -0.19908473081E+03  0.19299868132E+04  0.21457040993E+04  0.15294330000E+03 0.  0.
    8880022    1    1    2    0    0  0.90342160673E+03  0.19908473081E+03 -0.24614788111E+03  0.96942548035E+03  0.15294330000E+03 0.  0.
<mgrwt>
<rscale>  0 0.93765504E+03</rscale>
<asrwt>0</asrwt>
<pdfrwt beam="1">  1        2 0.36915142E+00 0.93765504E+03</pdfrwt>
<pdfrwt beam="2">  1       -2 0.11009928E+00 0.93765504E+03</pdfrwt>
<totfact> 0.26473631E+00</totfact>
</mgrwt>
</event>
<event>
 4    1  0.1033139E-008  0.5913679E+03  0.7818608E-02  0.9923479E-01
         -2   -1    0    0    0  501 -0.00000000000E+00  0.00000000000E+00  0.50453809007E+03  0.50453809008E+03  0.25500000000E-02 0.  1.
          2   -1    0    0  501    0  0.00000000000E+00 -0.00000000000E+00 -0.10496453538E+04  0.10496453538E+04  0.25500000000E-02 0. -1.
    8880022    1    1    2    0    0  0.55478605467E+03 -0.13614982745E+03 -0.72543396116E+03  0.93593291800E+03  0.15294330000E+03 0.  0.
    8880022    1    1    2    0    0 -0.55478605467E+03  0.13614982745E+03  0.18032669741E+03  0.61825052591E+03  0.15294330000E+03 0.  0.
<mgrwt>
<rscale>  0 0.59136790E+03</rscale>
<asrwt>0</asrwt>
<pdfrwt beam="1">  1        2 0.16148390E+00 0.59136790E+03</pdfrwt>
<pdfrwt beam="2">  1       -2 0.77621245E-01 0.59136790E+03</pdfrwt>
<totfact> 0.35819968E+01</totfact>
</mgrwt>
</event>
<event>
 4    1  0.1033139E-008  0.1318616E+04  0.7818608E-02  0.9014931E-01
         -2   -1    0    0    0  501 -0.00000000000E+00  0.00000000000E+00  0.50396890633E+03  0.50396890634E+03  0.25500000000E-02 0.  1.
          2   -1    0    0  501    0  0.00000000000E+00 -0.00000000000E+00 -0.41284185924E+04  0.41284185924E+04  0.25500000000E-02 0. -1.
    8880022    1    1    2    0    0 -0.11049043146E+04  0.70323825433E+03 -0.27510743838E+04  0.30507637576E+04  0.15294330000E+03 0.  0.
    8880022    1    1    2    0    0  0.11049043146E+04 -0.70323825433E+03 -0.87337530228E+03  0.15816237411E+04  0.15294330000E+03 0.  0.
<mgrwt>
<rscale>  0 0.13186164E+04</rscale>
<asrwt>0</asrwt>
<pdfrwt beam="1">  1        2 0.63514130E+00 0.13186164E+04</pdfrwt>
<pdfrwt beam="2">  1       -2 0.77533681E-01 0.13186164E+04</pdfrwt>
<totfact> 0.39804500E-01</totfact>
</mgrwt>
</event>
<event>
 4    1  0.1033139E-008  0.1654809E+04  0.7818608E-02  0.8787567E-01
          2   -1    0    0  501    0  0.00000000000E+00  0.00000000000E+00  0.22295675028E+04  0.22295675028E+04  0.25500000000E-02 0. -1.
         -2   -1    0    0    0  501 -0.00000000000E+00 -0.00000000000E+00 -0.15049784150E+04  0.15049784150E+04  0.25500000000E-02 0.  1.
    8880022    1    1    2    0    0 -0.16560703993E+03  0.16393822724E+04 -0.43845341655E+03  0.17119091618E+04  0.15294330000E+03 0.  0.
    8880022    1    1    2    0    0  0.16560703993E+03 -0.16393822724E+04  0.11630425044E+04  0.20226367560E+04  0.15294330000E+03 0.  0.
<mgrwt>
<rscale>  0 0.16548086E+04</rscale>
<asrwt>0</asrwt>
<pdfrwt beam="1">  1        2 0.34301038E+00 0.16548086E+04</pdfrwt>
<pdfrwt beam="2">  1       -2 0.23153514E+00 0.16548086E+04</pdfrwt>
<totfact> 0.38336353E-01</totfact>
</mgrwt>
</event>
<event>
 4    1  0.1033139E-008  0.6476338E+03  0.7818608E-02  0.9811229E-01
         -2   -1    0    0    0  501 -0.00000000000E+00  0.00000000000E+00  0.11511029274E+04  0.11511029274E+04  0.25500000000E-02 0.  1.
          2   -1    0    0  501    0  0.00000000000E+00 -0.00000000000E+00 -0.13655991023E+04  0.13655991023E+04  0.25500000000E-02 0. -1.
    8880022    1    1    2    0    0 -0.62896054621E+03  0.21130599865E+02  0.97022521867E+03  0.11665189664E+04  0.15294330000E+03 0.  0.
    8880022    1    1    2    0    0  0.62896054621E+03 -0.21130599865E+02 -0.11847213936E+04  0.13501830633E+04  0.15294330000E+03 0.  0.
<mgrwt>
<rscale>  0 0.64763379E+03</rscale>
<asrwt>0</asrwt>
<pdfrwt beam="1">  1        2 0.21009217E+00 0.64763379E+03</pdfrwt>
<pdfrwt beam="2">  1       -2 0.17709276E+00 0.64763379E+03</pdfrwt>
<totfact> 0.30064812E+00</totfact>
</mgrwt>
</event>
<event>
 4    1  0.1033139E-008  0.5996562E+03  0.7818608E-02  0.9906120E-01
         -2   -1    0    0    0  501 -0.00000000000E+00  0.00000000000E+00  0.10036163249E+04  0.10036163249E+04  0.25500000000E-02 0.  1.
          2   -1    0    0  501    0  0.00000000000E+00 -0.00000000000E+00 -0.66095488633E+03  0.66095488634E+03  0.25500000000E-02 0. -1.
    8880022    1    1    2    0    0  0.94897687061E+02  0.57200557529E+03  0.73453523674E+03  0.94822445454E+03  0.15294330000E+03 0.  1.
    8880022    1    1    2    0    0 -0.94897687061E+02 -0.57200557529E+03 -0.39187379815E+03  0.71634675672E+03  0.15294330000E+03 0.  0.
<mgrwt>
<rscale>  0 0.59965624E+03</rscale>
<asrwt>0</asrwt>
<pdfrwt beam="1">  1        2 0.10168537E+00 0.59965624E+03</pdfrwt>
<pdfrwt beam="2">  1       -2 0.15440251E+00 0.59965624E+03</pdfrwt>
<totfact> 0.12619327E+01</totfact>
</mgrwt>
</event>
<event>
 4    1  0.1033139E-008  0.1261628E+04  0.7818608E-02  0.9060561E-01
         -2   -1    0    0    0  501 -0.00000000000E+00  0.00000000000E+00  0.55942665591E+03  0.55942665592E+03  0.25500000000E-02 0.  1.
          2   -1    0    0  501    0  0.00000000000E+00 -0.00000000000E+00 -0.49004477951E+04  0.49004477951E+04  0.25500000000E-02 0. -1.
    8880022    1    1    2    0    0  0.12460763806E+04 -0.12492633532E+03 -0.39384295764E+04  0.41355691407E+04  0.15294330000E+03 0.  0.
    8880022    1    1    2    0    0 -0.12460763806E+04  0.12492633532E+03 -0.40259156278E+03  0.13243053104E+04  0.15294330000E+03 0.  0.
<mgrwt>
<rscale>  0 0.12616278E+04</rscale>
<asrwt>0</asrwt>
<pdfrwt beam="1">  1        2 0.75391502E+00 0.12616278E+04</pdfrwt>
<pdfrwt beam="2">  1       -2 0.86065643E-01 0.12616278E+04</pdfrwt>
<totfact> 0.55216027E-02</totfact>
</mgrwt>
</event>
<event>
 4    1  0.1033139E-008  0.4583318E+03  0.7818608E-02  0.1025266E+00
          2   -1    0    0  501    0  0.00000000000E+00  0.00000000000E+00  0.11451235451E+04  0.11451235451E+04  0.25500000000E-02 0. -1.
         -2   -1    0    0    0  501 -0.00000000000E+00 -0.00000000000E+00 -0.44484629588E+03  0.44484629588E+03  0.25500000000E-02 0.  1.
    8880022    1    1    2    0    0 -0.43168118588E+03  0.18104245683E+02  0.95954519953E+03  0.10633884769E+04  0.15294330000E+03 0. -1.
    8880022    1    1    2    0    0  0.43168118588E+03 -0.18104245683E+02 -0.25926795026E+03  0.52658136408E+03  0.15294330000E+03 0.  0.
<mgrwt>
<rscale>  0 0.45833183E+03</rscale>
<asrwt>0</asrwt>
<pdfrwt beam="1">  1        2 0.17617285E+00 0.45833183E+03</pdfrwt>
<pdfrwt beam="2">  1       -2 0.68437893E-01 0.45833183E+03</pdfrwt>
<totfact> 0.42087549E+01</totfact>
</mgrwt>
</event>
<event>
 4    1  0.1033139E-008  0.5651567E+03  0.7818608E-02  0.9980454E-01
          2   -1    0    0  501    0  0.00000000000E+00  0.00000000000E+00  0.59259686761E+03  0.59259686761E+03  0.25500000000E-02 0. -1.
         -2   -1    0    0    0  501 -0.00000000000E+00 -0.00000000000E+00 -0.13256242240E+04  0.13256242240E+04  0.25500000000E-02 0.  1.
    8880022    1    1    2    0    0  0.47992725038E+03  0.25628159622E+03  0.37231826853E+03  0.67677394181E+03  0.15294330000E+03 0.  0.
    8880022    1    1    2    0    0 -0.47992725038E+03 -0.25628159622E+03 -0.11053456249E+04  0.12414471498E+04  0.15294330000E+03 0.  0.
<mgrwt>
<rscale>  0 0.56515668E+03</rscale>
<asrwt>0</asrwt>
<pdfrwt beam="1">  1        2 0.91168749E-01 0.56515668E+03</pdfrwt>
<pdfrwt beam="2">  1       -2 0.20394219E+00 0.56515668E+03</pdfrwt>
<totfact> 0.66079277E+00</totfact>
</mgrwt>
</event>
<event>
 4    1  0.1033139E-008  0.5468254E+03  0.7818608E-02  0.1002231E+00
         -2   -1    0    0    0  501 -0.00000000000E+00  0.00000000000E+00  0.69498761162E+03  0.69498761162E+03  0.25500000000E-02 0.  1.
          2   -1    0    0  501    0  0.00000000000E+00 -0.00000000000E+00 -0.15111901870E+04  0.15111901870E+04  0.25500000000E-02 0. -1.
    8880022    1    1    2    0    0  0.70822811908E+02  0.52020231735E+03 -0.13410374171E+04  0.14482400798E+04  0.15294330000E+03 0.  0.
    8880022    1    1    2    0    0 -0.70822811908E+02 -0.52020231735E+03  0.52483484166E+03  0.75793771888E+03  0.15294330000E+03 0.  0.
<mgrwt>
<rscale>  0 0.54682536E+03</rscale>
<asrwt>0</asrwt>
<pdfrwt beam="1">  1        2 0.23249080E+00 0.54682536E+03</pdfrwt>
<pdfrwt beam="2">  1       -2 0.10692117E+00 0.54682536E+03</pdfrwt>
<totfact> 0.93261677E+00</totfact>
</mgrwt>
</event>
<event>
 4    1  0.1033139E-008  0.8977231E+03  0.7818608E-02  0.9428432E-01
         -2   -1    0    0    0  501 -0.00000000000E+00  0.00000000000E+00  0.57828675764E+03  0.57828675764E+03  0.25500000000E-02 0.  1.
          2   -1    0    0  501    0  0.00000000000E+00 -0.00000000000E+00 -0.27929738064E+04  0.27929738064E+04  0.25500000000E-02 0. -1.
    8880022    1    1    2    0    0  0.44850290282E+03  0.76246982668E+03  0.85803790485E+02  0.90181430124E+03  0.15294330000E+03 0.  0.
    8880022    1    1    2    0    0 -0.44850290282E+03 -0.76246982668E+03 -0.23004908393E+04  0.24694462628E+04  0.15294330000E+03 0.  0.
<mgrwt>
<rscale>  0 0.89772309E+03</rscale>
<asrwt>0</asrwt>
<pdfrwt beam="1">  1        2 0.42968827E+00 0.89772309E+03</pdfrwt>
<pdfrwt beam="2">  1       -2 0.88967195E-01 0.89772309E+03</pdfrwt>
<totfact> 0.26152268E+00</totfact>
</mgrwt>
</event>
<event>
 4    1  0.1033139E-008  0.4899582E+03  0.7818608E-02  0.1016434E+00
          2   -1    0    0  501    0  0.00000000000E+00  0.00000000000E+00  0.21846738013E+04  0.21846738013E+04  0.25500000000E-02 0. -1.
         -2   -1    0    0    0  501 -0.00000000000E+00 -0.00000000000E+00 -0.16573431201E+03  0.16573431203E+03  0.25500000000E-02 0.  1.
    8880022    1    1    2    0    0  0.28582208124E+03  0.36738685509E+03  0.32725224100E+03  0.58919694981E+03  0.15294330000E+03 0.  0.
    8880022    1    1    2    0    0 -0.28582208124E+03 -0.36738685509E+03  0.16916872483E+04  0.17612111635E+04  0.15294330000E+03 0.  0.
<mgrwt>
<rscale>  0 0.48995818E+03</rscale>
<asrwt>0</asrwt>
<pdfrwt beam="1">  1        2 0.33610361E+00 0.48995818E+03</pdfrwt>
<pdfrwt beam="2">  1       -2 0.25497590E-01 0.48995818E+03</pdfrwt>
<totfact> 0.77987408E+01</totfact>
</mgrwt>
</event>
<event>
 4    1  0.1033139E-008  0.2358686E+03  0.7818608E-02  0.1122576E+00
          2   -1    0    0  501    0  0.00000000000E+00  0.00000000000E+00  0.99806568537E+03  0.99806568537E+03  0.25500000000E-02 0. -1.
         -2   -1    0    0    0  501 -0.00000000000E+00 -0.00000000000E+00 -0.30241513885E+03  0.30241513886E+03  0.25500000000E-02 0.  1.
    8880022    1    1    2    0    0 -0.15870680828E+03 -0.83991045757E+02 -0.23943859291E+03  0.33610242419E+03  0.15294330000E+03 0.  0.
    8880022    1    1    2    0    0  0.15870680828E+03  0.83991045757E+02  0.93508913943E+03  0.96437840003E+03  0.15294330000E+03 0. -1.
<mgrwt>
<rscale>  0 0.23586861E+03</rscale>
<asrwt>0</asrwt>
<pdfrwt beam="1">  1        2 0.15354856E+00 0.23586861E+03</pdfrwt>
<pdfrwt beam="2">  1       -2 0.46525407E-01 0.23586861E+03</pdfrwt>
<totfact> 0.11903540E+02</totfact>
</mgrwt>
</event>
<event>
 4    1  0.1066740E-008  0.8292162E+03  0.7818608E-02  0.9518665E-01
          2   -1    0    0  501    0  0.00000000000E+00  0.00000000000E+00  0.25064150857E+04  0.25064150857E+04  0.25500000000E-02 0. -1.
         -2   -1    0    0    0  501 -0.00000000000E+00 -0.00000000000E+00 -0.69188878144E+03  0.69188878144E+03  0.25500000000E-02 0.  1.
    8880022    1    1    2    0    0 -0.81425664211E+03 -0.34553848199E+02  0.21495656378E+04  0.23039600543E+04  0.15294330000E+03 0.  0.
    8880022    1    1    2    0    0  0.81425664211E+03  0.34553848199E+02 -0.33503933348E+03  0.89434381288E+03  0.15294330000E+03 0.  0.
<mgrwt>
<rscale>  0 0.82921620E+03</rscale>
<asrwt>0</asrwt>
<pdfrwt beam="1">  1        2 0.38560232E+00 0.82921620E+03</pdfrwt>
<pdfrwt beam="2">  1       -2 0.10644443E+00 0.82921620E+03</pdfrwt>
<totfact> 0.25424557E+00</totfact>
</mgrwt>
</event>
<event>
 4    1  0.1033139E-008  0.7744043E+03  0.7818608E-02  0.9597823E-01
         -2   -1    0    0    0  501 -0.00000000000E+00  0.00000000000E+00  0.37807934363E+03  0.37807934364E+03  0.25500000000E-02 0.  1.
          2   -1    0    0  501    0  0.00000000000E+00 -0.00000000000E+00 -0.25500939089E+04  0.25500939089E+04  0.25500000000E-02 0. -1.
    8880022    1    1    2    0    0  0.44485217039E+03 -0.61515599908E+03 -0.18587209189E+03  0.79639842056E+03  0.15294330000E+03 0.  0.
    8880022    1    1    2    0    0 -0.44485217039E+03  0.61515599908E+03 -0.19861424734E+04  0.21317748320E+04  0.15294330000E+03 0.  0.
<mgrwt>
<rscale>  0 0.77440429E+03</rscale>
<asrwt>0</asrwt>
<pdfrwt beam="1">  1        2 0.39232213E+00 0.77440429E+03</pdfrwt>
<pdfrwt beam="2">  1       -2 0.58166054E-01 0.77440429E+03</pdfrwt>
<totfact> 0.94145369E+00</totfact>
</mgrwt>
</event>
<event>
 4    1  0.1033139E-008  0.7499313E+03  0.7818608E-02  0.9635458E-01
         -2   -1    0    0    0  501 -0.00000000000E+00  0.00000000000E+00  0.11290322887E+04  0.11290322887E+04  0.25500000000E-02 0.  1.
          2   -1    0    0  501    0  0.00000000000E+00 -0.00000000000E+00 -0.10623527377E+04  0.10623527377E+04  0.25500000000E-02 0. -1.
    8880022    1    1    2    0    0  0.51917708097E+03  0.51909575797E+03  0.83185339258E+03  0.11199897174E+04  0.15294330000E+03 0.  0.
    8880022    1    1    2    0    0 -0.51917708097E+03 -0.51909575797E+03 -0.76517384160E+03  0.10713953090E+04  0.15294330000E+03 0.  0.
<mgrwt>
<rscale>  0 0.74993126E+03</rscale>
<asrwt>0</asrwt>
<pdfrwt beam="1">  1        2 0.16343888E+00 0.74993126E+03</pdfrwt>
<pdfrwt beam="2">  1       -2 0.17369727E+00 0.74993126E+03</pdfrwt>
<totfact> 0.47132483E+00</totfact>
</mgrwt>
</event>
<event>
 4    1  0.1033139E-008  0.1133269E+04  0.7818608E-02  0.9173359E-01
          2   -1    0    0  501    0  0.00000000000E+00  0.00000000000E+00  0.72728984944E+03  0.72728984945E+03  0.25500000000E-02 0. -1.
         -2   -1    0    0    0  501 -0.00000000000E+00 -0.00000000000E+00 -0.25943061194E+04  0.25943061194E+04  0.25500000000E-02 0.  1.
    8880022    1    1    2    0    0 -0.54878600270E+03 -0.97966391614E+03  0.49951279575E+01  0.11332802256E+04  0.15294330000E+03 0.  0.
    8880022    1    1    2    0    0  0.54878600270E+03  0.97966391614E+03 -0.18720113979E+04  0.21883157432E+04  0.15294330000E+03 0.  0.
<mgrwt>
<rscale>  0 0.11332692E+04</rscale>
<asrwt>0</asrwt>
<pdfrwt beam="1">  1        2 0.11189075E+00 0.11332692E+04</pdfrwt>
<pdfrwt beam="2">  1       -2 0.39912401E+00 0.11332692E+04</pdfrwt>
<totfact> 0.29298179E-01</totfact>
</mgrwt>
</event>
<event>
 4    1  0.1033139E-008  0.4109446E+03  0.7818608E-02  0.1040055E+00
         -2   -1    0    0    0  501 -0.00000000000E+00  0.00000000000E+00  0.62830586498E+03  0.62830586499E+03  0.25500000000E-02 0.  1.
          2   -1    0    0  501    0  0.00000000000E+00 -0.00000000000E+00 -0.95044198035E+03  0.95044198036E+03  0.25500000000E-02 0. -1.
    8880022    1    1    2    0    0 -0.10938455007E+03  0.36540223112E+03 -0.82957331004E+03  0.92577929338E+03  0.15294330000E+03 0.  0.
    8880022    1    1    2    0    0  0.10938455007E+03 -0.36540223112E+03  0.50743719467E+03  0.65296855196E+03  0.15294330000E+03 0.  1.
<mgrwt>
<rscale>  0 0.41094455E+03</rscale>
<asrwt>0</asrwt>
<pdfrwt beam="1">  1        2 0.14622184E+00 0.41094455E+03</pdfrwt>
<pdfrwt beam="2">  1       -2 0.96662441E-01 0.41094455E+03</pdfrwt>
<totfact> 0.25787497E+01</totfact>
</mgrwt>
</event>
<event>
 4    1  0.1033139E-008  0.6800144E+03  0.7818608E-02  0.9752034E-01
         -2   -1    0    0    0  501 -0.00000000000E+00  0.00000000000E+00  0.97429293642E+03  0.97429293642E+03  0.25500000000E-02 0.  1.
          2   -1    0    0  501    0  0.00000000000E+00 -0.00000000000E+00 -0.93961043489E+03  0.93961043490E+03  0.25500000000E-02 0. -1.
    8880022    1    1    2    0    0  0.62270690931E+03 -0.22641570049E+03 -0.65584892346E+03  0.94475257488E+03  0.15294330000E+03 0.  0.
    8880022    1    1    2    0    0 -0.62270690931E+03  0.22641570049E+03  0.69053142498E+03  0.96915079643E+03  0.15294330000E+03 0.  0.
<mgrwt>
<rscale>  0 0.68001442E+03</rscale>
<asrwt>0</asrwt>
<pdfrwt beam="1">  1        2 0.14455545E+00 0.68001442E+03</pdfrwt>
<pdfrwt beam="2">  1       -2 0.14989122E+00 0.68001442E+03</pdfrwt>
<totfact> 0.85025848E+00</totfact>
</mgrwt>
</event>
<event>
 4    1  0.1033139E-008  0.1011851E+04  0.7818608E-02  0.9295642E-01
         -2   -1    0    0    0  501 -0.00000000000E+00  0.00000000000E+00  0.11030180896E+04  0.11030180896E+04  0.25500000000E-02 0.  1.
          2   -1    0    0  501    0  0.00000000000E+00 -0.00000000000E+00 -0.20768624219E+04  0.20768624219E+04  0.25500000000E-02 0. -1.
    8880022    1    1    2    0    0 -0.58589254068E+03  0.81066639618E+03 -0.16693364360E+04  0.19520568293E+04  0.15294330000E+03 0.  0.
    8880022    1    1    2    0    0  0.58589254068E+03 -0.81066639618E+03  0.69549210378E+03  0.12278236822E+04  0.15294330000E+03 0.  0.
<mgrwt>
<rscale>  0 0.10118506E+04</rscale>
<asrwt>0</asrwt>
<pdfrwt beam="1">  1        2 0.31951730E+00 0.10118506E+04</pdfrwt>
<pdfrwt beam="2">  1       -2 0.16969509E+00 0.10118506E+04</pdfrwt>
<totfact> 0.12926740E+00</totfact>
</mgrwt>
</event>
<event>
 4    1  0.1033139E-008  0.9108535E+03  0.7818608E-02  0.9412115E-01
          2   -1    0    0  501    0  0.00000000000E+00  0.00000000000E+00  0.17764612694E+04  0.17764612694E+04  0.25500000000E-02 0. -1.
         -2   -1    0    0    0  501 -0.00000000000E+00 -0.00000000000E+00 -0.87716948300E+03  0.87716948301E+03  0.25500000000E-02 0.  1.
    8880022    1    1    2    0    0 -0.76402724171E+03  0.47172542418E+03 -0.45762396191E+03  0.10193497169E+04  0.15294330000E+03 0.  0.
    8880022    1    1    2    0    0  0.76402724171E+03 -0.47172542418E+03  0.13569157483E+04  0.16342810355E+04  0.15294330000E+03 0.  0.
<mgrwt>
<rscale>  0 0.91085353E+03</rscale>
<asrwt>0</asrwt>
<pdfrwt beam="1">  1        2 0.27330173E+00 0.91085353E+03</pdfrwt>
<pdfrwt beam="2">  1       -2 0.13494915E+00 0.91085353E+03</pdfrwt>
<totfact> 0.35364136E+00</totfact>
</mgrwt>
</event>
<event>
 4    1  0.1033139E-008  0.6954703E+03  0.7818608E-02  0.9725010E-01
          2   -1    0    0  501    0  0.00000000000E+00  0.00000000000E+00  0.29450488426E+04  0.29450488426E+04  0.25500000000E-02 0. -1.
         -2   -1    0    0    0  501 -0.00000000000E+00 -0.00000000000E+00 -0.28305387798E+03  0.28305387800E+03  0.25500000000E-02 0.  1.
    8880022    1    1    2    0    0  0.56328200806E+02 -0.67610237205E+03  0.23767435467E+04  0.24764064334E+04  0.15294330000E+03 0.  0.
    8880022    1    1    2    0    0 -0.56328200806E+02  0.67610237205E+03  0.28525141789E+03  0.75169628715E+03  0.15294330000E+03 0.  0.
<mgrwt>
<rscale>  0 0.69547030E+03</rscale>
<asrwt>0</asrwt>
<pdfrwt beam="1">  1        2 0.45308443E+00 0.69547030E+03</pdfrwt>
<pdfrwt beam="2">  1       -2 0.43546751E-01 0.69547030E+03</pdfrwt>
<totfact> 0.10103394E+01</totfact>
</mgrwt>
</event>
<event>
 4    1  0.1033139E-008  0.9801295E+03  0.7818608E-02  0.9330611E-01
          2   -1    0    0  501    0  0.00000000000E+00  0.00000000000E+00  0.19585794738E+04  0.19585794738E+04  0.25500000000E-02 0. -1.
         -2   -1    0    0    0  501 -0.00000000000E+00 -0.00000000000E+00 -0.63822766322E+03  0.63822766323E+03  0.25500000000E-02 0.  1.
    8880022    1    1    2    0    0  0.81961744469E+03  0.51525670161E+03  0.12848806895E+04  0.16160359722E+04  0.15294330000E+03 0. -1.
    8880022    1    1    2    0    0 -0.81961744469E+03 -0.51525670161E+03  0.35471121002E+02  0.98077116476E+03  0.15294330000E+03 0.  0.
<mgrwt>
<rscale>  0 0.98012952E+03</rscale>
<asrwt>0</asrwt>
<pdfrwt beam="1">  1        2 0.30131992E+00 0.98012952E+03</pdfrwt>
<pdfrwt beam="2">  1       -2 0.98188870E-01 0.98012952E+03</pdfrwt>
<totfact> 0.60914908E+00</totfact>
</mgrwt>
</event>
<event>
 4    1  0.1033139E-008  0.1053902E+04  0.7818608E-02  0.9251325E-01
         -2   -1    0    0    0  501 -0.00000000000E+00  0.00000000000E+00  0.89994930296E+03  0.89994930296E+03  0.25500000000E-02 0.  1.
          2   -1    0    0  501    0  0.00000000000E+00 -0.00000000000E+00 -0.14008745866E+04  0.14008745866E+04  0.25500000000E-02 0. -1.
    8880022    1    1    2    0    0 -0.64976319813E+03  0.81555251509E+03 -0.64728810646E+03  0.12368070441E+04  0.15294330000E+03 0.  0.
    8880022    1    1    2    0    0  0.64976319813E+03 -0.81555251509E+03  0.14636282283E+03  0.10640168455E+04  0.15294330000E+03 0.  0.
<mgrwt>
<rscale>  0 0.10539022E+04</rscale>
<asrwt>0</asrwt>
<pdfrwt beam="1">  1        2 0.21551917E+00 0.10539022E+04</pdfrwt>
<pdfrwt beam="2">  1       -2 0.13845374E+00 0.10539022E+04</pdfrwt>
<totfact> 0.52728494E+00</totfact>
</mgrwt>
</event>
<event>
 4    1  0.1033139E-008  0.1257384E+04  0.7818608E-02  0.9064060E-01
          2   -1    0    0  501    0  0.00000000000E+00  0.00000000000E+00  0.13384950233E+04  0.13384950233E+04  0.25500000000E-02 0. -1.
         -2   -1    0    0    0  501 -0.00000000000E+00 -0.00000000000E+00 -0.20400668300E+04  0.20400668300E+04  0.25500000000E-02 0.  1.
    8880022    1    1    2    0    0  0.12428271458E+04 -0.11402965182E+03 -0.14468746794E+04  0.19168881206E+04  0.15294330000E+03 0.  0.
    8880022    1    1    2    0    0 -0.12428271458E+04  0.11402965182E+03  0.74530287270E+03  0.14616737327E+04  0.15294330000E+03 0.  0.
<mgrwt>
<rscale>  0 0.12573837E+04</rscale>
<asrwt>0</asrwt>
<pdfrwt beam="1">  1        2 0.20592231E+00 0.12573837E+04</pdfrwt>
<pdfrwt beam="2">  1       -2 0.31385644E+00 0.12573837E+04</pdfrwt>
<totfact> 0.39786979E-01</totfact>
</mgrwt>
</event>
<event>
 4    1  0.1033139E-008  0.1383541E+04  0.7818608E-02  0.8965819E-01
         -2   -1    0    0    0  501 -0.00000000000E+00  0.00000000000E+00  0.82953207057E+03  0.82953207057E+03  0.25500000000E-02 0.  1.
          2   -1    0    0  501    0  0.00000000000E+00 -0.00000000000E+00 -0.30150570912E+04  0.30150570912E+04  0.25500000000E-02 0. -1.
    8880022    1    1    2    0    0 -0.83161761755E+03  0.10950830063E+04 -0.20239512743E+04  0.24516453793E+04  0.15294330000E+03 0.  0.
    8880022    1    1    2    0    0  0.83161761755E+03 -0.10950830063E+04 -0.16157374635E+03  0.13929437824E+04  0.15294330000E+03 0.  0.
<mgrwt>
<rscale>  0 0.13835412E+04</rscale>
<asrwt>0</asrwt>
<pdfrwt beam="1">  1        2 0.46385493E+00 0.13835412E+04</pdfrwt>
<pdfrwt beam="2">  1       -2 0.12762032E+00 0.13835412E+04</pdfrwt>
<totfact> 0.74757138E-01</totfact>
</mgrwt>
</event>
<event>
 4    1  0.1033139E-008  0.1160486E+04  0.7818608E-02  0.9148164E-01
          2   -1    0    0  501    0  0.00000000000E+00  0.00000000000E+00  0.17014428393E+04  0.17014428393E+04  0.25500000000E-02 0. -1.
         -2   -1    0    0    0  501 -0.00000000000E+00 -0.00000000000E+00 -0.13980494337E+04  0.13980494337E+04  0.25500000000E-02 0.  1.
    8880022    1    1    2    0    0 -0.77481440155E+03  0.85029352827E+03 -0.86906602995E+03  0.14498289066E+04  0.15294330000E+03 0.  0.
    8880022    1    1    2    0    0  0.77481440155E+03 -0.85029352827E+03  0.11724594356E+04  0.16496633663E+04  0.15294330000E+03 0.  0.
<mgrwt>
<rscale>  0 0.11604861E+04</rscale>
<asrwt>0</asrwt>
<pdfrwt beam="1">  1        2 0.26176043E+00 0.11604861E+04</pdfrwt>
<pdfrwt beam="2">  1       -2 0.21508453E+00 0.11604861E+04</pdfrwt>
<totfact> 0.10138136E+00</totfact>
</mgrwt>
</event>
<event>
 4    1  0.1033139E-008  0.6542134E+03  0.7818608E-02  0.9798905E-01
          2   -1    0    0  501    0  0.00000000000E+00  0.00000000000E+00  0.13954602948E+04  0.13954602948E+04  0.25500000000E-02 0. -1.
         -2   -1    0    0    0  501 -0.00000000000E+00 -0.00000000000E+00 -0.34502226769E+03  0.34502226770E+03  0.25500000000E-02 0.  1.
    8880022    1    1    2    0    0 -0.25859084788E+03  0.58114908371E+03  0.81522796663E+03  0.10452711489E+04  0.15294330000E+03 0.  0.
    8880022    1    1    2    0    0  0.25859084788E+03 -0.58114908371E+03  0.23521006052E+03  0.69521141366E+03  0.15294330000E+03 0.  0.
<mgrwt>
<rscale>  0 0.65421337E+03</rscale>
<asrwt>0</asrwt>
<pdfrwt beam="1">  1        2 0.21468620E+00 0.65421337E+03</pdfrwt>
<pdfrwt beam="2">  1       -2 0.53080348E-01 0.65421337E+03</pdfrwt>
<totfact> 0.50226278E+01</totfact>
</mgrwt>
</event>
<event>
 4    1  0.1033139E-008  0.5128358E+03  0.7818608E-02  0.1010482E+00
         -2   -1    0    0    0  501 -0.00000000000E+00  0.00000000000E+00  0.13518280777E+04  0.13518280777E+04  0.25500000000E-02 0.  1.
          2   -1    0    0  501    0  0.00000000000E+00 -0.00000000000E+00 -0.12703683444E+04  0.12703683444E+04  0.25500000000E-02 0. -1.
    8880022    1    1    2    0    0 -0.45691417357E+03 -0.17560839540E+03 -0.11658039863E+04  0.12736166841E+04  0.15294330000E+03 0.  0.
    8880022    1    1    2    0    0  0.45691417357E+03  0.17560839540E+03  0.12472637196E+04  0.13485797380E+04  0.15294330000E+03 0.  0.
<mgrwt>
<rscale>  0 0.51283577E+03</rscale>
<asrwt>0</asrwt>
<pdfrwt beam="1">  1        2 0.19544128E+00 0.51283577E+03</pdfrwt>
<pdfrwt beam="2">  1       -2 0.20797355E+00 0.51283577E+03</pdfrwt>
<totfact> 0.21943118E+00</totfact>
</mgrwt>
</event>
<event>
 4    1  0.1033139E-008  0.9839484E+03  0.7818608E-02  0.9326327E-01
         -2   -1    0    0    0  501 -0.00000000000E+00  0.00000000000E+00  0.76388420879E+03  0.76388420879E+03  0.25500000000E-02 0.  1.
          2   -1    0    0  501    0  0.00000000000E+00 -0.00000000000E+00 -0.28312034526E+04  0.28312034526E+04  0.25500000000E-02 0. -1.
    8880022    1    1    2    0    0 -0.69715410971E+03  0.67730263562E+03 -0.23695895098E+04  0.25657569664E+04  0.15294330000E+03 0.  0.
    8880022    1    1    2    0    0  0.69715410971E+03 -0.67730263562E+03  0.30227026597E+03  0.10293306950E+04  0.15294330000E+03 0.  0.
<mgrwt>
<rscale>  0 0.98394836E+03</rscale>
<asrwt>0</asrwt>
<pdfrwt beam="1">  1        2 0.43556976E+00 0.98394836E+03</pdfrwt>
<pdfrwt beam="2">  1       -2 0.11752065E+00 0.98394836E+03</pdfrwt>
<totfact> 0.12586415E+00</totfact>
</mgrwt>
</event>
<event>
 4    1  0.1033139E-008  0.4414104E+03  0.7818608E-02  0.1030315E+00
         -2   -1    0    0    0  501 -0.00000000000E+00  0.00000000000E+00  0.56282862553E+03  0.56282862554E+03  0.25500000000E-02 0.  1.
          2   -1    0    0  501    0  0.00000000000E+00 -0.00000000000E+00 -0.86367251531E+03  0.86367251531E+03  0.25500000000E-02 0. -1.
    8880022    1    1    2    0    0 -0.35380402674E+03  0.21511446763E+03  0.40167743114E+03  0.59681482490E+03  0.15294330000E+03 0.  1.
    8880022    1    1    2    0    0  0.35380402674E+03 -0.21511446763E+03 -0.70252132092E+03  0.82968631595E+03  0.15294330000E+03 0.  0.
<mgrwt>
<rscale>  0 0.44141044E+03</rscale>
<asrwt>0</asrwt>
<pdfrwt beam="1">  1        2 0.13287269E+00 0.44141044E+03</pdfrwt>
<pdfrwt beam="2">  1       -2 0.86589020E-01 0.44141044E+03</pdfrwt>
<totfact> 0.37675556E+01</totfact>
</mgrwt>
</event>
<event>
 4    1  0.1033139E-008  0.6328424E+03  0.7818608E-02  0.9839518E-01
          2   -1    0    0  501    0  0.00000000000E+00  0.00000000000E+00  0.81360408789E+03  0.81360408789E+03  0.25500000000E-02 0. -1.
         -2   -1    0    0    0  501 -0.00000000000E+00 -0.00000000000E+00 -0.22791083318E+04  0.22791083318E+04  0.25500000000E-02 0.  1.
    8880022    1    1    2    0    0  0.15975031077E+03 -0.59293989145E+03  0.63646769769E+03  0.89754145301E+03  0.15294330000E+03 0. -1.
    8880022    1    1    2    0    0 -0.15975031077E+03  0.59293989145E+03 -0.21019719416E+04  0.21951709667E+04  0.15294330000E+03 0.  0.
<mgrwt>
<rscale>  0 0.63284242E+03</rscale>
<asrwt>0</asrwt>
<pdfrwt beam="1">  1        2 0.12516986E+00 0.63284242E+03</pdfrwt>
<pdfrwt beam="2">  1       -2 0.35063205E+00 0.63284242E+03</pdfrwt>
<totfact> 0.56322346E-01</totfact>
</mgrwt>
</event>
<event>
 4    1  0.1033139E-008  0.5364891E+03  0.7818608E-02  0.1004670E+00
          2   -1    0    0  501    0  0.00000000000E+00  0.00000000000E+00  0.22603449878E+04  0.22603449878E+04  0.25500000000E-02 0. -1.
         -2   -1    0    0    0  501 -0.00000000000E+00 -0.00000000000E+00 -0.25676157549E+03  0.25676157551E+03  0.25500000000E-02 0.  1.
    8880022    1    1    2    0    0 -0.14273084123E+03 -0.49402109077E+03  0.18953412775E+04  0.19698068795E+04  0.15294330000E+03 0.  0.
    8880022    1    1    2    0    0  0.14273084123E+03  0.49402109077E+03  0.10824213479E+03  0.54729968383E+03  0.15294330000E+03 0.  0.
<mgrwt>
<rscale>  0 0.53648913E+03</rscale>
<asrwt>0</asrwt>
<pdfrwt beam="1">  1        2 0.34774537E+00 0.53648913E+03</pdfrwt>
<pdfrwt beam="2">  1       -2 0.39501783E-01 0.53648913E+03</pdfrwt>
<totfact> 0.31103154E+01</totfact>
</mgrwt>
</event>
<event>
 4    1  0.1033139E-008  0.3444203E+03  0.7818608E-02  0.1064929E+00
         -2   -1    0    0    0  501 -0.00000000000E+00  0.00000000000E+00  0.35394743402E+03  0.35394743403E+03  0.25500000000E-02 0.  1.
          2   -1    0    0  501    0  0.00000000000E+00 -0.00000000000E+00 -0.20944180358E+04  0.20944180358E+04  0.25500000000E-02 0. -1.
    8880022    1    1    2    0    0 -0.14135203621E+03  0.27432335316E+03 -0.19922036788E+04  0.20217568724E+04  0.15294330000E+03 0.  0.
    8880022    1    1    2    0    0  0.14135203621E+03 -0.27432335316E+03  0.25173307710E+03  0.42660859737E+03  0.15294330000E+03 0.  1.
<mgrwt>
<rscale>  0 0.34442031E+03</rscale>
<asrwt>0</asrwt>
<pdfrwt beam="1">  1        2 0.32221815E+00 0.34442031E+03</pdfrwt>
<pdfrwt beam="2">  1       -2 0.54453453E-01 0.34442031E+03</pdfrwt>
<totfact> 0.21173258E+01</totfact>
</mgrwt>
</event>
<event>
 4    1  0.1033139E-008  0.7213182E+03  0.7818608E-02  0.9681454E-01
         -2   -1    0    0    0  501 -0.00000000000E+00  0.00000000000E+00  0.32566851197E+03  0.32566851198E+03  0.25500000000E-02 0.  1.
          2   -1    0    0  501    0  0.00000000000E+00 -0.00000000000E+00 -0.29605881517E+04  0.29605881517E+04  0.25500000000E-02 0. -1.
    8880022    1    1    2    0    0 -0.50863834110E+03  0.48805255825E+03 -0.20259373397E+03  0.74922902755E+03  0.15294330000E+03 0.  0.
    8880022    1    1    2    0    0  0.50863834110E+03 -0.48805255825E+03 -0.24323259058E+04  0.25370276361E+04  0.15294330000E+03 0.  0.
<mgrwt>
<rscale>  0 0.72131818E+03</rscale>
<asrwt>0</asrwt>
<pdfrwt beam="1">  1        2 0.45547508E+00 0.72131818E+03</pdfrwt>
<pdfrwt beam="2">  1       -2 0.50102850E-01 0.72131818E+03</pdfrwt>
<totfact> 0.74239696E+00</totfact>
</mgrwt>
</event>
<event>
 4    1  0.1033139E-008  0.9183552E+03  0.7818608E-02  0.9402923E-01
          2   -1    0    0  501    0  0.00000000000E+00  0.00000000000E+00  0.18937240154E+04  0.18937240154E+04  0.25500000000E-02 0. -1.
         -2   -1    0    0    0  501 -0.00000000000E+00 -0.00000000000E+00 -0.54808597340E+03  0.54808597340E+03  0.25500000000E-02 0.  1.
    8880022    1    1    2    0    0  0.62095289291E+03 -0.65909188412E+03  0.12014003258E+04  0.15121967473E+04  0.15294330000E+03 0.  0.
    8880022    1    1    2    0    0 -0.62095289291E+03  0.65909188412E+03  0.14423771627E+03  0.92961324148E+03  0.15294330000E+03 0.  1.
<mgrwt>
<rscale>  0 0.91835519E+03</rscale>
<asrwt>0</asrwt>
<pdfrwt beam="1">  1        2 0.29134215E+00 0.91835519E+03</pdfrwt>
<pdfrwt beam="2">  1       -2 0.84320920E-01 0.91835519E+03</pdfrwt>
<totfact> 0.94863246E+00</totfact>
</mgrwt>
</event>
<event>
 4    1  0.1033139E-008  0.1374472E+04  0.7818608E-02  0.8972507E-01
          2   -1    0    0  501    0  0.00000000000E+00  0.00000000000E+00  0.26747944699E+04  0.26747944699E+04  0.25500000000E-02 0. -1.
         -2   -1    0    0    0  501 -0.00000000000E+00 -0.00000000000E+00 -0.11270866079E+04  0.11270866079E+04  0.25500000000E-02 0.  1.
    8880022    1    1    2    0    0  0.13585999168E+04 -0.14137570590E+03 -0.38766840911E+03  0.14280963807E+04  0.15294330000E+03 0.  0.
    8880022    1    1    2    0    0 -0.13585999168E+04  0.14137570590E+03  0.19353762711E+04  0.23737846971E+04  0.15294330000E+03 0.  0.
<mgrwt>
<rscale>  0 0.13744717E+04</rscale>
<asrwt>0</asrwt>
<pdfrwt beam="1">  1        2 0.41150684E+00 0.13744717E+04</pdfrwt>
<pdfrwt beam="2">  1       -2 0.17339794E+00 0.13744717E+04</pdfrwt>
<totfact> 0.53023428E-01</totfact>
</mgrwt>
</event>
<event>
 4    1  0.1033139E-008  0.4661731E+03  0.7818608E-02  0.1023006E+00
          2   -1    0    0  501    0  0.00000000000E+00  0.00000000000E+00  0.24117476810E+04  0.24117476810E+04  0.25500000000E-02 0. -1.
         -2   -1    0    0    0  501 -0.00000000000E+00 -0.00000000000E+00 -0.23451955201E+03  0.23451955203E+03  0.25500000000E-02 0.  1.
    8880022    1    1    2    0    0  0.15475542650E+03 -0.41228205358E+03  0.21268961866E+04  0.21773848478E+04  0.15294330000E+03 0.  0.
    8880022    1    1    2    0    0 -0.15475542650E+03  0.41228205358E+03  0.50331942363E+02  0.46888238523E+03  0.15294330000E+03 0.  0.
<mgrwt>
<rscale>  0 0.46617313E+03</rscale>
<asrwt>0</asrwt>
<pdfrwt beam="1">  1        2 0.37103812E+00 0.46617313E+03</pdfrwt>
<pdfrwt beam="2">  1       -2 0.36079930E-01 0.46617313E+03</pdfrwt>
<totfact> 0.31007800E+01</totfact>
</mgrwt>
</event>
<event>
 4    1  0.1033139E-008  0.8444799E+03  0.7818608E-02  0.9497776E-01
          2   -1    0    0  501    0  0.00000000000E+00  0.00000000000E+00  0.16754513566E+04  0.16754513566E+04  0.25500000000E-02 0. -1.
         -2   -1    0    0    0  501 -0.00000000000E+00 -0.00000000000E+00 -0.77218250279E+03  0.77218250280E+03  0.25500000000E-02 0.  1.
    8880022    1    1    2    0    0  0.62968259348E+03  0.54152975306E+03  0.12714799834E+04  0.15263707424E+04  0.15294330000E+03 0.  0.
    8880022    1    1    2    0    0 -0.62968259348E+03 -0.54152975306E+03 -0.36821112952E+03  0.92126311709E+03  0.15294330000E+03 0.  0.
<mgrwt>
<rscale>  0 0.84447990E+03</rscale>
<asrwt>0</asrwt>
<pdfrwt beam="1">  1        2 0.25776175E+00 0.84447990E+03</pdfrwt>
<pdfrwt beam="2">  1       -2 0.11879731E+00 0.84447990E+03</pdfrwt>
<totfact> 0.55917438E+00</totfact>
</mgrwt>
</event>
<event>
 4    1  0.1033139E-008  0.8091977E+03  0.7818608E-02  0.9546798E-01
          2   -1    0    0  501    0  0.00000000000E+00  0.00000000000E+00  0.28465185672E+04  0.28465185672E+04  0.25500000000E-02 0. -1.
         -2   -1    0    0    0  501 -0.00000000000E+00 -0.00000000000E+00 -0.25809656758E+03  0.25809656759E+03  0.25500000000E-02 0.  1.
    8880022    1    1    2    0    0 -0.72992935791E+03  0.31402615307E+03  0.78236765585E+03  0.11255665659E+04  0.15294330000E+03 0.  0.
    8880022    1    1    2    0    0  0.72992935791E+03 -0.31402615307E+03  0.18060543438E+04  0.19790485689E+04  0.15294330000E+03 0.  0.
<mgrwt>
<rscale>  0 0.80919772E+03</rscale>
<asrwt>0</asrwt>
<pdfrwt beam="1">  1        2 0.43792595E+00 0.80919772E+03</pdfrwt>
<pdfrwt beam="2">  1       -2 0.39707162E-01 0.80919772E+03</pdfrwt>
<totfact> 0.13609160E+01</totfact>
</mgrwt>
</event>
<event>
 4    1  0.1033139E-008  0.1914591E+04  0.7818608E-02  0.8647628E-01
         -2   -1    0    0    0  501 -0.00000000000E+00  0.00000000000E+00  0.18018596632E+04  0.18018596632E+04  0.25500000000E-02 0.  1.
          2   -1    0    0  501    0  0.00000000000E+00 -0.00000000000E+00 -0.33231388628E+04  0.33231388628E+04  0.25500000000E-02 0. -1.
    8880022    1    1    2    0    0  0.12780084476E+04 -0.14173779827E+04 -0.23564314444E+04  0.30361862168E+04  0.15294330000E+03 0.  0.
    8880022    1    1    2    0    0 -0.12780084476E+04  0.14173779827E+04  0.83515224484E+03  0.20888123092E+04  0.15294330000E+03 0.  0.
<mgrwt>
<rscale>  0 0.19145907E+04</rscale>
<asrwt>0</asrwt>
<pdfrwt beam="1">  1        2 0.51125213E+00 0.19145907E+04</pdfrwt>
<pdfrwt beam="2">  1       -2 0.27720918E+00 0.19145907E+04</pdfrwt>
<totfact> 0.42099693E-02</totfact>
</mgrwt>
</event>
<event>
 4    1  0.1033139E-008  0.5730778E+03  0.7818608E-02  0.9962891E-01
         -2   -1    0    0    0  501 -0.00000000000E+00  0.00000000000E+00  0.70005227963E+03  0.70005227963E+03  0.25500000000E-02 0.  1.
          2   -1    0    0  501    0  0.00000000000E+00 -0.00000000000E+00 -0.11924063519E+04  0.11924063519E+04  0.25500000000E-02 0. -1.
    8880022    1    1    2    0    0 -0.43946161906E+03  0.33451462184E+03  0.49076824923E+03  0.75450094388E+03  0.15294330000E+03 0.  1.
    8880022    1    1    2    0    0  0.43946161906E+03 -0.33451462184E+03 -0.98312232146E+03  0.11379576876E+04  0.15294330000E+03 0.  0.
<mgrwt>
<rscale>  0 0.57307783E+03</rscale>
<asrwt>0</asrwt>
<pdfrwt beam="1">  1        2 0.18344713E+00 0.57307783E+03</pdfrwt>
<pdfrwt beam="2">  1       -2 0.10770035E+00 0.57307783E+03</pdfrwt>
<totfact> 0.13822069E+01</totfact>
</mgrwt>
</event>
<event>
 4    1  0.1033139E-008  0.1052870E+04  0.7818608E-02  0.9252386E-01
          2   -1    0    0  501    0  0.00000000000E+00  0.00000000000E+00  0.34328759443E+04  0.34328759443E+04  0.25500000000E-02 0. -1.
         -2   -1    0    0    0  501 -0.00000000000E+00 -0.00000000000E+00 -0.36198741307E+03  0.36198741308E+03  0.25500000000E-02 0.  1.
    8880022    1    1    2    0    0 -0.70355724050E+03 -0.76821216555E+03  0.21588098317E+04  0.24018730742E+04  0.15294330000E+03 0.  0.
    8880022    1    1    2    0    0  0.70355724050E+03  0.76821216555E+03  0.91207869953E+03  0.13929902832E+04  0.15294330000E+03 0.  0.
<mgrwt>
<rscale>  0 0.10528696E+04</rscale>
<asrwt>0</asrwt>
<pdfrwt beam="1">  1        2 0.52813474E+00 0.10528696E+04</pdfrwt>
<pdfrwt beam="2">  1       -2 0.55690373E-01 0.10528696E+04</pdfrwt>
<totfact> 0.28142496E+00</totfact>
</mgrwt>
</event>
<event>
 4    1  0.1033139E-008  0.1635984E+04  0.7818608E-02  0.8798742E-01
         -2   -1    0    0    0  501 -0.00000000000E+00  0.00000000000E+00  0.23948110020E+04  0.23948110020E+04  0.25500000000E-02 0.  1.
          2   -1    0    0  501    0  0.00000000000E+00 -0.00000000000E+00 -0.13761791500E+04  0.13761791500E+04  0.25500000000E-02 0. -1.
    8880022    1    1    2    0    0 -0.85316157285E+03  0.13875039970E+04 -0.30798813078E+03  0.16647223050E+04  0.15294330000E+03 0.  0.
    8880022    1    1    2    0    0  0.85316157285E+03 -0.13875039970E+04  0.13266199828E+04  0.21062678469E+04  0.15294330000E+03 0.  0.
<mgrwt>
<rscale>  0 0.16359840E+04</rscale>
<asrwt>0</asrwt>
<pdfrwt beam="1">  1        2 0.21171987E+00 0.16359840E+04</pdfrwt>
<pdfrwt beam="2">  1       -2 0.36843246E+00 0.16359840E+04</pdfrwt>
<totfact> 0.16496758E-01</totfact>
</mgrwt>
</event>
<event>
 4    1  0.1033139E-008  0.1170195E+04  0.7818608E-02  0.9139352E-01
         -2   -1    0    0    0  501 -0.00000000000E+00  0.00000000000E+00  0.64968603540E+03  0.64968603540E+03  0.25500000000E-02 0.  1.
          2   -1    0    0  501    0  0.00000000000E+00 -0.00000000000E+00 -0.23021378967E+04  0.23021378967E+04  0.25500000000E-02 0. -1.
    8880022    1    1    2    0    0  0.11118185097E+04  0.33139747356E+03 -0.12551325594E+04  0.17160169226E+04  0.15294330000E+03 0.  0.
    8880022    1    1    2    0    0 -0.11118185097E+04 -0.33139747356E+03 -0.39731930187E+03  0.12358070095E+04  0.15294330000E+03 0.  0.
<mgrwt>
<rscale>  0 0.11701950E+04</rscale>
<asrwt>0</asrwt>
<pdfrwt beam="1">  1        2 0.35417506E+00 0.11701950E+04</pdfrwt>
<pdfrwt beam="2">  1       -2 0.99951698E-01 0.11701950E+04</pdfrwt>
<totfact> 0.36807699E+00</totfact>
</mgrwt>
</event>
<event>
 4    1  0.1033139E-008  0.5548556E+03  0.7818608E-02  0.1000376E+00
          2   -1    0    0  501    0  0.00000000000E+00  0.00000000000E+00  0.84838663683E+03  0.84838663684E+03  0.25500000000E-02 0. -1.
         -2   -1    0    0    0  501 -0.00000000000E+00 -0.00000000000E+00 -0.65575994650E+03  0.65575994651E+03  0.25500000000E-02 0.  1.
    8880022    1    1    2    0    0  0.51831455432E+02  0.53083575716E+03  0.59892274728E+03  0.81643934930E+03  0.15294330000E+03 0.  0.
    8880022    1    1    2    0    0 -0.51831455432E+02 -0.53083575716E+03 -0.40629605695E+03  0.68770723405E+03  0.15294330000E+03 0.  0.
<mgrwt>
<rscale>  0 0.55485562E+03</rscale>
<asrwt>0</asrwt>
<pdfrwt beam="1">  1        2 0.13052102E+00 0.55485562E+03</pdfrwt>
<pdfrwt beam="2">  1       -2 0.10088615E+00 0.55485562E+03</pdfrwt>
<totfact> 0.26676779E+01</totfact>
</mgrwt>
</event>
<event>
 4    1  0.1033139E-008  0.8088280E+03  0.7818608E-02  0.9547326E-01
         -2   -1    0    0    0  501 -0.00000000000E+00  0.00000000000E+00  0.93554933923E+03  0.93554933923E+03  0.25500000000E-02 0.  1.
          2   -1    0    0  501    0  0.00000000000E+00 -0.00000000000E+00 -0.11219875283E+04  0.11219875283E+04  0.25500000000E-02 0. -1.
    8880022    1    1    2    0    0  0.68637033365E+03  0.39963329101E+03  0.53824426645E+03  0.97155007363E+03  0.15294330000E+03 0.  0.
    8880022    1    1    2    0    0 -0.68637033365E+03 -0.39963329101E+03 -0.72468245556E+03  0.10859867939E+04  0.15294330000E+03 0.  0.
<mgrwt>
<rscale>  0 0.80882795E+03</rscale>
<asrwt>0</asrwt>
<pdfrwt beam="1">  1        2 0.17261347E+00 0.80882795E+03</pdfrwt>
<pdfrwt beam="2">  1       -2 0.14393067E+00 0.80882795E+03</pdfrwt>
<totfact> 0.71415734E+00</totfact>
</mgrwt>
</event>
<event>
 4    1  0.1033139E-008  0.8262272E+03  0.7818608E-02  0.9522811E-01
         -2   -1    0    0    0  501 -0.00000000000E+00  0.00000000000E+00  0.66988926339E+03  0.66988926340E+03  0.25500000000E-02 0.  1.
          2   -1    0    0  501    0  0.00000000000E+00 -0.00000000000E+00 -0.21719340176E+04  0.21719340176E+04  0.25500000000E-02 0. -1.
    8880022    1    1    2    0    0  0.62804686892E+03 -0.51460354734E+03  0.28420649699E+03  0.87374176187E+03  0.15294330000E+03 0.  0.
    8880022    1    1    2    0    0 -0.62804686892E+03  0.51460354734E+03 -0.17862512512E+04  0.19680815191E+04  0.15294330000E+03 0.  0.
<mgrwt>
<rscale>  0 0.82622717E+03</rscale>
<asrwt>0</asrwt>
<pdfrwt beam="1">  1        2 0.33414369E+00 0.82622717E+03</pdfrwt>
<pdfrwt beam="2">  1       -2 0.10305989E+00 0.82622717E+03</pdfrwt>
<totfact> 0.42302510E+00</totfact>
</mgrwt>
</event>
<event>
 4    1  0.1033139E-008  0.1068601E+04  0.7818608E-02  0.9236348E-01
         -2   -1    0    0    0  501 -0.00000000000E+00  0.00000000000E+00  0.81698085223E+03  0.81698085223E+03  0.25500000000E-02 0.  1.
          2   -1    0    0  501    0  0.00000000000E+00 -0.00000000000E+00 -0.27254425462E+04  0.27254425462E+04  0.25500000000E-02 0. -1.
    8880022    1    1    2    0    0  0.28839702344E+03  0.10175181130E+04 -0.21904805383E+04  0.24372346204E+04  0.15294330000E+03 0.  0.
    8880022    1    1    2    0    0 -0.28839702344E+03 -0.10175181130E+04  0.28201884430E+03  0.11051887780E+04  0.15294330000E+03 0.  0.
<mgrwt>
<rscale>  0 0.10686008E+04</rscale>
<asrwt>0</asrwt>
<pdfrwt beam="1">  1        2 0.41929885E+00 0.10686008E+04</pdfrwt>
<pdfrwt beam="2">  1       -2 0.12568936E+00 0.10686008E+04</pdfrwt>
<totfact> 0.12136537E+00</totfact>
</mgrwt>
</event>
<event>
 4    1  0.1033139E-008  0.9051231E+03  0.7818608E-02  0.9419200E-01
          2   -1    0    0  501    0  0.00000000000E+00  0.00000000000E+00  0.34557420668E+04  0.34557420668E+04  0.25500000000E-02 0. -1.
         -2   -1    0    0    0  501 -0.00000000000E+00 -0.00000000000E+00 -0.49516411130E+03  0.49516411131E+03  0.25500000000E-02 0.  1.
    8880022    1    1    2    0    0 -0.27004063062E+03 -0.85025542961E+03  0.54082590472E+02  0.90673745780E+03  0.15294330000E+03 0.  0.
    8880022    1    1    2    0    0  0.27004063062E+03  0.85025542961E+03  0.29064953651E+04  0.30441687204E+04  0.15294330000E+03 0.  0.
<mgrwt>
<rscale>  0 0.90512314E+03</rscale>
<asrwt>0</asrwt>
<pdfrwt beam="1">  1        2 0.53165259E+00 0.90512314E+03</pdfrwt>
<pdfrwt beam="2">  1       -2 0.76179099E-01 0.90512314E+03</pdfrwt>
<totfact> 0.14158532E+00</totfact>
</mgrwt>
</event>
<event>
 4    1  0.1033139E-008  0.8941878E+03  0.7818608E-02  0.9432876E-01
          2   -1    0    0  501    0  0.00000000000E+00  0.00000000000E+00  0.10912074542E+04  0.10912074542E+04  0.25500000000E-02 0. -1.
         -2   -1    0    0    0  501 -0.00000000000E+00 -0.00000000000E+00 -0.14400815939E+04  0.14400815939E+04  0.25500000000E-02 0.  1.
    8880022    1    1    2    0    0  0.85290587204E+03 -0.22075264850E+03 -0.10614555401E+04  0.13878975737E+04  0.15294330000E+03 0.  0.
    8880022    1    1    2    0    0 -0.85290587204E+03  0.22075264850E+03  0.71258140040E+03  0.11433914743E+04  0.15294330000E+03 0.  0.
<mgrwt>
<rscale>  0 0.89418779E+03</rscale>
<asrwt>0</asrwt>
<pdfrwt beam="1">  1        2 0.16787807E+00 0.89418779E+03</pdfrwt>
<pdfrwt beam="2">  1       -2 0.22155102E+00 0.89418779E+03</pdfrwt>
<totfact> 0.21472424E+00</totfact>
</mgrwt>
</event>
<event>
 4    1  0.1033139E-008  0.1126228E+04  0.7818608E-02  0.9179998E-01
          2   -1    0    0  501    0  0.00000000000E+00  0.00000000000E+00  0.30101310927E+04  0.30101310927E+04  0.25500000000E-02 0. -1.
         -2   -1    0    0    0  501 -0.00000000000E+00 -0.00000000000E+00 -0.53048152202E+03  0.53048152203E+03  0.25500000000E-02 0.  1.
    8880022    1    1    2    0    0 -0.55269902949E+03  0.96928965361E+03  0.20426871118E+04  0.23325867486E+04  0.15294330000E+03 0.  0.
    8880022    1    1    2    0    0  0.55269902949E+03 -0.96928965361E+03  0.43696245885E+03  0.12080258661E+04  0.15294330000E+03 0.  0.
<mgrwt>
<rscale>  0 0.11262284E+04</rscale>
<asrwt>0</asrwt>
<pdfrwt beam="1">  1        2 0.46309709E+00 0.11262284E+04</pdfrwt>
<pdfrwt beam="2">  1       -2 0.81612541E-01 0.11262284E+04</pdfrwt>
<totfact> 0.22742683E+00</totfact>
</mgrwt>
</event>
<event>
 4    1  0.1033139E-008  0.7884363E+03  0.7818608E-02  0.9576908E-01
          2   -1    0    0  501    0  0.00000000000E+00  0.00000000000E+00  0.26026290582E+04  0.26026290583E+04  0.25500000000E-02 0. -1.
         -2   -1    0    0    0  501 -0.00000000000E+00 -0.00000000000E+00 -0.35401685846E+03  0.35401685847E+03  0.25500000000E-02 0.  1.
    8880022    1    1    2    0    0 -0.42122018596E+02  0.77231205450E+03  0.28111590824E+03  0.83705315294E+03  0.15294330000E+03 0.  0.
    8880022    1    1    2    0    0  0.42122018596E+02 -0.77231205450E+03  0.19674962915E+04  0.21195927638E+04  0.15294330000E+03 0.  0.
<mgrwt>
<rscale>  0 0.78843632E+03</rscale>
<asrwt>0</asrwt>
<pdfrwt beam="1">  1        2 0.40040448E+00 0.78843632E+03</pdfrwt>
<pdfrwt beam="2">  1       -2 0.54464131E-01 0.78843632E+03</pdfrwt>
<totfact> 0.10052810E+01</totfact>
</mgrwt>
</event>
<event>
 4    1  0.1033139E-008  0.9582430E+03  0.7818608E-02  0.9355567E-01
         -2   -1    0    0    0  501 -0.00000000000E+00  0.00000000000E+00  0.62033455053E+03  0.62033455054E+03  0.25500000000E-02 0.  1.
          2   -1    0    0  501    0  0.00000000000E+00 -0.00000000000E+00 -0.33893020934E+04  0.33893020934E+04  0.25500000000E-02 0. -1.
    8880022    1    1    2    0    0  0.21630441177E+03  0.92089651237E+03  0.12015603098E+03  0.96574691811E+03  0.15294330000E+03 0.  0.
    8880022    1    1    2    0    0 -0.21630441177E+03 -0.92089651237E+03 -0.28891235739E+04  0.30438897258E+04  0.15294330000E+03 0.  0.
<mgrwt>
<rscale>  0 0.95824300E+03</rscale>
<asrwt>0</asrwt>
<pdfrwt beam="1">  1        2 0.52143108E+00 0.95824300E+03</pdfrwt>
<pdfrwt beam="2">  1       -2 0.95436087E-01 0.95824300E+03</pdfrwt>
<totfact> 0.92816699E-01</totfact>
</mgrwt>
</event>
<event>
 4    1  0.1033139E-008  0.4983850E+03  0.7818608E-02  0.1014201E+00
          2   -1    0    0  501    0  0.00000000000E+00  0.00000000000E+00  0.61333682881E+03  0.61333682882E+03  0.25500000000E-02 0. -1.
         -2   -1    0    0    0  501 -0.00000000000E+00 -0.00000000000E+00 -0.43027330167E+03  0.43027330168E+03  0.25500000000E-02 0.  1.
    8880022    1    1    2    0    0 -0.47392388234E+03  0.19800508332E+02  0.21805232238E+03  0.54399850615E+03  0.15294330000E+03 0.  0.
    8880022    1    1    2    0    0  0.47392388234E+03 -0.19800508332E+02 -0.34988795247E+02  0.49961162435E+03  0.15294330000E+03 0.  0.
<mgrwt>
<rscale>  0 0.49838495E+03</rscale>
<asrwt>0</asrwt>
<pdfrwt beam="1">  1        2 0.94359512E-01 0.49838495E+03</pdfrwt>
<pdfrwt beam="2">  1       -2 0.66195893E-01 0.49838495E+03</pdfrwt>
<totfact> 0.10432176E+02</totfact>
</mgrwt>
</event>
<event>
 4    1  0.1033139E-008  0.1012668E+04  0.7818608E-02  0.9294759E-01
          2   -1    0    0  501    0  0.00000000000E+00  0.00000000000E+00  0.26336022269E+04  0.26336022269E+04  0.25500000000E-02 0. -1.
         -2   -1    0    0    0  501 -0.00000000000E+00 -0.00000000000E+00 -0.10923586089E+04  0.10923586089E+04  0.25500000000E-02 0.  1.
    8880022    1    1    2    0    0  0.55474901169E+03  0.83328200070E+03 -0.72387088952E+03  0.12447835460E+04  0.15294330000E+03 0.  0.
    8880022    1    1    2    0    0 -0.55474901169E+03 -0.83328200070E+03  0.22651145075E+04  0.24811772898E+04  0.15294330000E+03 0.  0.
<mgrwt>
<rscale>  0 0.10126683E+04</rscale>
<asrwt>0</asrwt>
<pdfrwt beam="1">  1        2 0.40516956E+00 0.10126683E+04</pdfrwt>
<pdfrwt beam="2">  1       -2 0.16805517E+00 0.10126683E+04</pdfrwt>
<totfact> 0.64382032E-01</totfact>
</mgrwt>
</event>
<event>
 4    1  0.1033139E-008  0.1523801E+04  0.7818608E-02  0.8868778E-01
         -2   -1    0    0    0  501 -0.00000000000E+00  0.00000000000E+00  0.16148484785E+04  0.16148484785E+04  0.25500000000E-02 0.  1.
          2   -1    0    0  501    0  0.00000000000E+00 -0.00000000000E+00 -0.17798041285E+04  0.17798041286E+04  0.25500000000E-02 0. -1.
    8880022    1    1    2    0    0 -0.10173641467E+04 -0.11240768574E+04 -0.82642042243E+03  0.17334765519E+04  0.15294330000E+03 0.  0.
    8880022    1    1    2    0    0  0.10173641467E+04  0.11240768574E+04  0.66146477240E+03  0.16611760552E+04  0.15294330000E+03 0.  0.
<mgrwt>
<rscale>  0 0.15238012E+04</rscale>
<asrwt>0</asrwt>
<pdfrwt beam="1">  1        2 0.27381602E+00 0.15238012E+04</pdfrwt>
<pdfrwt beam="2">  1       -2 0.24843823E+00 0.15238012E+04</pdfrwt>
<totfact> 0.54457162E-01</totfact>
</mgrwt>
</event>
<event>
 4    1  0.1033139E-008  0.1037501E+04  0.7818608E-02  0.9268344E-01
          2   -1    0    0  501    0  0.00000000000E+00  0.00000000000E+00  0.29767825649E+04  0.29767825649E+04  0.25500000000E-02 0. -1.
         -2   -1    0    0    0  501 -0.00000000000E+00 -0.00000000000E+00 -0.66000767545E+03  0.66000767545E+03  0.25500000000E-02 0.  1.
    8880022    1    1    2    0    0  0.15453159325E+03 -0.10144639113E+04  0.23810813637E+04  0.25972980488E+04  0.15294330000E+03 0.  0.
    8880022    1    1    2    0    0 -0.15453159325E+03  0.10144639113E+04 -0.64306474274E+02  0.10394921915E+04  0.15294330000E+03 0.  0.
<mgrwt>
<rscale>  0 0.10375012E+04</rscale>
<asrwt>0</asrwt>
<pdfrwt beam="1">  1        2 0.45796655E+00 0.10375012E+04</pdfrwt>
<pdfrwt beam="2">  1       -2 0.10153964E+00 0.10375012E+04</pdfrwt>
<totfact> 0.14524588E+00</totfact>
</mgrwt>
</event>
<event>
 4    1  0.1960494E-008  0.1624348E+04  0.7818608E-02  0.8805728E-01
          2   -1    0    0  501    0  0.00000000000E+00  0.00000000000E+00  0.23735739708E+04  0.23735739708E+04  0.25500000000E-02 0. -1.
         -2   -1    0    0    0  501 -0.00000000000E+00 -0.00000000000E+00 -0.21078462302E+04  0.21078462302E+04  0.25500000000E-02 0.  1.
    8880022    1    1    2    0    0  0.32149806312E+02  0.16168119723E+04 -0.14075795576E+04  0.21493688441E+04  0.15294330000E+03 0.  0.
    8880022    1    1    2    0    0 -0.32149806312E+02 -0.16168119723E+04  0.16733072982E+04  0.23320513569E+04  0.15294330000E+03 0.  0.
<mgrwt>
<rscale>  0 0.16243479E+04</rscale>
<asrwt>0</asrwt>
<pdfrwt beam="1">  1        2 0.36516523E+00 0.16243479E+04</pdfrwt>
<pdfrwt beam="2">  1       -2 0.32428404E+00 0.16243479E+04</pdfrwt>
<totfact> 0.85651069E-02</totfact>
</mgrwt>
</event>
<event>
 4    1  0.1033139E-008  0.2541649E+03  0.7818608E-02  0.1110701E+00
          2   -1    0    0  501    0  0.00000000000E+00  0.00000000000E+00  0.50930944523E+03  0.50930944523E+03  0.25500000000E-02 0. -1.
         -2   -1    0    0    0  501 -0.00000000000E+00 -0.00000000000E+00 -0.78693144094E+03  0.78693144094E+03  0.25500000000E-02 0.  1.
    8880022    1    1    2    0    0  0.10292538792E+03  0.17496994756E+03 -0.73240566883E+03  0.77525340036E+03  0.15294330000E+03 0.  0.
    8880022    1    1    2    0    0 -0.10292538792E+03 -0.17496994756E+03  0.45478367312E+03  0.52098748581E+03  0.15294330000E+03 0.  0.
<mgrwt>
<rscale>  0 0.25416485E+03</rscale>
<asrwt>0</asrwt>
<pdfrwt beam="1">  1        2 0.78355300E-01 0.25416485E+03</pdfrwt>
<pdfrwt beam="2">  1       -2 0.12106638E+00 0.25416485E+03</pdfrwt>
<totfact> 0.33682829E+01</totfact>
</mgrwt>
</event>
<event>
 4    1  0.1033139E-008  0.6341580E+03  0.7818608E-02  0.9836968E-01
         -2   -1    0    0    0  501 -0.00000000000E+00  0.00000000000E+00  0.26194719618E+03  0.26194719620E+03  0.25500000000E-02 0.  1.
          2   -1    0    0  501    0  0.00000000000E+00 -0.00000000000E+00 -0.26196397547E+04  0.26196397547E+04  0.25500000000E-02 0. -1.
    8880022    1    1    2    0    0  0.10175665959E+03 -0.60696815536E+03 -0.25186249620E+03  0.68234238429E+03  0.15294330000E+03 0.  0.
    8880022    1    1    2    0    0 -0.10175665959E+03  0.60696815536E+03 -0.21058300623E+04  0.21992445666E+04  0.15294330000E+03 0.  0.
<mgrwt>
<rscale>  0 0.63415803E+03</rscale>
<asrwt>0</asrwt>
<pdfrwt beam="1">  1        2 0.40302148E+00 0.63415803E+03</pdfrwt>
<pdfrwt beam="2">  1       -2 0.40299571E-01 0.63415803E+03</pdfrwt>
<totfact> 0.18487881E+01</totfact>
</mgrwt>
</event>
<event>
 4    1  0.1033139E-008  0.1254958E+04  0.7818608E-02  0.9066067E-01
          2   -1    0    0  501    0  0.00000000000E+00  0.00000000000E+00  0.14488773114E+04  0.14488773114E+04  0.25500000000E-02 0. -1.
         -2   -1    0    0    0  501 -0.00000000000E+00 -0.00000000000E+00 -0.15805550695E+04  0.15805550695E+04  0.25500000000E-02 0.  1.
    8880022    1    1    2    0    0 -0.89532424671E+03 -0.86598019654E+03  0.78060375983E+03  0.14779245889E+04  0.15294330000E+03 0.  0.
    8880022    1    1    2    0    0  0.89532424671E+03  0.86598019654E+03 -0.91228151796E+03  0.15515077920E+04  0.15294330000E+03 0.  0.
<mgrwt>
<rscale>  0 0.12549577E+04</rscale>
<asrwt>0</asrwt>
<pdfrwt beam="1">  1        2 0.22290420E+00 0.12549577E+04</pdfrwt>
<pdfrwt beam="2">  1       -2 0.24316232E+00 0.12549577E+04</pdfrwt>
<totfact> 0.92741936E-01</totfact>
</mgrwt>
</event>
<event>
 4    1  0.1033139E-008  0.8081234E+03  0.7818608E-02  0.9548333E-01
          2   -1    0    0  501    0  0.00000000000E+00  0.00000000000E+00  0.14292545903E+04  0.14292545903E+04  0.25500000000E-02 0. -1.
         -2   -1    0    0    0  501 -0.00000000000E+00 -0.00000000000E+00 -0.63793514750E+03  0.63793514751E+03  0.25500000000E-02 0.  1.
    8880022    1    1    2    0    0  0.66092568519E+03  0.43914587038E+03 -0.15491009960E+03  0.82283695152E+03  0.15294330000E+03 0.  0.
    8880022    1    1    2    0    0 -0.66092568519E+03 -0.43914587038E+03  0.94622954239E+03  0.12443527863E+04  0.15294330000E+03 0.  0.
<mgrwt>
<rscale>  0 0.80812345E+03</rscale>
<asrwt>0</asrwt>
<pdfrwt beam="1">  1        2 0.21988532E+00 0.80812345E+03</pdfrwt>
<pdfrwt beam="2">  1       -2 0.98143870E-01 0.80812345E+03</pdfrwt>
<totfact> 0.12212468E+01</totfact>
</mgrwt>
</event>
<event>
 4    1  0.1033139E-008  0.4481133E+03  0.7818608E-02  0.1028286E+00
          2   -1    0    0  501    0  0.00000000000E+00  0.00000000000E+00  0.22105928529E+04  0.22105928529E+04  0.25500000000E-02 0. -1.
         -2   -1    0    0    0  501 -0.00000000000E+00 -0.00000000000E+00 -0.49956229547E+03  0.49956229547E+03  0.25500000000E-02 0.  1.
    8880022    1    1    2    0    0 -0.40531378822E+03 -0.11460623472E+03 -0.37018599303E+03  0.58124278783E+03  0.15294330000E+03 0.  0.
    8880022    1    1    2    0    0  0.40531378822E+03  0.11460623472E+03  0.20812165505E+04  0.21289123605E+04  0.15294330000E+03 0.  0.
<mgrwt>
<rscale>  0 0.44811328E+03</rscale>
<asrwt>0</asrwt>
<pdfrwt beam="1">  1        2 0.34009121E+00 0.44811328E+03</pdfrwt>
<pdfrwt beam="2">  1       -2 0.76855738E-01 0.44811328E+03</pdfrwt>
<totfact> 0.85446358E+00</totfact>
</mgrwt>
</event>
<event>
 4    1  0.1033139E-008  0.2123112E+04  0.7818608E-02  0.8551130E-01
         -2   -1    0    0    0  501 -0.00000000000E+00  0.00000000000E+00  0.18476516710E+04  0.18476516710E+04  0.25500000000E-02 0.  1.
          2   -1    0    0  501    0  0.00000000000E+00 -0.00000000000E+00 -0.30466451262E+04  0.30466451262E+04  0.25500000000E-02 0. -1.
    8880022    1    1    2    0    0  0.18356800493E+04  0.10556938743E+04  0.49281357195E+03  0.21795567599E+04  0.15294330000E+03 0.  0.
    8880022    1    1    2    0    0 -0.18356800493E+04 -0.10556938743E+04 -0.16918070272E+04  0.27147400373E+04  0.15294330000E+03 0.  0.
<mgrwt>
<rscale>  0 0.21231115E+04</rscale>
<asrwt>0</asrwt>
<pdfrwt beam="1">  1        2 0.46871464E+00 0.21231115E+04</pdfrwt>
<pdfrwt beam="2">  1       -2 0.28425410E+00 0.21231115E+04</pdfrwt>
<totfact> 0.56444787E-02</totfact>
</mgrwt>
</event>
<event>
 4    1  0.1033139E-008  0.4091022E+03  0.7818608E-02  0.1040673E+00
         -2   -1    0    0    0  501 -0.00000000000E+00  0.00000000000E+00  0.17237874778E+03  0.17237874780E+03  0.25500000000E-02 0.  1.
          2   -1    0    0  501    0  0.00000000000E+00 -0.00000000000E+00 -0.15602304853E+04  0.15602304853E+04  0.25500000000E-02 0. -1.
    8880022    1    1    2    0    0 -0.30864195942E+03 -0.22071036890E+03 -0.12263421340E+04  0.12927797990E+04  0.15294330000E+03 0.  0.
    8880022    1    1    2    0    0  0.30864195942E+03  0.22071036890E+03 -0.16150960351E+03  0.43982943409E+03  0.15294330000E+03 0.  0.
<mgrwt>
<rscale>  0 0.40910216E+03</rscale>
<asrwt>0</asrwt>
<pdfrwt beam="1">  1        2 0.24003545E+00 0.40910216E+03</pdfrwt>
<pdfrwt beam="2">  1       -2 0.26519808E-01 0.40910216E+03</pdfrwt>
<totfact> 0.15954172E+02</totfact>
</mgrwt>
</event>
<event>
 4    1  0.1033139E-008  0.5311280E+03  0.7818608E-02  0.1005959E+00
          2   -1    0    0  501    0  0.00000000000E+00  0.00000000000E+00  0.12163550723E+04  0.12163550723E+04  0.25500000000E-02 0. -1.
         -2   -1    0    0    0  501 -0.00000000000E+00 -0.00000000000E+00 -0.30047374937E+03  0.30047374938E+03  0.25500000000E-02 0.  1.
    8880022    1    1    2    0    0 -0.48874008850E+02 -0.50627723826E+03  0.95681658804E+02  0.53967762930E+03  0.15294330000E+03 0.  0.
    8880022    1    1    2    0    0  0.48874008850E+02  0.50627723826E+03  0.82019966411E+03  0.97715119237E+03  0.15294330000E+03 0. -1.
<mgrwt>
<rscale>  0 0.53112801E+03</rscale>
<asrwt>0</asrwt>
<pdfrwt beam="1">  1        2 0.18713155E+00 0.53112801E+03</pdfrwt>
<pdfrwt beam="2">  1       -2 0.46226731E-01 0.53112801E+03</pdfrwt>
<totfact> 0.85343686E+01</totfact>
</mgrwt>
</event>
<event>
 4    1  0.1033139E-008  0.1031873E+04  0.7818608E-02  0.9274262E-01
          2   -1    0    0  501    0  0.00000000000E+00  0.00000000000E+00  0.19752711076E+04  0.19752711076E+04  0.25500000000E-02 0. -1.
         -2   -1    0    0    0  501 -0.00000000000E+00 -0.00000000000E+00 -0.66561879893E+03  0.66561879893E+03  0.25500000000E-02 0.  1.
    8880022    1    1    2    0    0 -0.95468758354E+03 -0.36047482236E+03  0.12306340013E+04  0.16059956967E+04  0.15294330000E+03 0.  0.
    8880022    1    1    2    0    0  0.95468758354E+03  0.36047482236E+03  0.79018307452E+02  0.10348942099E+04  0.15294330000E+03 0.  0.
<mgrwt>
<rscale>  0 0.10318731E+04</rscale>
<asrwt>0</asrwt>
<pdfrwt beam="1">  1        2 0.30388786E+00 0.10318731E+04</pdfrwt>
<pdfrwt beam="2">  1       -2 0.10240289E+00 0.10318731E+04</pdfrwt>
<totfact> 0.53625510E+00</totfact>
</mgrwt>
</event>
<event>
 4    1  0.1033139E-008  0.1301010E+04  0.7818608E-02  0.9028764E-01
          2   -1    0    0  501    0  0.00000000000E+00  0.00000000000E+00  0.79864077335E+03  0.79864077335E+03  0.25500000000E-02 0. -1.
         -2   -1    0    0    0  501 -0.00000000000E+00 -0.00000000000E+00 -0.26455703944E+04  0.26455703944E+04  0.25500000000E-02 0.  1.
    8880022    1    1    2    0    0  0.87410785845E+03  0.95140496202E+03 -0.15545045255E+03  0.13102642658E+04  0.15294330000E+03 0.  0.
    8880022    1    1    2    0    0 -0.87410785845E+03 -0.95140496202E+03 -0.16914791685E+04  0.21339469019E+04  0.15294330000E+03 0.  0.
<mgrwt>
<rscale>  0 0.13010102E+04</rscale>
<asrwt>0</asrwt>
<pdfrwt beam="1">  1        2 0.12286781E+00 0.13010102E+04</pdfrwt>
<pdfrwt beam="2">  1       -2 0.40701083E+00 0.13010102E+04</pdfrwt>
<totfact> 0.22496625E-01</totfact>
</mgrwt>
</event>
<event>
 4    1  0.1033139E-008  0.6052743E+03  0.7818608E-02  0.9894524E-01
         -2   -1    0    0    0  501 -0.00000000000E+00  0.00000000000E+00  0.69970706147E+03  0.69970706147E+03  0.25500000000E-02 0.  1.
          2   -1    0    0  501    0  0.00000000000E+00 -0.00000000000E+00 -0.22667499913E+04  0.22667499913E+04  0.25500000000E-02 0. -1.
    8880022    1    1    2    0    0 -0.58096480220E+03  0.73791876367E+02 -0.20842161038E+04  0.21703257273E+04  0.15294330000E+03 0.  0.
    8880022    1    1    2    0    0  0.58096480220E+03 -0.73791876367E+02  0.51717317398E+03  0.79613132542E+03  0.15294330000E+03 0.  0.
<mgrwt>
<rscale>  0 0.60527431E+03</rscale>
<asrwt>0</asrwt>
<pdfrwt beam="1">  1        2 0.34873076E+00 0.60527431E+03</pdfrwt>
<pdfrwt beam="2">  1       -2 0.10764724E+00 0.60527431E+03</pdfrwt>
<totfact> 0.35215504E+00</totfact>
</mgrwt>
</event>
<event>
 4    1  0.1033139E-008  0.5497796E+03  0.7818608E-02  0.1001545E+00
          2   -1    0    0  501    0  0.00000000000E+00  0.00000000000E+00  0.75468259778E+03  0.75468259779E+03  0.25500000000E-02 0. -1.
         -2   -1    0    0    0  501 -0.00000000000E+00 -0.00000000000E+00 -0.14881486124E+04  0.14881486124E+04  0.25500000000E-02 0.  1.
    8880022    1    1    2    0    0 -0.52690569965E+03  0.35162395367E+02  0.59197382350E+03  0.80789273490E+03  0.15294330000E+03 0. -1.
    8880022    1    1    2    0    0  0.52690569965E+03 -0.35162395367E+02 -0.13254398382E+04  0.14349384753E+04  0.15294330000E+03 0.  0.
<mgrwt>
<rscale>  0 0.54977965E+03</rscale>
<asrwt>0</asrwt>
<pdfrwt beam="1">  1        2 0.11610502E+00 0.54977965E+03</pdfrwt>
<pdfrwt beam="2">  1       -2 0.22894594E+00 0.54977965E+03</pdfrwt>
<totfact> 0.34294198E+00</totfact>
</mgrwt>
</event>
<event>
 4    1  0.1033139E-008  0.3256301E+03  0.7818608E-02  0.1073087E+00
          2   -1    0    0  501    0  0.00000000000E+00  0.00000000000E+00  0.18882046283E+04  0.18882046283E+04  0.25500000000E-02 0. -1.
         -2   -1    0    0    0  501 -0.00000000000E+00 -0.00000000000E+00 -0.20009472674E+03  0.20009472675E+03  0.25500000000E-02 0.  1.
    8880022    1    1    2    0    0 -0.93279187020E+01 -0.28732612693E+03  0.17296455720E+04  0.17600309006E+04  0.15294330000E+03 0.  0.
    8880022    1    1    2    0    0  0.93279187020E+01  0.28732612693E+03 -0.41535670410E+02  0.32826845449E+03  0.15294330000E+03 0.  0.
<mgrwt>
<rscale>  0 0.32563011E+03</rscale>
<asrwt>0</asrwt>
<pdfrwt beam="1">  1        2 0.29049303E+00 0.32563011E+03</pdfrwt>
<pdfrwt beam="2">  1       -2 0.30783803E-01 0.32563011E+03</pdfrwt>
<totfact> 0.82628267E+01</totfact>
</mgrwt>
</event>
<event>
 4    1  0.1033139E-008  0.6098114E+03  0.7818608E-02  0.9885257E-01
         -2   -1    0    0    0  501 -0.00000000000E+00  0.00000000000E+00  0.10218440398E+04  0.10218440398E+04  0.25500000000E-02 0.  1.
          2   -1    0    0  501    0  0.00000000000E+00 -0.00000000000E+00 -0.10703116317E+04  0.10703116317E+04  0.25500000000E-02 0. -1.
    8880022    1    1    2    0    0 -0.23645930205E+03 -0.54089306043E+03  0.82559512736E+03  0.10263904090E+04  0.15294330000E+03 0.  0.
    8880022    1    1    2    0    0  0.23645930205E+03  0.54089306043E+03 -0.87406271930E+03  0.10657652624E+04  0.15294330000E+03 0. -1.
<mgrwt>
<rscale>  0 0.60981141E+03</rscale>
<asrwt>0</asrwt>
<pdfrwt beam="1">  1        2 0.16466333E+00 0.60981141E+03</pdfrwt>
<pdfrwt beam="2">  1       -2 0.15720678E+00 0.60981141E+03</pdfrwt>
<totfact> 0.62550252E+00</totfact>
</mgrwt>
</event>
<event>
 4    1  0.1033139E-008  0.8834554E+03  0.7818608E-02  0.9446503E-01
         -2   -1    0    0    0  501 -0.00000000000E+00  0.00000000000E+00  0.10360550584E+04  0.10360550584E+04  0.25500000000E-02 0.  1.
          2   -1    0    0  501    0  0.00000000000E+00 -0.00000000000E+00 -0.14387419130E+04  0.14387419130E+04  0.25500000000E-02 0. -1.
    8880022    1    1    2    0    0  0.80128863951E+03 -0.33917301814E+03 -0.10554131177E+04  0.13763685270E+04  0.15294330000E+03 0.  0.
    8880022    1    1    2    0    0 -0.80128863951E+03  0.33917301814E+03  0.65272626306E+03  0.10984284444E+04  0.15294330000E+03 0.  0.
<mgrwt>
<rscale>  0 0.88345542E+03</rscale>
<asrwt>0</asrwt>
<pdfrwt beam="1">  1        2 0.22134491E+00 0.88345542E+03</pdfrwt>
<pdfrwt beam="2">  1       -2 0.15939309E+00 0.88345542E+03</pdfrwt>
<totfact> 0.35231055E+00</totfact>
</mgrwt>
</event>
<event>
 4    1  0.1033139E-008  0.1455618E+04  0.7818608E-02  0.8914515E-01
         -2   -1    0    0    0  501 -0.00000000000E+00  0.00000000000E+00  0.14901397677E+04  0.14901397677E+04  0.25500000000E-02 0.  1.
          2   -1    0    0  501    0  0.00000000000E+00 -0.00000000000E+00 -0.20892986645E+04  0.20892986645E+04  0.25500000000E-02 0. -1.
    8880022    1    1    2    0    0 -0.12950231773E+04 -0.64679793737E+03  0.71194993105E+03  0.16204002465E+04  0.15294330000E+03 0.  0.
    8880022    1    1    2    0    0  0.12950231773E+04  0.64679793737E+03 -0.13111088278E+04  0.19590381857E+04  0.15294330000E+03 0.  0.
<mgrwt>
<rscale>  0 0.14556182E+04</rscale>
<asrwt>0</asrwt>
<pdfrwt beam="1">  1        2 0.32143056E+00 0.14556182E+04</pdfrwt>
<pdfrwt beam="2">  1       -2 0.22925227E+00 0.14556182E+04</pdfrwt>
<totfact> 0.48521864E-01</totfact>
</mgrwt>
</event>
<event>
 4    1  0.1033139E-008  0.1820889E+03  0.7818608E-02  0.1165797E+00
          2   -1    0    0  501    0  0.00000000000E+00  0.00000000000E+00  0.26454380073E+04  0.26454380073E+04  0.25500000000E-02 0. -1.
         -2   -1    0    0    0  501 -0.00000000000E+00 -0.00000000000E+00 -0.69128941423E+02  0.69128941470E+02  0.25500000000E-02 0.  1.
    8880022    1    1    2    0    0 -0.42259595211E+02  0.89324404778E+02  0.60060403702E+02  0.19173843585E+03  0.15294330000E+03 0.  0.
    8880022    1    1    2    0    0  0.42259595211E+02 -0.89324404778E+02  0.25162486622E+04  0.25228285129E+04  0.15294330000E+03 0. -1.
<mgrwt>
<rscale>  0 0.18208892E+03</rscale>
<asrwt>0</asrwt>
<pdfrwt beam="1">  1        2 0.40699047E+00 0.18208892E+03</pdfrwt>
<pdfrwt beam="2">  1       -2 0.10635221E-01 0.18208892E+03</pdfrwt>
<totfact> 0.20723207E+02</totfact>
</mgrwt>
</event>
<event>
 4    1  0.1033139E-008  0.3332318E+03  0.7818608E-02  0.1069716E+00
         -2   -1    0    0    0  501 -0.00000000000E+00  0.00000000000E+00  0.63833372707E+03  0.63833372707E+03  0.25500000000E-02 0.  1.
          2   -1    0    0  501    0  0.00000000000E+00 -0.00000000000E+00 -0.73899556264E+03  0.73899556265E+03  0.25500000000E-02 0. -1.
    8880022    1    1    2    0    0 -0.15244682923E+03 -0.25379467031E+03 -0.65250967738E+03  0.73267475903E+03  0.15294330000E+03 0. -1.
    8880022    1    1    2    0    0  0.15244682923E+03  0.25379467031E+03  0.55184784181E+03  0.64465453069E+03  0.15294330000E+03 0.  0.
<mgrwt>
<rscale>  0 0.33323179E+03</rscale>
<asrwt>0</asrwt>
<pdfrwt beam="1">  1        2 0.11369162E+00 0.33323179E+03</pdfrwt>
<pdfrwt beam="2">  1       -2 0.98205189E-01 0.33323179E+03</pdfrwt>
<totfact> 0.35156920E+01</totfact>
</mgrwt>
</event>
<event>
 4    1  0.1033139E-008  0.5139853E+03  0.7818608E-02  0.1010192E+00
          2   -1    0    0  501    0  0.00000000000E+00  0.00000000000E+00  0.11694924247E+04  0.11694924247E+04  0.25500000000E-02 0. -1.
         -2   -1    0    0    0  501 -0.00000000000E+00 -0.00000000000E+00 -0.64869518224E+03  0.64869518224E+03  0.25500000000E-02 0.  1.
    8880022    1    1    2    0    0  0.46039149411E+03  0.16979080789E+03 -0.47353476395E+03  0.69886770706E+03  0.15294330000E+03 0.  0.
    8880022    1    1    2    0    0 -0.46039149411E+03 -0.16979080789E+03  0.99433200645E+03  0.11193198999E+04  0.15294330000E+03 0.  0.
<mgrwt>
<rscale>  0 0.51398531E+03</rscale>
<asrwt>0</asrwt>
<pdfrwt beam="1">  1        2 0.17992191E+00 0.51398531E+03</pdfrwt>
<pdfrwt beam="2">  1       -2 0.99799260E-01 0.51398531E+03</pdfrwt>
<totfact> 0.17259833E+01</totfact>
</mgrwt>
</event>
<event>
 4    1  0.1033139E-008  0.1243750E+04  0.7818608E-02  0.9075401E-01
         -2   -1    0    0    0  501 -0.00000000000E+00  0.00000000000E+00  0.87260069371E+03  0.87260069372E+03  0.25500000000E-02 0.  1.
          2   -1    0    0  501    0  0.00000000000E+00 -0.00000000000E+00 -0.26806957472E+04  0.26806957472E+04  0.25500000000E-02 0. -1.
    8880022    1    1    2    0    0 -0.10613729421E+03  0.12297389655E+04 -0.19380090835E+04  0.23027796050E+04  0.15294330000E+03 0.  0.
    8880022    1    1    2    0    0  0.10613729421E+03 -0.12297389655E+04  0.12991403005E+03  0.12505168359E+04  0.15294330000E+03 0.  0.
<mgrwt>
<rscale>  0 0.12437503E+04</rscale>
<asrwt>0</asrwt>
<pdfrwt beam="1">  1        2 0.41241473E+00 0.12437503E+04</pdfrwt>
<pdfrwt beam="2">  1       -2 0.13424626E+00 0.12437503E+04</pdfrwt>
<totfact> 0.10649763E+00</totfact>
</mgrwt>
</event>
<event>
 4    1  0.1033139E-008  0.1596556E+04  0.7818608E-02  0.8822667E-01
          2   -1    0    0  501    0  0.00000000000E+00  0.00000000000E+00  0.14296726528E+04  0.14296726528E+04  0.25500000000E-02 0. -1.
         -2   -1    0    0    0  501 -0.00000000000E+00 -0.00000000000E+00 -0.27126002307E+04  0.27126002307E+04  0.25500000000E-02 0.  1.
    8880022    1    1    2    0    0 -0.10357758012E+04  0.12053079367E+04 -0.18539669213E+04  0.24466678832E+04  0.15294330000E+03 0.  0.
    8880022    1    1    2    0    0  0.10357758012E+04 -0.12053079367E+04  0.57103934332E+03  0.16956050003E+04  0.15294330000E+03 0.  0.
<mgrwt>
<rscale>  0 0.15965558E+04</rscale>
<asrwt>0</asrwt>
<pdfrwt beam="1">  1        2 0.21994964E+00 0.15965558E+04</pdfrwt>
<pdfrwt beam="2">  1       -2 0.41732311E+00 0.15965558E+04</pdfrwt>
<totfact> 0.74086039E-02</totfact>
</mgrwt>
</event>
<event>
 4    1  0.1033139E-008  0.3701322E+03  0.7818608E-02  0.1054642E+00
         -2   -1    0    0    0  501 -0.00000000000E+00  0.00000000000E+00  0.54299174724E+03  0.54299174725E+03  0.25500000000E-02 0.  1.
          2   -1    0    0  501    0  0.00000000000E+00 -0.00000000000E+00 -0.93513399873E+03  0.93513399874E+03  0.25500000000E-02 0. -1.
    8880022    1    1    2    0    0 -0.18910497563E+03  0.27900808420E+03  0.43546968878E+03  0.57151702137E+03  0.15294330000E+03 0.  0.
    8880022    1    1    2    0    0  0.18910497563E+03 -0.27900808420E+03 -0.82761194027E+03  0.90660872462E+03  0.15294330000E+03 0. -1.
<mgrwt>
<rscale>  0 0.37013221E+03</rscale>
<asrwt>0</asrwt>
<pdfrwt beam="1">  1        2 0.14386677E+00 0.37013221E+03</pdfrwt>
<pdfrwt beam="2">  1       -2 0.83537192E-01 0.37013221E+03</pdfrwt>
<totfact> 0.37088115E+01</totfact>
</mgrwt>
</event>
<event>
 4    1  0.1033139E-008  0.1223232E+04  0.7818608E-02  0.9092761E-01
         -2   -1    0    0    0  501 -0.00000000000E+00  0.00000000000E+00  0.10598966977E+04  0.10598966977E+04  0.25500000000E-02 0.  1.
          2   -1    0    0  501    0  0.00000000000E+00 -0.00000000000E+00 -0.19686416428E+04  0.19686416428E+04  0.25500000000E-02 0. -1.
    8880022    1    1    2    0    0  0.71494742304E+03 -0.98069071544E+03 -0.12597695167E+04  0.17559370676E+04  0.15294330000E+03 0.  0.
    8880022    1    1    2    0    0 -0.71494742304E+03  0.98069071544E+03  0.35102457159E+03  0.12726012730E+04  0.15294330000E+03 0.  0.
<mgrwt>
<rscale>  0 0.12232317E+04</rscale>
<asrwt>0</asrwt>
<pdfrwt beam="1">  1        2 0.30286794E+00 0.12232317E+04</pdfrwt>
<pdfrwt beam="2">  1       -2 0.16306103E+00 0.12232317E+04</pdfrwt>
<totfact> 0.16130421E+00</totfact>
</mgrwt>
</event>
<event>
 4    1  0.1033139E-008  0.8121146E+03  0.7818608E-02  0.9542645E-01
          2   -1    0    0  501    0  0.00000000000E+00  0.00000000000E+00  0.17650755600E+04  0.17650755600E+04  0.25500000000E-02 0. -1.
         -2   -1    0    0    0  501 -0.00000000000E+00 -0.00000000000E+00 -0.12525702202E+04  0.12525702202E+04  0.25500000000E-02 0.  1.
    8880022    1    1    2    0    0 -0.73875170083E+03 -0.30064001306E+03  0.15201465133E+04  0.17234777538E+04  0.15294330000E+03 0.  0.
    8880022    1    1    2    0    0  0.73875170083E+03  0.30064001306E+03 -0.10076411735E+04  0.12941680264E+04  0.15294330000E+03 0.  0.
<mgrwt>
<rscale>  0 0.81211461E+03</rscale>
<asrwt>0</asrwt>
<pdfrwt beam="1">  1        2 0.27155009E+00 0.81211461E+03</pdfrwt>
<pdfrwt beam="2">  1       -2 0.19270311E+00 0.81211461E+03</pdfrwt>
<totfact> 0.13753181E+00</totfact>
</mgrwt>
</event>
<event>
 4    1  0.1033139E-008  0.1524123E+04  0.7818608E-02  0.8868568E-01
          2   -1    0    0  501    0  0.00000000000E+00  0.00000000000E+00  0.28447956848E+04  0.28447956848E+04  0.25500000000E-02 0. -1.
         -2   -1    0    0    0  501 -0.00000000000E+00 -0.00000000000E+00 -0.10251571643E+04  0.10251571643E+04  0.25500000000E-02 0.  1.
    8880022    1    1    2    0    0  0.14772170807E+04  0.34262210746E+03  0.36983281826E+02  0.15245719492E+04  0.15294330000E+03 0.  0.
    8880022    1    1    2    0    0 -0.14772170807E+04 -0.34262210746E+03  0.17826552387E+04  0.23453808998E+04  0.15294330000E+03 0.  0.
<mgrwt>
<rscale>  0 0.15241233E+04</rscale>
<asrwt>0</asrwt>
<pdfrwt beam="1">  1        2 0.43766087E+00 0.15241233E+04</pdfrwt>
<pdfrwt beam="2">  1       -2 0.15771649E+00 0.15241233E+04</pdfrwt>
<totfact> 0.53646033E-01</totfact>
</mgrwt>
</event>
<event>
 4    1  0.1033139E-008  0.1760114E+04  0.7818608E-02  0.8727803E-01
         -2   -1    0    0    0  501 -0.00000000000E+00  0.00000000000E+00  0.15029539333E+04  0.15029539333E+04  0.25500000000E-02 0.  1.
          2   -1    0    0  501    0  0.00000000000E+00 -0.00000000000E+00 -0.42566581542E+04  0.42566581542E+04  0.25500000000E-02 0. -1.
    8880022    1    1    2    0    0 -0.10342927558E+04 -0.14159264683E+04 -0.34450116852E+04  0.38686052309E+04  0.15294330000E+03 0.  0.
    8880022    1    1    2    0    0  0.10342927558E+04  0.14159264683E+04  0.69130746434E+03  0.18910068565E+04  0.15294330000E+03 0.  0.
<mgrwt>
<rscale>  0 0.17601139E+04</rscale>
<asrwt>0</asrwt>
<pdfrwt beam="1">  1        2 0.65487048E+00 0.17601139E+04</pdfrwt>
<pdfrwt beam="2">  1       -2 0.23122368E+00 0.17601139E+04</pdfrwt>
<totfact> 0.16066959E-02</totfact>
</mgrwt>
</event>
<event>
 4    1  0.1033139E-008  0.5437331E+03  0.7818608E-02  0.1002955E+00
         -2   -1    0    0    0  501 -0.00000000000E+00  0.00000000000E+00  0.35109915865E+03  0.35109915866E+03  0.25500000000E-02 0.  1.
          2   -1    0    0  501    0  0.00000000000E+00 -0.00000000000E+00 -0.13142377567E+04  0.13142377567E+04  0.25500000000E-02 0. -1.
    8880022    1    1    2    0    0 -0.41275508986E+03  0.31919792126E+03 -0.98067093050E+03  0.11213211869E+04  0.15294330000E+03 0.  0.
    8880022    1    1    2    0    0  0.41275508986E+03 -0.31919792126E+03  0.17532332473E+02  0.54401572849E+03  0.15294330000E+03 0.  0.
<mgrwt>
<rscale>  0 0.54373314E+03</rscale>
<asrwt>0</asrwt>
<pdfrwt beam="1">  1        2 0.20219042E+00 0.54373314E+03</pdfrwt>
<pdfrwt beam="2">  1       -2 0.54015256E-01 0.54373314E+03</pdfrwt>
<totfact> 0.54608204E+01</totfact>
</mgrwt>
</event>
<event>
 4    1  0.1033139E-008  0.1648833E+04  0.7818608E-02  0.8791097E-01
         -2   -1    0    0    0  501 -0.00000000000E+00  0.00000000000E+00  0.11270293792E+04  0.11270293792E+04  0.25500000000E-02 0.  1.
          2   -1    0    0  501    0  0.00000000000E+00 -0.00000000000E+00 -0.33060278836E+04  0.33060278836E+04  0.25500000000E-02 0. -1.
    8880022    1    1    2    0    0 -0.15761690175E+04 -0.45929208857E+03  0.63000142191E+02  0.16500359588E+04  0.15294330000E+03 0.  0.
    8880022    1    1    2    0    0  0.15761690175E+04  0.45929208857E+03 -0.22419986466E+04  0.27830213040E+04  0.15294330000E+03 0.  0.
<mgrwt>
<rscale>  0 0.16488328E+04</rscale>
<asrwt>0</asrwt>
<pdfrwt beam="1">  1        2 0.50861967E+00 0.16488328E+04</pdfrwt>
<pdfrwt beam="2">  1       -2 0.17338914E+00 0.16488328E+04</pdfrwt>
<totfact> 0.20723911E-01</totfact>
</mgrwt>
</event>
<event>
 4    1  0.1033139E-008  0.1147059E+04  0.7818608E-02  0.9160501E-01
          2   -1    0    0  501    0  0.00000000000E+00  0.00000000000E+00  0.12035169757E+04  0.12035169757E+04  0.25500000000E-02 0. -1.
         -2   -1    0    0    0  501 -0.00000000000E+00 -0.00000000000E+00 -0.15557409279E+04  0.15557409279E+04  0.25500000000E-02 0.  1.
    8880022    1    1    2    0    0 -0.84614823233E+03  0.75920077621E+03  0.57610913243E+03  0.12836066513E+04  0.15294330000E+03 0.  0.
    8880022    1    1    2    0    0  0.84614823233E+03 -0.75920077621E+03 -0.92833308464E+03  0.14756512524E+04  0.15294330000E+03 0.  0.
<mgrwt>
<rscale>  0 0.11470590E+04</rscale>
<asrwt>0</asrwt>
<pdfrwt beam="1">  1        2 0.18515646E+00 0.11470590E+04</pdfrwt>
<pdfrwt beam="2">  1       -2 0.23934476E+00 0.11470590E+04</pdfrwt>
<totfact> 0.13781771E+00</totfact>
</mgrwt>
</event>
<event>
 4    1  0.1033139E-008  0.6461037E+03  0.7818608E-02  0.9814118E-01
          2   -1    0    0  501    0  0.00000000000E+00  0.00000000000E+00  0.98211650890E+03  0.98211650891E+03  0.25500000000E-02 0. -1.
         -2   -1    0    0    0  501 -0.00000000000E+00 -0.00000000000E+00 -0.14666444816E+04  0.14666444816E+04  0.25500000000E-02 0.  1.
    8880022    1    1    2    0    0 -0.56428128314E+03  0.27503624471E+03  0.78955384398E+03  0.10202182257E+04  0.15294330000E+03 0.  0.
    8880022    1    1    2    0    0  0.56428128314E+03 -0.27503624471E+03 -0.12740818167E+04  0.14285427648E+04  0.15294330000E+03 0.  0.
<mgrwt>
<rscale>  0 0.64610367E+03</rscale>
<asrwt>0</asrwt>
<pdfrwt beam="1">  1        2 0.15109485E+00 0.64610367E+03</pdfrwt>
<pdfrwt beam="2">  1       -2 0.22563761E+00 0.64610367E+03</pdfrwt>
<totfact> 0.24663091E+00</totfact>
</mgrwt>
</event>
<event>
 4    1  0.1033139E-008  0.7987314E+03  0.7818608E-02  0.9561855E-01
          2   -1    0    0  501    0  0.00000000000E+00  0.00000000000E+00  0.10922041358E+04  0.10922041358E+04  0.25500000000E-02 0. -1.
         -2   -1    0    0    0  501 -0.00000000000E+00 -0.00000000000E+00 -0.63567259632E+03  0.63567259632E+03  0.25500000000E-02 0.  1.
    8880022    1    1    2    0    0  0.57004821693E+03 -0.53816846136E+03  0.47431149861E+03  0.92894742217E+03  0.15294330000E+03 0.  0.
    8880022    1    1    2    0    0 -0.57004821693E+03  0.53816846136E+03 -0.17779959087E+02  0.79892931000E+03  0.15294330000E+03 0.  0.
<mgrwt>
<rscale>  0 0.79873144E+03</rscale>
<asrwt>0</asrwt>
<pdfrwt beam="1">  1        2 0.16803140E+00 0.79873144E+03</pdfrwt>
<pdfrwt beam="2">  1       -2 0.97795785E-01 0.79873144E+03</pdfrwt>
<totfact> 0.19419559E+01</totfact>
</mgrwt>
</event>
<event>
 4    1  0.1033139E-008  0.6054398E+03  0.7818608E-02  0.9894184E-01
          2   -1    0    0  501    0  0.00000000000E+00  0.00000000000E+00  0.19311798476E+04  0.19311798476E+04  0.25500000000E-02 0. -1.
         -2   -1    0    0    0  501 -0.00000000000E+00 -0.00000000000E+00 -0.79616650512E+03  0.79616650512E+03  0.25500000000E-02 0.  1.
    8880022    1    1    2    0    0 -0.11672701798E+03 -0.57405621583E+03  0.17575762149E+04  0.18589329035E+04  0.15294330000E+03 0.  0.
    8880022    1    1    2    0    0  0.11672701798E+03  0.57405621583E+03 -0.62256287240E+03  0.86841344921E+03  0.15294330000E+03 0.  1.
<mgrwt>
<rscale>  0 0.60543983E+03</rscale>
<asrwt>0</asrwt>
<pdfrwt beam="1">  1        2 0.29710459E+00 0.60543983E+03</pdfrwt>
<pdfrwt beam="2">  1       -2 0.12248716E+00 0.60543983E+03</pdfrwt>
<totfact> 0.39146272E+00</totfact>
</mgrwt>
</event>
<event>
 4    1  0.1033139E-008  0.1117606E+04  0.7818608E-02  0.9188200E-01
         -2   -1    0    0    0  501 -0.00000000000E+00  0.00000000000E+00  0.11815076938E+04  0.11815076938E+04  0.25500000000E-02 0.  1.
          2   -1    0    0  501    0  0.00000000000E+00 -0.00000000000E+00 -0.21130839629E+04  0.21130839629E+04  0.25500000000E-02 0. -1.
    8880022    1    1    2    0    0 -0.22289946280E+03  0.10844199861E+04 -0.16302615269E+04  0.19765614526E+04  0.15294330000E+03 0.  0.
    8880022    1    1    2    0    0  0.22289946280E+03 -0.10844199861E+04  0.69868525775E+03  0.13180302042E+04  0.15294330000E+03 0.  0.
<mgrwt>
<rscale>  0 0.11176057E+04</rscale>
<asrwt>0</asrwt>
<pdfrwt beam="1">  1        2 0.32508984E+00 0.11176057E+04</pdfrwt>
<pdfrwt beam="2">  1       -2 0.18177041E+00 0.11176057E+04</pdfrwt>
<totfact> 0.10011087E+00</totfact>
</mgrwt>
</event>
<event>
 4    1  0.1033139E-008  0.9672091E+03  0.7818608E-02  0.9345259E-01
         -2   -1    0    0    0  501 -0.00000000000E+00  0.00000000000E+00  0.11887461776E+04  0.11887461776E+04  0.25500000000E-02 0.  1.
          2   -1    0    0  501    0  0.00000000000E+00 -0.00000000000E+00 -0.11888932566E+04  0.11888932566E+04  0.25500000000E-02 0. -1.
    8880022    1    1    2    0    0  0.55441479489E+03 -0.77764131286E+03 -0.69130352066E+03  0.11888624760E+04  0.15294330000E+03 0.  0.
    8880022    1    1    2    0    0 -0.55441479489E+03  0.77764131286E+03  0.69115644166E+03  0.11887769581E+04  0.15294330000E+03 0.  0.
<mgrwt>
<rscale>  0 0.96720909E+03</rscale>
<asrwt>0</asrwt>
<pdfrwt beam="1">  1        2 0.18290665E+00 0.96720909E+03</pdfrwt>
<pdfrwt beam="2">  1       -2 0.18288403E+00 0.96720909E+03</pdfrwt>
<totfact> 0.33158800E+00</totfact>
</mgrwt>
</event>
<event>
 4    1  0.1033139E-008  0.8103070E+03  0.7818608E-02  0.9545217E-01
          2   -1    0    0  501    0  0.00000000000E+00  0.00000000000E+00  0.37174044245E+04  0.37174044245E+04  0.25500000000E-02 0. -1.
         -2   -1    0    0    0  501 -0.00000000000E+00 -0.00000000000E+00 -0.29159015973E+03  0.29159015974E+03  0.25500000000E-02 0.  1.
    8880022    1    1    2    0    0 -0.36436662908E+03  0.70741980667E+03  0.29715328954E+04  0.30800333155E+04  0.15294330000E+03 0.  0.
    8880022    1    1    2    0    0  0.36436662908E+03 -0.70741980667E+03  0.45428136943E+03  0.92896126877E+03  0.15294330000E+03 0.  0.
<mgrwt>
<rscale>  0 0.81030703E+03</rscale>
<asrwt>0</asrwt>
<pdfrwt beam="1">  1        2 0.57190838E+00 0.81030703E+03</pdfrwt>
<pdfrwt beam="2">  1       -2 0.44860024E-01 0.81030703E+03</pdfrwt>
<totfact> 0.28871610E+00</totfact>
</mgrwt>
</event>
<event>
 4    1  0.1033139E-008  0.1546288E+03  0.7818608E-02  0.1194898E+00
          2   -1    0    0  501    0  0.00000000000E+00  0.00000000000E+00  0.22771192728E+04  0.22771192728E+04  0.25500000000E-02 0. -1.
         -2   -1    0    0    0  501 -0.00000000000E+00 -0.00000000000E+00 -0.15107576444E+02  0.15107576659E+02  0.25500000000E-02 0.  1.
    8880022    1    1    2    0    0  0.20702701003E+02  0.94762228390E+01  0.49806920112E+03  0.52151987762E+03  0.15294330000E+03 0.  1.
    8880022    1    1    2    0    0 -0.20702701003E+02 -0.94762228390E+01  0.17639424953E+04  0.17707069719E+04  0.15294330000E+03 0.  0.
<mgrwt>
<rscale>  0 0.15462876E+03</rscale>
<asrwt>0</asrwt>
<pdfrwt beam="1">  1        2 0.35032583E+00 0.15462876E+03</pdfrwt>
<pdfrwt beam="2">  1       -2 0.23242440E-02 0.15462876E+03</pdfrwt>
<totfact> 0.32917153E+03</totfact>
</mgrwt>
</event>
<event>
 4    1  0.1033139E-008  0.6532628E+03  0.7818608E-02  0.9800676E-01
          2   -1    0    0  501    0  0.00000000000E+00  0.00000000000E+00  0.46711208696E+03  0.46711208697E+03  0.25500000000E-02 0. -1.
         -2   -1    0    0    0  501 -0.00000000000E+00 -0.00000000000E+00 -0.10027529045E+04  0.10027529045E+04  0.25500000000E-02 0.  1.
    8880022    1    1    2    0    0  0.63475718207E+03  0.21071203189E+02 -0.48678784299E+02  0.65507400562E+03  0.15294330000E+03 0.  1.
    8880022    1    1    2    0    0 -0.63475718207E+03 -0.21071203189E+02 -0.48696203324E+03  0.81479098585E+03  0.15294330000E+03 0. -1.
<mgrwt>
<rscale>  0 0.65326283E+03</rscale>
<asrwt>0</asrwt>
<pdfrwt beam="1">  1        2 0.71863398E-01 0.65326283E+03</pdfrwt>
<pdfrwt beam="2">  1       -2 0.15426968E+00 0.65326283E+03</pdfrwt>
<totfact> 0.18949360E+01</totfact>
</mgrwt>
</event>
<event>
 4    1  0.1033139E-008  0.1283992E+04  0.7818608E-02  0.9042357E-01
         -2   -1    0    0    0  501 -0.00000000000E+00  0.00000000000E+00  0.18529471909E+04  0.18529471910E+04  0.25500000000E-02 0.  1.
          2   -1    0    0  501    0  0.00000000000E+00 -0.00000000000E+00 -0.12941176296E+04  0.12941176296E+04  0.25500000000E-02 0. -1.
    8880022    1    1    2    0    0  0.11895337796E+04  0.45853268485E+03 -0.60018341845E+03  0.14173406876E+04  0.15294330000E+03 0.  0.
    8880022    1    1    2    0    0 -0.11895337796E+04 -0.45853268485E+03  0.11590129798E+04  0.17297241330E+04  0.15294330000E+03 0.  0.
<mgrwt>
<rscale>  0 0.12839916E+04</rscale>
<asrwt>0</asrwt>
<pdfrwt beam="1">  1        2 0.19909502E+00 0.12839916E+04</pdfrwt>
<pdfrwt beam="2">  1       -2 0.28506880E+00 0.12839916E+04</pdfrwt>
<totfact> 0.63057971E-01</totfact>
</mgrwt>
</event>
<event>
 4    1  0.1033139E-008  0.1611213E+04  0.7818608E-02  0.8813689E-01
          2   -1    0    0  501    0  0.00000000000E+00  0.00000000000E+00  0.26549665027E+04  0.26549665027E+04  0.25500000000E-02 0. -1.
         -2   -1    0    0    0  501 -0.00000000000E+00 -0.00000000000E+00 -0.16353325074E+04  0.16353325074E+04  0.25500000000E-02 0.  1.
    8880022    1    1    2    0    0  0.10358703671E+04  0.12245766734E+04 -0.85042295426E+03  0.18218743921E+04  0.15294330000E+03 0.  0.
    8880022    1    1    2    0    0 -0.10358703671E+04 -0.12245766734E+04  0.18700569496E+04  0.24684246179E+04  0.15294330000E+03 0.  0.
<mgrwt>
<rscale>  0 0.16112129E+04</rscale>
<asrwt>0</asrwt>
<pdfrwt beam="1">  1        2 0.40845638E+00 0.16112129E+04</pdfrwt>
<pdfrwt beam="2">  1       -2 0.25158962E+00 0.16112129E+04</pdfrwt>
<totfact> 0.16429710E-01</totfact>
</mgrwt>
</event>
<event>
 4    1  0.1033139E-008  0.5990155E+03  0.7818608E-02  0.9907451E-01
          2   -1    0    0  501    0  0.00000000000E+00  0.00000000000E+00  0.67881284246E+03  0.67881284247E+03  0.25500000000E-02 0. -1.
         -2   -1    0    0    0  501 -0.00000000000E+00 -0.00000000000E+00 -0.17865823768E+04  0.17865823768E+04  0.25500000000E-02 0.  1.
    8880022    1    1    2    0    0  0.57914278187E+03 -0.46395144064E+01  0.48050102262E+03  0.76791976966E+03  0.15294330000E+03 0.  0.
    8880022    1    1    2    0    0 -0.57914278187E+03  0.46395144064E+01 -0.15882705569E+04  0.16974754496E+04  0.15294330000E+03 0.  0.
<mgrwt>
<rscale>  0 0.59901548E+03</rscale>
<asrwt>0</asrwt>
<pdfrwt beam="1">  1        2 0.10443275E+00 0.59901548E+03</pdfrwt>
<pdfrwt beam="2">  1       -2 0.27485883E+00 0.59901548E+03</pdfrwt>
<totfact> 0.20534167E+00</totfact>
</mgrwt>
</event>
<event>
 4    1  0.1033139E-008  0.4792126E+03  0.7818608E-02  0.1019352E+00
          2   -1    0    0  501    0  0.00000000000E+00  0.00000000000E+00  0.10724493614E+04  0.10724493614E+04  0.25500000000E-02 0. -1.
         -2   -1    0    0    0  501 -0.00000000000E+00 -0.00000000000E+00 -0.41839693953E+03  0.41839693954E+03  0.25500000000E-02 0.  1.
    8880022    1    1    2    0    0  0.12849411680E+03 -0.43559427254E+03 -0.19381638962E+03  0.51692316085E+03  0.15294330000E+03 0.  0.
    8880022    1    1    2    0    0 -0.12849411680E+03  0.43559427254E+03  0.84786881152E+03  0.97392314014E+03  0.15294330000E+03 0.  0.
<mgrwt>
<rscale>  0 0.47921265E+03</rscale>
<asrwt>0</asrwt>
<pdfrwt beam="1">  1        2 0.16499221E+00 0.47921265E+03</pdfrwt>
<pdfrwt beam="2">  1       -2 0.64368760E-01 0.47921265E+03</pdfrwt>
<totfact> 0.52900138E+01</totfact>
</mgrwt>
</event>
<event>
 4    1  0.1033139E-008  0.1137221E+04  0.7818608E-02  0.9169654E-01
          2   -1    0    0  501    0  0.00000000000E+00  0.00000000000E+00  0.17993931507E+04  0.17993931507E+04  0.25500000000E-02 0. -1.
         -2   -1    0    0    0  501 -0.00000000000E+00 -0.00000000000E+00 -0.99423053468E+03  0.99423053468E+03  0.25500000000E-02 0.  1.
    8880022    1    1    2    0    0  0.10531839509E+04  0.40085316536E+03 -0.33270829738E+03  0.11848907793E+04  0.15294330000E+03 0.  0.
    8880022    1    1    2    0    0 -0.10531839509E+04 -0.40085316536E+03  0.11378709134E+04  0.16087329061E+04  0.15294330000E+03 0.  0.
<mgrwt>
<rscale>  0 0.11372209E+04</rscale>
<asrwt>0</asrwt>
<pdfrwt beam="1">  1        2 0.27682971E+00 0.11372209E+04</pdfrwt>
<pdfrwt beam="2">  1       -2 0.15295855E+00 0.11372209E+04</pdfrwt>
<totfact> 0.24045128E+00</totfact>
</mgrwt>
</event>
<event>
 4    1  0.1033139E-008  0.1122061E+04  0.7818608E-02  0.9183952E-01
          2   -1    0    0  501    0  0.00000000000E+00  0.00000000000E+00  0.31152255489E+04  0.31152255489E+04  0.25500000000E-02 0. -1.
         -2   -1    0    0    0  501 -0.00000000000E+00 -0.00000000000E+00 -0.47183525826E+03  0.47183525827E+03  0.25500000000E-02 0.  1.
    8880022    1    1    2    0    0 -0.86724596322E+03 -0.69535200679E+03  0.20009883581E+04  0.22941177033E+04  0.15294330000E+03 0.  0.
    8880022    1    1    2    0    0  0.86724596322E+03  0.69535200679E+03  0.64240193254E+03  0.12929431039E+04  0.15294330000E+03 0.  0.
<mgrwt>
<rscale>  0 0.11220613E+04</rscale>
<asrwt>0</asrwt>
<pdfrwt beam="1">  1        2 0.47926547E+00 0.11220613E+04</pdfrwt>
<pdfrwt beam="2">  1       -2 0.72590039E-01 0.11220613E+04</pdfrwt>
<totfact> 0.25430832E+00</totfact>
</mgrwt>
</event>
<event>
 4    1  0.1033139E-008  0.5825474E+03  0.7818608E-02  0.9942291E-01
         -2   -1    0    0    0  501 -0.00000000000E+00  0.00000000000E+00  0.11000448765E+04  0.11000448765E+04  0.25500000000E-02 0.  1.
          2   -1    0    0  501    0  0.00000000000E+00 -0.00000000000E+00 -0.18126827367E+04  0.18126827367E+04  0.25500000000E-02 0. -1.
    8880022    1    1    2    0    0 -0.56210147875E+03 -0.34240599493E+01  0.97034093954E+03  0.11317786836E+04  0.15294330000E+03 0.  0.
    8880022    1    1    2    0    0  0.56210147875E+03  0.34240599493E+01 -0.16829787997E+04  0.17809489296E+04  0.15294330000E+03 0.  0.
<mgrwt>
<rscale>  0 0.58254738E+03</rscale>
<asrwt>0</asrwt>
<pdfrwt beam="1">  1        2 0.27887427E+00 0.58254738E+03</pdfrwt>
<pdfrwt beam="2">  1       -2 0.16923767E+00 0.58254738E+03</pdfrwt>
<totfact> 0.19639054E+00</totfact>
</mgrwt>
</event>
<event>
 4    1  0.1033139E-008  0.1116539E+04  0.7818608E-02  0.9189220E-01
         -2   -1    0    0    0  501 -0.00000000000E+00  0.00000000000E+00  0.59969357676E+03  0.59969357677E+03  0.25500000000E-02 0.  1.
          2   -1    0    0  501    0  0.00000000000E+00 -0.00000000000E+00 -0.22605511309E+04  0.22605511309E+04  0.25500000000E-02 0. -1.
    8880022    1    1    2    0    0 -0.10768073995E+04  0.25249459386E+03 -0.42494635655E+03  0.11946709817E+04  0.15294330000E+03 0.  0.
    8880022    1    1    2    0    0  0.10768073995E+04 -0.25249459386E+03 -0.12359111976E+04  0.16655737260E+04  0.15294330000E+03 0.  0.
<mgrwt>
<rscale>  0 0.11165390E+04</rscale>
<asrwt>0</asrwt>
<pdfrwt beam="1">  1        2 0.34777709E+00 0.11165390E+04</pdfrwt>
<pdfrwt beam="2">  1       -2 0.92260551E-01 0.11165390E+04</pdfrwt>
<totfact> 0.47196932E+00</totfact>
</mgrwt>
</event>
<event>
 4    1  0.1033139E-008  0.4832348E+03  0.7818608E-02  0.1018250E+00
          2   -1    0    0  501    0  0.00000000000E+00  0.00000000000E+00  0.13193725855E+04  0.13193725855E+04  0.25500000000E-02 0. -1.
         -2   -1    0    0    0  501 -0.00000000000E+00 -0.00000000000E+00 -0.13042527834E+04  0.13042527834E+04  0.25500000000E-02 0.  1.
    8880022    1    1    2    0    0 -0.27634127387E+03 -0.36573178511E+03 -0.12120010331E+04  0.13047844249E+04  0.15294330000E+03 0.  0.
    8880022    1    1    2    0    0  0.27634127387E+03  0.36573178511E+03  0.12271208352E+04  0.13188409440E+04  0.15294330000E+03 0.  0.
<mgrwt>
<rscale>  0 0.48323482E+03</rscale>
<asrwt>0</asrwt>
<pdfrwt beam="1">  1        2 0.20298040E+00 0.48323482E+03</pdfrwt>
<pdfrwt beam="2">  1       -2 0.20065427E+00 0.48323482E+03</pdfrwt>
<totfact> 0.23089458E+00</totfact>
</mgrwt>
</event>
<event>
 4    1  0.1033139E-008  0.6715601E+03  0.7818608E-02  0.9767144E-01
          2   -1    0    0  501    0  0.00000000000E+00  0.00000000000E+00  0.14450155991E+04  0.14450155991E+04  0.25500000000E-02 0. -1.
         -2   -1    0    0    0  501 -0.00000000000E+00 -0.00000000000E+00 -0.81499555799E+03  0.81499555799E+03  0.25500000000E-02 0.  1.
    8880022    1    1    2    0    0 -0.53850011615E+03  0.37097028430E+03 -0.57263799658E+03  0.88255722481E+03  0.15294330000E+03 0.  0.
    8880022    1    1    2    0    0  0.53850011615E+03 -0.37097028430E+03  0.12026580377E+04  0.13774539323E+04  0.15294330000E+03 0.  0.
<mgrwt>
<rscale>  0 0.67156011E+03</rscale>
<asrwt>0</asrwt>
<pdfrwt beam="1">  1        2 0.22231009E+00 0.67156011E+03</pdfrwt>
<pdfrwt beam="2">  1       -2 0.12538393E+00 0.67156011E+03</pdfrwt>
<totfact> 0.67258495E+00</totfact>
</mgrwt>
</event>
<event>
 4    1  0.1033139E-008  0.1244866E+04  0.7818608E-02  0.9074467E-01
          2   -1    0    0  501    0  0.00000000000E+00  0.00000000000E+00  0.35667166421E+04  0.35667166421E+04  0.25500000000E-02 0. -1.
         -2   -1    0    0    0  501 -0.00000000000E+00 -0.00000000000E+00 -0.54789316228E+03  0.54789316229E+03  0.25500000000E-02 0.  1.
    8880022    1    1    2    0    0  0.70604386415E+02  0.12334158429E+04  0.24453979382E+04  0.27440230228E+04  0.15294330000E+03 0.  0.
    8880022    1    1    2    0    0 -0.70604386415E+02 -0.12334158429E+04  0.57342554168E+03  0.13705867816E+04  0.15294330000E+03 0.  0.
<mgrwt>
<rscale>  0 0.12448660E+04</rscale>
<asrwt>0</asrwt>
<pdfrwt beam="1">  1        2 0.54872565E+00 0.12448660E+04</pdfrwt>
<pdfrwt beam="2">  1       -2 0.84291253E-01 0.12448660E+04</pdfrwt>
<totfact> 0.89382672E-01</totfact>
</mgrwt>
</event>
<event>
 4    1  0.1033139E-008  0.7758692E+03  0.7818608E-02  0.9595618E-01
         -2   -1    0    0    0  501 -0.00000000000E+00  0.00000000000E+00  0.10232781884E+04  0.10232781884E+04  0.25500000000E-02 0.  1.
          2   -1    0    0  501    0  0.00000000000E+00 -0.00000000000E+00 -0.15266844607E+04  0.15266844607E+04  0.25500000000E-02 0. -1.
    8880022    1    1    2    0    0 -0.72037045851E+03  0.24422880593E+03  0.74789276982E+03  0.10776439836E+04  0.15294330000E+03 0.  0.
    8880022    1    1    2    0    0  0.72037045851E+03 -0.24422880593E+03 -0.12512990421E+04  0.14723186655E+04  0.15294330000E+03 0.  0.
<mgrwt>
<rscale>  0 0.77586916E+03</rscale>
<asrwt>0</asrwt>
<pdfrwt beam="1">  1        2 0.23487453E+00 0.77586916E+03</pdfrwt>
<pdfrwt beam="2">  1       -2 0.15742741E+00 0.77586916E+03</pdfrwt>
<totfact> 0.33035050E+00</totfact>
</mgrwt>
</event>
<event>
 4    1  0.1033139E-008  0.3755092E+03  0.7818608E-02  0.1052606E+00
          2   -1    0    0  501    0  0.00000000000E+00  0.00000000000E+00  0.34387085308E+04  0.34387085308E+04  0.25500000000E-02 0. -1.
         -2   -1    0    0    0  501 -0.00000000000E+00 -0.00000000000E+00 -0.23520813077E+03  0.23520813079E+03  0.25500000000E-02 0.  1.
    8880022    1    1    2    0    0  0.11821673247E+03  0.32193217530E+03  0.32709191606E+04  0.32924032757E+04  0.15294330000E+03 0.  0.
    8880022    1    1    2    0    0 -0.11821673247E+03 -0.32193217530E+03 -0.67418760603E+02  0.38151338590E+03  0.15294330000E+03 0.  1.
<mgrwt>
<rscale>  0 0.37550922E+03</rscale>
<asrwt>0</asrwt>
<pdfrwt beam="1">  1        2 0.52903204E+00 0.37550922E+03</pdfrwt>
<pdfrwt beam="2">  1       -2 0.36185869E-01 0.37550922E+03</pdfrwt>
<totfact> 0.77279198E+00</totfact>
</mgrwt>
</event>
<event>
 4    1  0.1033139E-008  0.7811336E+03  0.7818608E-02  0.9587734E-01
         -2   -1    0    0    0  501 -0.00000000000E+00  0.00000000000E+00  0.97387139104E+03  0.97387139104E+03  0.25500000000E-02 0.  1.
          2   -1    0    0  501    0  0.00000000000E+00 -0.00000000000E+00 -0.21958735311E+04  0.21958735311E+04  0.25500000000E-02 0. -1.
    8880022    1    1    2    0    0  0.12809790591E+03 -0.75522774680E+03  0.72882444007E+03  0.10683420522E+04  0.15294330000E+03 0.  0.
    8880022    1    1    2    0    0 -0.12809790591E+03  0.75522774680E+03 -0.19508265802E+04  0.21014028700E+04  0.15294330000E+03 0.  0.
<mgrwt>
<rscale>  0 0.78113358E+03</rscale>
<asrwt>0</asrwt>
<pdfrwt beam="1">  1        2 0.33782670E+00 0.78113358E+03</pdfrwt>
<pdfrwt beam="2">  1       -2 0.14982637E+00 0.78113358E+03</pdfrwt>
<totfact> 0.16181229E+00</totfact>
</mgrwt>
</event>
<event>
 4    1  0.1033139E-008  0.4051874E+03  0.7818608E-02  0.1041998E+00
          2   -1    0    0  501    0  0.00000000000E+00  0.00000000000E+00  0.10943848011E+04  0.10943848011E+04  0.25500000000E-02 0. -1.
         -2   -1    0    0    0  501 -0.00000000000E+00 -0.00000000000E+00 -0.21438140762E+03  0.21438140764E+03  0.25500000000E-02 0.  1.
    8880022    1    1    2    0    0 -0.34050960777E+03 -0.15760208871E+03  0.81443427151E+02  0.41329153898E+03  0.15294330000E+03 0.  0.
    8880022    1    1    2    0    0  0.34050960777E+03  0.15760208871E+03  0.79855996631E+03  0.89547466975E+03  0.15294330000E+03 0.  1.
<mgrwt>
<rscale>  0 0.40518744E+03</rscale>
<asrwt>0</asrwt>
<pdfrwt beam="1">  1        2 0.16836689E+00 0.40518744E+03</pdfrwt>
<pdfrwt beam="2">  1       -2 0.32981755E-01 0.40518744E+03</pdfrwt>
<totfact> 0.19599939E+02</totfact>
</mgrwt>
</event>
<event>
 4    1  0.1033139E-008  0.6971271E+03  0.7818608E-02  0.9722158E-01
         -2   -1    0    0    0  501 -0.00000000000E+00  0.00000000000E+00  0.20679753849E+03  0.20679753850E+03  0.25500000000E-02 0.  1.
          2   -1    0    0  501    0  0.00000000000E+00 -0.00000000000E+00 -0.24828845946E+04  0.24828845946E+04  0.25500000000E-02 0. -1.
    8880022    1    1    2    0    0 -0.59102579736E+03 -0.33657549906E+03 -0.82698995753E+03  0.10816185107E+04  0.15294330000E+03 0.  0.
    8880022    1    1    2    0    0  0.59102579736E+03  0.33657549906E+03 -0.14490970986E+04  0.16080636224E+04  0.15294330000E+03 0.  0.
<mgrwt>
<rscale>  0 0.69712711E+03</rscale>
<asrwt>0</asrwt>
<pdfrwt beam="1">  1        2 0.38198222E+00 0.69712711E+03</pdfrwt>
<pdfrwt beam="2">  1       -2 0.31815008E-01 0.69712711E+03</pdfrwt>
<totfact> 0.34352547E+01</totfact>
</mgrwt>
</event>
<event>
 4    1  0.1033139E-008  0.9262034E+03  0.7818608E-02  0.9393406E-01
         -2   -1    0    0    0  501 -0.00000000000E+00  0.00000000000E+00  0.10804882894E+04  0.10804882894E+04  0.25500000000E-02 0.  1.
          2   -1    0    0  501    0  0.00000000000E+00 -0.00000000000E+00 -0.24000342854E+04  0.24000342854E+04  0.25500000000E-02 0. -1.
    8880022    1    1    2    0    0  0.47402424869E+03  0.78087264805E+03  0.76383369398E+03  0.12005393146E+04  0.15294330000E+03 0.  0.
    8880022    1    1    2    0    0 -0.47402424869E+03 -0.78087264805E+03 -0.20833796900E+04  0.22799832601E+04  0.15294330000E+03 0.  0.
<mgrwt>
<rscale>  0 0.92620340E+03</rscale>
<asrwt>0</asrwt>
<pdfrwt beam="1">  1        2 0.36923604E+00 0.92620340E+03</pdfrwt>
<pdfrwt beam="2">  1       -2 0.16622897E+00 0.92620340E+03</pdfrwt>
<totfact> 0.91615768E-01</totfact>
</mgrwt>
</event>
<event>
 4    1  0.1033139E-008  0.6887693E+03  0.7818608E-02  0.9736633E-01
          2   -1    0    0  501    0  0.00000000000E+00  0.00000000000E+00  0.16184143180E+04  0.16184143180E+04  0.25500000000E-02 0. -1.
         -2   -1    0    0    0  501 -0.00000000000E+00 -0.00000000000E+00 -0.86123119111E+03  0.86123119112E+03  0.25500000000E-02 0.  1.
    8880022    1    1    2    0    0  0.44522532740E+02 -0.67009643068E+03 -0.62837072060E+03  0.93233733050E+03  0.15294330000E+03 0.  0.
    8880022    1    1    2    0    0 -0.44522532740E+02  0.67009643068E+03  0.13855538475E+04  0.15473081787E+04  0.15294330000E+03 0.  0.
<mgrwt>
<rscale>  0 0.68876929E+03</rscale>
<asrwt>0</asrwt>
<pdfrwt beam="1">  1        2 0.24898682E+00 0.68876929E+03</pdfrwt>
<pdfrwt beam="2">  1       -2 0.13249711E+00 0.68876929E+03</pdfrwt>
<totfact> 0.46791324E+00</totfact>
</mgrwt>
</event>
<event>
 4    1  0.1033139E-008  0.2686387E+03  0.7818608E-02  0.1102061E+00
          2   -1    0    0  501    0  0.00000000000E+00  0.00000000000E+00  0.17374838166E+04  0.17374838166E+04  0.25500000000E-02 0. -1.
         -2   -1    0    0    0  501 -0.00000000000E+00 -0.00000000000E+00 -0.41720922196E+03  0.41720922197E+03  0.25500000000E-02 0.  1.
    8880022    1    1    2    0    0  0.21774674036E+03 -0.36897570547E+02 -0.36217609256E+03  0.45093042555E+03  0.15294330000E+03 0.  0.
    8880022    1    1    2    0    0 -0.21774674036E+03  0.36897570547E+02  0.16824506872E+04  0.17037626131E+04  0.15294330000E+03 0. -1.
<mgrwt>
<rscale>  0 0.26863865E+03</rscale>
<asrwt>0</asrwt>
<pdfrwt beam="1">  1        2 0.26730521E+00 0.26863865E+03</pdfrwt>
<pdfrwt beam="2">  1       -2 0.64186033E-01 0.26863865E+03</pdfrwt>
<totfact> 0.23848721E+01</totfact>
</mgrwt>
</event>
<event>
 4    1  0.1033139E-008  0.2912599E+03  0.7818608E-02  0.1089693E+00
          2   -1    0    0  501    0  0.00000000000E+00  0.00000000000E+00  0.19238797940E+04  0.19238797940E+04  0.25500000000E-02 0. -1.
         -2   -1    0    0    0  501 -0.00000000000E+00 -0.00000000000E+00 -0.58383320964E+03  0.58383320965E+03  0.25500000000E-02 0.  1.
    8880022    1    1    2    0    0 -0.24340946055E+03 -0.46824173328E+02  0.18756011503E+04  0.18980811354E+04  0.15294330000E+03 0.  0.
    8880022    1    1    2    0    0  0.24340946055E+03  0.46824173328E+02 -0.53555456591E+03  0.60963186824E+03  0.15294330000E+03 0.  1.
<mgrwt>
<rscale>  0 0.29125989E+03</rscale>
<asrwt>0</asrwt>
<pdfrwt beam="1">  1        2 0.29598150E+00 0.29125989E+03</pdfrwt>
<pdfrwt beam="2">  1       -2 0.89820494E-01 0.29125989E+03</pdfrwt>
<totfact> 0.90355213E+00</totfact>
</mgrwt>
</event>
<event>
 4    1  0.1033139E-008  0.1509822E+04  0.7818608E-02  0.8877947E-01
         -2   -1    0    0    0  501 -0.00000000000E+00  0.00000000000E+00  0.21613601308E+04  0.21613601308E+04  0.25500000000E-02 0.  1.
          2   -1    0    0  501    0  0.00000000000E+00 -0.00000000000E+00 -0.16040658573E+04  0.16040658573E+04  0.25500000000E-02 0. -1.
    8880022    1    1    2    0    0  0.14587182544E+04 -0.35820719697E+03 -0.82316654038E+03  0.17196412846E+04  0.15294330000E+03 0.  0.
    8880022    1    1    2    0    0 -0.14587182544E+04  0.35820719697E+03  0.13804608139E+04  0.20457847036E+04  0.15294330000E+03 0.  0.
<mgrwt>
<rscale>  0 0.15098222E+04</rscale>
<asrwt>0</asrwt>
<pdfrwt beam="1">  1        2 0.24677936E+00 0.15098222E+04</pdfrwt>
<pdfrwt beam="2">  1       -2 0.33251694E+00 0.15098222E+04</pdfrwt>
<totfact> 0.20874718E-01</totfact>
</mgrwt>
</event>
<event>
 4    1  0.1033139E-008  0.7031716E+03  0.7818608E-02  0.9711824E-01
         -2   -1    0    0    0  501 -0.00000000000E+00  0.00000000000E+00  0.69376323953E+03  0.69376323953E+03  0.25500000000E-02 0.  1.
          2   -1    0    0  501    0  0.00000000000E+00 -0.00000000000E+00 -0.17475810538E+04  0.17475810538E+04  0.25500000000E-02 0. -1.
    8880022    1    1    2    0    0  0.16764643011E+03  0.66554733634E+03  0.41243370512E+03  0.81520046404E+03  0.15294330000E+03 0.  0.
    8880022    1    1    2    0    0 -0.16764643011E+03 -0.66554733634E+03 -0.14662515194E+04  0.16261438293E+04  0.15294330000E+03 0.  0.
<mgrwt>
<rscale>  0 0.70317155E+03</rscale>
<asrwt>0</asrwt>
<pdfrwt beam="1">  1        2 0.26885862E+00 0.70317155E+03</pdfrwt>
<pdfrwt beam="2">  1       -2 0.10673281E+00 0.70317155E+03</pdfrwt>
<totfact> 0.67658736E+00</totfact>
</mgrwt>
</event>
<event>
 4    1  0.1033139E-008  0.4340590E+03  0.7818608E-02  0.1032585E+00
          2   -1    0    0  501    0  0.00000000000E+00  0.00000000000E+00  0.17751749821E+04  0.17751749821E+04  0.25500000000E-02 0. -1.
         -2   -1    0    0    0  501 -0.00000000000E+00 -0.00000000000E+00 -0.67996572196E+03  0.67996572197E+03  0.25500000000E-02 0.  1.
    8880022    1    1    2    0    0 -0.36290045923E+03 -0.18253437533E+03 -0.58009903683E+03  0.72451507026E+03  0.15294330000E+03 0.  1.
    8880022    1    1    2    0    0  0.36290045923E+03  0.18253437533E+03  0.16753082969E+04  0.17306256338E+04  0.15294330000E+03 0.  0.
<mgrwt>
<rscale>  0 0.43405898E+03</rscale>
<asrwt>0</asrwt>
<pdfrwt beam="1">  1        2 0.27310384E+00 0.43405898E+03</pdfrwt>
<pdfrwt beam="2">  1       -2 0.10461011E+00 0.43405898E+03</pdfrwt>
<totfact> 0.72530255E+00</totfact>
</mgrwt>
</event>
<event>
 4    1  0.1033139E-008  0.1185845E+04  0.7818608E-02  0.9125337E-01
         -2   -1    0    0    0  501 -0.00000000000E+00  0.00000000000E+00  0.11012688983E+04  0.11012688983E+04  0.25500000000E-02 0.  1.
          2   -1    0    0  501    0  0.00000000000E+00 -0.00000000000E+00 -0.15777759958E+04  0.15777759958E+04  0.25500000000E-02 0. -1.
    8880022    1    1    2    0    0 -0.26223624209E+03 -0.11463284420E+04 -0.82319069937E+03  0.14435620264E+04  0.15294330000E+03 0.  0.
    8880022    1    1    2    0    0  0.26223624209E+03  0.11463284420E+04  0.34668360179E+03  0.12354828677E+04  0.15294330000E+03 0.  0.
<mgrwt>
<rscale>  0 0.11858450E+04</rscale>
<asrwt>0</asrwt>
<pdfrwt beam="1">  1        2 0.24273477E+00 0.11858450E+04</pdfrwt>
<pdfrwt beam="2">  1       -2 0.16942598E+00 0.11858450E+04</pdfrwt>
<totfact> 0.24006138E+00</totfact>
</mgrwt>
</event>
<event>
 4    1  0.1033139E-008  0.7257759E+03  0.7818608E-02  0.9674140E-01
          2   -1    0    0  501    0  0.00000000000E+00  0.00000000000E+00  0.11424277717E+04  0.11424277717E+04  0.25500000000E-02 0. -1.
         -2   -1    0    0    0  501 -0.00000000000E+00 -0.00000000000E+00 -0.10040070127E+04  0.10040070127E+04  0.25500000000E-02 0.  1.
    8880022    1    1    2    0    0  0.70880356851E+03 -0.30926564660E+02  0.85841578547E+03  0.11241122119E+04  0.15294330000E+03 0.  0.
    8880022    1    1    2    0    0 -0.70880356851E+03  0.30926564660E+02 -0.71999502647E+03  0.10223225725E+04  0.15294330000E+03 0.  0.
<mgrwt>
<rscale>  0 0.72577586E+03</rscale>
<asrwt>0</asrwt>
<pdfrwt beam="1">  1        2 0.17575812E+00 0.72577586E+03</pdfrwt>
<pdfrwt beam="2">  1       -2 0.15446262E+00 0.72577586E+03</pdfrwt>
<totfact> 0.58231225E+00</totfact>
</mgrwt>
</event>
<event>
 4    1  0.1033139E-008  0.1050091E+04  0.7818608E-02  0.9255250E-01
          2   -1    0    0  501    0  0.00000000000E+00  0.00000000000E+00  0.22153633344E+04  0.22153633344E+04  0.25500000000E-02 0. -1.
         -2   -1    0    0    0  501 -0.00000000000E+00 -0.00000000000E+00 -0.19015758939E+04  0.19015758939E+04  0.25500000000E-02 0.  1.
    8880022    1    1    2    0    0 -0.63886237483E+03 -0.81924008813E+03 -0.16117675737E+04  0.19236646851E+04  0.15294330000E+03 0.  0.
    8880022    1    1    2    0    0  0.63886237483E+03  0.81924008813E+03  0.19255550143E+04  0.21932745432E+04  0.15294330000E+03 0.  0.
<mgrwt>
<rscale>  0 0.10500910E+04</rscale>
<asrwt>0</asrwt>
<pdfrwt beam="1">  1        2 0.34082513E+00 0.10500910E+04</pdfrwt>
<pdfrwt beam="2">  1       -2 0.29255014E+00 0.10500910E+04</pdfrwt>
<totfact> 0.17919809E-01</totfact>
</mgrwt>
</event>
<event>
 4    1  0.1033139E-008  0.1179508E+04  0.7818608E-02  0.9130985E-01
          2   -1    0    0  501    0  0.00000000000E+00  0.00000000000E+00  0.21553909864E+04  0.21553909864E+04  0.25500000000E-02 0. -1.
         -2   -1    0    0    0  501 -0.00000000000E+00 -0.00000000000E+00 -0.96757804629E+03  0.96757804629E+03  0.25500000000E-02 0.  1.
    8880022    1    1    2    0    0 -0.10375072419E+04  0.53983833014E+03  0.14948468452E+04  0.19041547845E+04  0.15294330000E+03 0.  0.
    8880022    1    1    2    0    0  0.10375072419E+04 -0.53983833014E+03 -0.30703390509E+03  0.12188142482E+04  0.15294330000E+03 0.  0.
<mgrwt>
<rscale>  0 0.11795077E+04</rscale>
<asrwt>0</asrwt>
<pdfrwt beam="1">  1        2 0.33159861E+00 0.11795077E+04</pdfrwt>
<pdfrwt beam="2">  1       -2 0.14885816E+00 0.11795077E+04</pdfrwt>
<totfact> 0.16339780E+00</totfact>
</mgrwt>
</event>
<event>
 4    1  0.1033139E-008  0.1556623E+04  0.7818608E-02  0.8847648E-01
          2   -1    0    0  501    0  0.00000000000E+00  0.00000000000E+00  0.24010547252E+04  0.24010547252E+04  0.25500000000E-02 0. -1.
         -2   -1    0    0    0  501 -0.00000000000E+00 -0.00000000000E+00 -0.14515733033E+04  0.14515733033E+04  0.25500000000E-02 0.  1.
    8880022    1    1    2    0    0 -0.13839024181E+04 -0.69605893443E+03  0.15381883825E+04  0.21884010364E+04  0.15294330000E+03 0.  0.
    8880022    1    1    2    0    0  0.13839024181E+04  0.69605893443E+03 -0.58870696063E+03  0.16642269922E+04  0.15294330000E+03 0.  0.
<mgrwt>
<rscale>  0 0.15566231E+04</rscale>
<asrwt>0</asrwt>
<pdfrwt beam="1">  1        2 0.36939303E+00 0.15566231E+04</pdfrwt>
<pdfrwt beam="2">  1       -2 0.22331897E+00 0.15566231E+04</pdfrwt>
<totfact> 0.34852575E-01</totfact>
</mgrwt>
</event>
<event>
 4    1  0.1033139E-008  0.3498171E+03  0.7818608E-02  0.1062690E+00
          2   -1    0    0  501    0  0.00000000000E+00  0.00000000000E+00  0.17980256623E+04  0.17980256623E+04  0.25500000000E-02 0. -1.
         -2   -1    0    0    0  501 -0.00000000000E+00 -0.00000000000E+00 -0.10669581662E+03  0.10669581665E+03  0.25500000000E-02 0.  1.
    8880022    1    1    2    0    0 -0.29050131721E+03 -0.12078636533E+03  0.14187615800E+04  0.14612516673E+04  0.15294330000E+03 0.  0.
    8880022    1    1    2    0    0  0.29050131721E+03  0.12078636533E+03  0.27256826569E+03  0.44346981163E+03  0.15294330000E+03 0.  0.
<mgrwt>
<rscale>  0 0.34981712E+03</rscale>
<asrwt>0</asrwt>
<pdfrwt beam="1">  1        2 0.27661933E+00 0.34981712E+03</pdfrwt>
<pdfrwt beam="2">  1       -2 0.16414741E-01 0.34981712E+03</pdfrwt>
<totfact> 0.27673552E+02</totfact>
</mgrwt>
</event>
<event>
 4    1  0.1033139E-008  0.1956115E+04  0.7818608E-02  0.8627417E-01
         -2   -1    0    0    0  501 -0.00000000000E+00  0.00000000000E+00  0.26250336393E+04  0.26250336393E+04  0.25500000000E-02 0.  1.
          2   -1    0    0  501    0  0.00000000000E+00 -0.00000000000E+00 -0.16012679085E+04  0.16012679085E+04  0.25500000000E-02 0. -1.
    8880022    1    1    2    0    0 -0.44450090729E+03  0.18987929463E+04  0.11447298384E+04  0.22664495947E+04  0.15294330000E+03 0.  0.
    8880022    1    1    2    0    0  0.44450090729E+03 -0.18987929463E+04 -0.12096410752E+03  0.19598519531E+04  0.15294330000E+03 0.  0.
<mgrwt>
<rscale>  0 0.19561154E+04</rscale>
<asrwt>0</asrwt>
<pdfrwt beam="1">  1        2 0.24634891E+00 0.19561154E+04</pdfrwt>
<pdfrwt beam="2">  1       -2 0.40385132E+00 0.19561154E+04</pdfrwt>
<totfact> 0.69829082E-02</totfact>
</mgrwt>
</event>
<event>
 4    1  0.1033139E-008  0.2553156E+03  0.7818608E-02  0.1109991E+00
         -2   -1    0    0    0  501 -0.00000000000E+00  0.00000000000E+00  0.48273171615E+03  0.48273171615E+03  0.25500000000E-02 0.  1.
          2   -1    0    0  501    0  0.00000000000E+00 -0.00000000000E+00 -0.17796866357E+03  0.17796866359E+03  0.25500000000E-02 0. -1.
    8880022    1    1    2    0    0  0.20243700262E+03  0.28524636367E+02  0.31463644917E+03  0.40519395735E+03  0.15294330000E+03 0.  0.
    8880022    1    1    2    0    0 -0.20243700262E+03 -0.28524636367E+02 -0.98733965913E+01  0.25550642240E+03  0.15294330000E+03 0.  0.
<mgrwt>
<rscale>  0 0.25531558E+03</rscale>
<asrwt>0</asrwt>
<pdfrwt beam="1">  1        2 0.27379794E-01 0.25531558E+03</pdfrwt>
<pdfrwt beam="2">  1       -2 0.74266418E-01 0.25531558E+03</pdfrwt>
<totfact> 0.32720465E+02</totfact>
</mgrwt>
</event>
<event>
 4    1  0.1033139E-008  0.1310787E+04  0.7818608E-02  0.9021055E-01
         -2   -1    0    0    0  501 -0.00000000000E+00  0.00000000000E+00  0.16016493988E+04  0.16016493989E+04  0.25500000000E-02 0.  1.
          2   -1    0    0  501    0  0.00000000000E+00 -0.00000000000E+00 -0.18314447295E+04  0.18314447295E+04  0.25500000000E-02 0. -1.
    8880022    1    1    2    0    0 -0.11136770487E+04  0.67416104100E+03 -0.12197233985E+04  0.17904989528E+04  0.15294330000E+03 0.  0.
    8880022    1    1    2    0    0  0.11136770487E+04 -0.67416104100E+03  0.98992806789E+03  0.16425951755E+04  0.15294330000E+03 0.  0.
<mgrwt>
<rscale>  0 0.13107865E+04</rscale>
<asrwt>0</asrwt>
<pdfrwt beam="1">  1        2 0.28176073E+00 0.13107865E+04</pdfrwt>
<pdfrwt beam="2">  1       -2 0.24640760E+00 0.13107865E+04</pdfrwt>
<totfact> 0.53718904E-01</totfact>
</mgrwt>
</event>
<event>
 4    1  0.1033139E-008  0.8740950E+03  0.7818608E-02  0.9458556E-01
          2   -1    0    0  501    0  0.00000000000E+00  0.00000000000E+00  0.20472850866E+04  0.20472850866E+04  0.25500000000E-02 0. -1.
         -2   -1    0    0    0  501 -0.00000000000E+00 -0.00000000000E+00 -0.10993338642E+04  0.10993338642E+04  0.25500000000E-02 0.  1.
    8880022    1    1    2    0    0 -0.17174302320E+03 -0.84329990678E+03  0.17526453682E+04  0.19585218504E+04  0.15294330000E+03 0.  0.
    8880022    1    1    2    0    0  0.17174302320E+03  0.84329990678E+03 -0.80469414578E+03  0.11880971004E+04  0.15294330000E+03 0.  0.
<mgrwt>
<rscale>  0 0.87409499E+03</rscale>
<asrwt>0</asrwt>
<pdfrwt beam="1">  1        2 0.31496693E+00 0.87409499E+03</pdfrwt>
<pdfrwt beam="2">  1       -2 0.16912829E+00 0.87409499E+03</pdfrwt>
<totfact> 0.13837582E+00</totfact>
</mgrwt>
</event>
<event>
 4    1  0.1300235E-008  0.1703930E+04  0.7818608E-02  0.8759126E-01
          2   -1    0    0  501    0  0.00000000000E+00  0.00000000000E+00  0.26836109942E+04  0.26836109942E+04  0.25500000000E-02 0. -1.
         -2   -1    0    0    0  501 -0.00000000000E+00 -0.00000000000E+00 -0.20283037360E+04  0.20283037360E+04  0.25500000000E-02 0.  1.
    8880022    1    1    2    0    0 -0.16171537425E+04  0.51458668763E+03 -0.12816610918E+04  0.21321427000E+04  0.15294330000E+03 0.  0.
    8880022    1    1    2    0    0  0.16171537425E+04 -0.51458668763E+03  0.19369683501E+04  0.25797720302E+04  0.15294330000E+03 0.  0.
<mgrwt>
<rscale>  0 0.17039300E+04</rscale>
<asrwt>0</asrwt>
<pdfrwt beam="1">  1        2 0.41286323E+00 0.17039300E+04</pdfrwt>
<pdfrwt beam="2">  1       -2 0.31204673E+00 0.17039300E+04</pdfrwt>
<totfact> 0.66595955E-02</totfact>
</mgrwt>
</event>
<event>
 4    1  0.1033139E-008  0.5578156E+03  0.7818608E-02  0.9997009E-01
         -2   -1    0    0    0  501 -0.00000000000E+00  0.00000000000E+00  0.14581092659E+03  0.14581092662E+03  0.25500000000E-02 0.  1.
          2   -1    0    0  501    0  0.00000000000E+00 -0.00000000000E+00 -0.23582955810E+04  0.23582955810E+04  0.25500000000E-02 0. -1.
    8880022    1    1    2    0    0  0.47411848724E+03 -0.25095467468E+03 -0.72009845226E+03  0.91087870907E+03  0.15294330000E+03 0.  0.
    8880022    1    1    2    0    0 -0.47411848724E+03  0.25095467468E+03 -0.14923862022E+04  0.15932277986E+04  0.15294330000E+03 0.  0.
<mgrwt>
<rscale>  0 0.55781560E+03</rscale>
<asrwt>0</asrwt>
<pdfrwt beam="1">  1        2 0.36281468E+00 0.55781560E+03</pdfrwt>
<pdfrwt beam="2">  1       -2 0.22432452E-01 0.55781560E+03</pdfrwt>
<totfact> 0.77803957E+01</totfact>
</mgrwt>
</event>
<event>
 4    1  0.1033139E-008  0.1929615E+04  0.7818608E-02  0.8640254E-01
         -2   -1    0    0    0  501 -0.00000000000E+00  0.00000000000E+00  0.15500322540E+04  0.15500322540E+04  0.25500000000E-02 0.  1.
          2   -1    0    0  501    0  0.00000000000E+00 -0.00000000000E+00 -0.26846430000E+04  0.26846430000E+04  0.25500000000E-02 0. -1.
    8880022    1    1    2    0    0  0.15870601133E+04 -0.10868598391E+04 -0.12541331012E+04  0.23013616842E+04  0.15294330000E+03 0.  0.
    8880022    1    1    2    0    0 -0.15870601133E+04  0.10868598391E+04  0.11952235524E+03  0.19333135699E+04  0.15294330000E+03 0.  0.
<mgrwt>
<rscale>  0 0.19296154E+04</rscale>
<asrwt>0</asrwt>
<pdfrwt beam="1">  1        2 0.41302200E+00 0.19296154E+04</pdfrwt>
<pdfrwt beam="2">  1       -2 0.23846650E+00 0.19296154E+04</pdfrwt>
<totfact> 0.18399720E-01</totfact>
</mgrwt>
</event>
<event>
 4    1  0.1033139E-008  0.5346476E+03  0.7818608E-02  0.1005111E+00
         -2   -1    0    0    0  501 -0.00000000000E+00  0.00000000000E+00  0.33794271668E+03  0.33794271669E+03  0.25500000000E-02 0.  1.
          2   -1    0    0  501    0  0.00000000000E+00 -0.00000000000E+00 -0.13218689404E+04  0.13218689404E+04  0.25500000000E-02 0. -1.
    8880022    1    1    2    0    0 -0.42324903007E+03 -0.28864630020E+03 -0.98998423799E+03  0.11251297137E+04  0.15294330000E+03 0.  0.
    8880022    1    1    2    0    0  0.42324903007E+03  0.28864630020E+03  0.60580142763E+01  0.53468194342E+03  0.15294330000E+03 0.  0.
<mgrwt>
<rscale>  0 0.53464762E+03</rscale>
<asrwt>0</asrwt>
<pdfrwt beam="1">  1        2 0.20336445E+00 0.53464762E+03</pdfrwt>
<pdfrwt beam="2">  1       -2 0.51991188E-01 0.53464762E+03</pdfrwt>
<totfact> 0.58539141E+01</totfact>
</mgrwt>
</event>
<event>
 4    1  0.1033139E-008  0.1212472E+04  0.7818608E-02  0.9102010E-01
         -2   -1    0    0    0  501 -0.00000000000E+00  0.00000000000E+00  0.13162159410E+04  0.13162159410E+04  0.25500000000E-02 0.  1.
          2   -1    0    0  501    0  0.00000000000E+00 -0.00000000000E+00 -0.24616797628E+04  0.24616797628E+04  0.25500000000E-02 0. -1.
    8880022    1    1    2    0    0  0.58913810929E+03 -0.10486240587E+04  0.82340822767E+03  0.14656360021E+04  0.15294330000E+03 0.  0.
    8880022    1    1    2    0    0 -0.58913810929E+03  0.10486240587E+04 -0.19688720494E+04  0.23122597017E+04  0.15294330000E+03 0.  0.
<mgrwt>
<rscale>  0 0.12124718E+04</rscale>
<asrwt>0</asrwt>
<pdfrwt beam="1">  1        2 0.37871996E+00 0.12124718E+04</pdfrwt>
<pdfrwt beam="2">  1       -2 0.20249476E+00 0.12124718E+04</pdfrwt>
<totfact> 0.45687632E-01</totfact>
</mgrwt>
</event>
<event>
 4    1  0.1033139E-008  0.5454530E+03  0.7818608E-02  0.1002552E+00
         -2   -1    0    0    0  501 -0.00000000000E+00  0.00000000000E+00  0.12239218927E+04  0.12239218927E+04  0.25500000000E-02 0.  1.
          2   -1    0    0  501    0  0.00000000000E+00 -0.00000000000E+00 -0.54413199608E+03  0.54413199608E+03  0.25500000000E-02 0. -1.
    8880022    1    1    2    0    0 -0.12118555807E+03  0.50935388514E+03  0.99744586556E+03  0.11368452962E+04  0.15294330000E+03 0.  0.
    8880022    1    1    2    0    0  0.12118555807E+03 -0.50935388514E+03 -0.31765596889E+03  0.63120859261E+03  0.15294330000E+03 0.  0.
<mgrwt>
<rscale>  0 0.54545300E+03</rscale>
<asrwt>0</asrwt>
<pdfrwt beam="1">  1        2 0.83712615E-01 0.54545300E+03</pdfrwt>
<pdfrwt beam="2">  1       -2 0.18829568E+00 0.54545300E+03</pdfrwt>
<totfact> 0.92724175E+00</totfact>
</mgrwt>
</event>
<event>
 4    1  0.1033139E-008  0.9657868E+03  0.7818608E-02  0.9346886E-01
          2   -1    0    0  501    0  0.00000000000E+00  0.00000000000E+00  0.18293930546E+04  0.18293930546E+04  0.25500000000E-02 0. -1.
         -2   -1    0    0    0  501 -0.00000000000E+00 -0.00000000000E+00 -0.56914781469E+03  0.56914781469E+03  0.25500000000E-02 0.  1.
    8880022    1    1    2    0    0 -0.91437791797E+03 -0.27067602531E+03  0.24307206407E+03  0.99590570281E+03  0.15294330000E+03 0.  0.
    8880022    1    1    2    0    0  0.91437791797E+03  0.27067602531E+03  0.10171731758E+04  0.14026351664E+04  0.15294330000E+03 0.  0.
<mgrwt>
<rscale>  0 0.96578680E+03</rscale>
<asrwt>0</asrwt>
<pdfrwt beam="1">  1        2 0.28144508E+00 0.96578680E+03</pdfrwt>
<pdfrwt beam="2">  1       -2 0.87561203E-01 0.96578680E+03</pdfrwt>
<totfact> 0.93866357E+00</totfact>
</mgrwt>
</event>
<event>
 4    1  0.1033139E-008  0.1197619E+04  0.7818608E-02  0.9114943E-01
          2   -1    0    0  501    0  0.00000000000E+00  0.00000000000E+00  0.12635487543E+04  0.12635487543E+04  0.25500000000E-02 0. -1.
         -2   -1    0    0    0  501 -0.00000000000E+00 -0.00000000000E+00 -0.12225053191E+04  0.12225053191E+04  0.25500000000E-02 0.  1.
    8880022    1    1    2    0    0 -0.44746558556E+03  0.11003064764E+04 -0.31179398768E+03  0.12375406805E+04  0.15294330000E+03 0.  0.
    8880022    1    1    2    0    0  0.44746558556E+03 -0.11003064764E+04  0.35283742294E+03  0.12485133929E+04  0.15294330000E+03 0.  0.
<mgrwt>
<rscale>  0 0.11976191E+04</rscale>
<asrwt>0</asrwt>
<pdfrwt beam="1">  1        2 0.19439212E+00 0.11976191E+04</pdfrwt>
<pdfrwt beam="2">  1       -2 0.18807774E+00 0.11976191E+04</pdfrwt>
<totfact> 0.26928952E+00</totfact>
</mgrwt>
</event>
<event>
 4    1  0.1033139E-008  0.1039008E+04  0.7818608E-02  0.9266767E-01
         -2   -1    0    0    0  501 -0.00000000000E+00  0.00000000000E+00  0.33607171958E+03  0.33607171959E+03  0.25500000000E-02 0.  1.
          2   -1    0    0  501    0  0.00000000000E+00 -0.00000000000E+00 -0.43692074391E+04  0.43692074391E+04  0.25500000000E-02 0. -1.
    8880022    1    1    2    0    0  0.58870000194E+03  0.84236486633E+03 -0.32272147404E+04  0.33903470168E+04  0.15294330000E+03 0.  0.
    8880022    1    1    2    0    0 -0.58870000194E+03 -0.84236486633E+03 -0.80592097912E+03  0.13149321419E+04  0.15294330000E+03 0.  0.
<mgrwt>
<rscale>  0 0.10390081E+04</rscale>
<asrwt>0</asrwt>
<pdfrwt beam="1">  1        2 0.67218572E+00 0.10390081E+04</pdfrwt>
<pdfrwt beam="2">  1       -2 0.51703344E-01 0.10390081E+04</pdfrwt>
<totfact> 0.61527337E-01</totfact>
</mgrwt>
</event>
<event>
 4    1  0.1033139E-008  0.1814538E+03  0.7818608E-02  0.1166403E+00
          2   -1    0    0  501    0  0.00000000000E+00  0.00000000000E+00  0.52374106444E+03  0.52374106445E+03  0.25500000000E-02 0. -1.
         -2   -1    0    0    0  501 -0.00000000000E+00 -0.00000000000E+00 -0.27535355352E+03  0.27535355353E+03  0.25500000000E-02 0.  1.
    8880022    1    1    2    0    0 -0.63011812602E+02 -0.74587856035E+02 -0.22679212543E+03  0.29044820187E+03  0.15294330000E+03 0.  0.
    8880022    1    1    2    0    0  0.63011812602E+02  0.74587856035E+02  0.47517963636E+03  0.50864641611E+03  0.15294330000E+03 0. -1.
<mgrwt>
<rscale>  0 0.18145382E+03</rscale>
<asrwt>0</asrwt>
<pdfrwt beam="1">  1        2 0.80575548E-01 0.18145382E+03</pdfrwt>
<pdfrwt beam="2">  1       -2 0.42362085E-01 0.18145382E+03</pdfrwt>
<totfact> 0.31925110E+02</totfact>
</mgrwt>
</event>
<event>
 4    1  0.1033139E-008  0.1361255E+04  0.7818608E-02  0.8982352E-01
          2   -1    0    0  501    0  0.00000000000E+00  0.00000000000E+00  0.15891599811E+04  0.15891599811E+04  0.25500000000E-02 0. -1.
         -2   -1    0    0    0  501 -0.00000000000E+00 -0.00000000000E+00 -0.12466994133E+04  0.12466994133E+04  0.25500000000E-02 0.  1.
    8880022    1    1    2    0    0  0.10185811949E+04  0.89000911816E+03 -0.18944457326E+03  0.13743743232E+04  0.15294330000E+03 0.  0.
    8880022    1    1    2    0    0 -0.10185811949E+04 -0.89000911816E+03  0.53190514114E+03  0.14614850712E+04  0.15294330000E+03 0.  0.
<mgrwt>
<rscale>  0 0.13612551E+04</rscale>
<asrwt>0</asrwt>
<pdfrwt beam="1">  1        2 0.24448615E+00 0.13612551E+04</pdfrwt>
<pdfrwt beam="2">  1       -2 0.19179991E+00 0.13612551E+04</pdfrwt>
<totfact> 0.16267876E+00</totfact>
</mgrwt>
</event>
<event>
 4    1  0.1033139E-008  0.2793151E+03  0.7818608E-02  0.1096064E+00
          2   -1    0    0  501    0  0.00000000000E+00  0.00000000000E+00  0.37902535803E+03  0.37902535804E+03  0.25500000000E-02 0. -1.
         -2   -1    0    0    0  501 -0.00000000000E+00 -0.00000000000E+00 -0.70598620310E+03  0.70598620311E+03  0.25500000000E-02 0.  1.
    8880022    1    1    2    0    0 -0.20793987716E+03 -0.10670646998E+03  0.29314139322E+03  0.40490590597E+03  0.15294330000E+03 0.  0.
    8880022    1    1    2    0    0  0.20793987716E+03  0.10670646998E+03 -0.62010223830E+03  0.68010565518E+03  0.15294330000E+03 0.  0.
<mgrwt>
<rscale>  0 0.27931508E+03</rscale>
<asrwt>0</asrwt>
<pdfrwt beam="1">  1        2 0.58311594E-01 0.27931508E+03</pdfrwt>
<pdfrwt beam="2">  1       -2 0.10861326E+00 0.27931508E+03</pdfrwt>
<totfact> 0.60343033E+01</totfact>
</mgrwt>
</event>
<event>
 4    1  0.1033139E-008  0.2099718E+04  0.7818608E-02  0.8561368E-01
          2   -1    0    0  501    0  0.00000000000E+00  0.00000000000E+00  0.29097298045E+04  0.29097298045E+04  0.25500000000E-02 0. -1.
         -2   -1    0    0    0  501 -0.00000000000E+00 -0.00000000000E+00 -0.18982616817E+04  0.18982616817E+04  0.25500000000E-02 0.  1.
    8880022    1    1    2    0    0 -0.20846115945E+04 -0.19954672135E+03  0.15856533192E+04  0.26311808177E+04  0.15294330000E+03 0.  0.
    8880022    1    1    2    0    0  0.20846115945E+04  0.19954672135E+03 -0.57418519638E+03  0.21768106685E+04  0.15294330000E+03 0.  0.
<mgrwt>
<rscale>  0 0.20997181E+04</rscale>
<asrwt>0</asrwt>
<pdfrwt beam="1">  1        2 0.44765074E+00 0.20997181E+04</pdfrwt>
<pdfrwt beam="2">  1       -2 0.29204026E+00 0.20997181E+04</pdfrwt>
<totfact> 0.61741346E-02</totfact>
</mgrwt>
</event>
<event>
 4    1  0.1033139E-008  0.1529714E+04  0.7818608E-02  0.8864930E-01
         -2   -1    0    0    0  501 -0.00000000000E+00  0.00000000000E+00  0.12980916565E+04  0.12980916565E+04  0.25500000000E-02 0.  1.
          2   -1    0    0  501    0  0.00000000000E+00 -0.00000000000E+00 -0.27867283791E+04  0.27867283791E+04  0.25500000000E-02 0. -1.
    8880022    1    1    2    0    0 -0.12019380020E+04 -0.93379855060E+03 -0.19580056832E+04  0.24847157991E+04  0.15294330000E+03 0.  0.
    8880022    1    1    2    0    0  0.12019380020E+04  0.93379855060E+03  0.46936896059E+03  0.16001042365E+04  0.15294330000E+03 0.  0.
<mgrwt>
<rscale>  0 0.15297145E+04</rscale>
<asrwt>0</asrwt>
<pdfrwt beam="1">  1        2 0.42872744E+00 0.15297145E+04</pdfrwt>
<pdfrwt beam="2">  1       -2 0.19970641E+00 0.15297145E+04</pdfrwt>
<totfact> 0.29508696E-01</totfact>
</mgrwt>
</event>
<event>
 4    1  0.1033139E-008  0.2625101E+03  0.7818608E-02  0.1105644E+00
         -2   -1    0    0    0  501 -0.00000000000E+00  0.00000000000E+00  0.54754490744E+03  0.54754490744E+03  0.25500000000E-02 0.  1.
          2   -1    0    0  501    0  0.00000000000E+00 -0.00000000000E+00 -0.49861461357E+03  0.49861461358E+03  0.25500000000E-02 0. -1.
    8880022    1    1    2    0    0  0.15571451596E+02 -0.21278494293E+03 -0.42780667641E+03  0.50192639644E+03  0.15294330000E+03 0.  0.
    8880022    1    1    2    0    0 -0.15571451596E+02  0.21278494293E+03  0.47673697028E+03  0.54423312458E+03  0.15294330000E+03 0.  1.
<mgrwt>
<rscale>  0 0.26251010E+03</rscale>
<asrwt>0</asrwt>
<pdfrwt beam="1">  1        2 0.76709940E-01 0.26251010E+03</pdfrwt>
<pdfrwt beam="2">  1       -2 0.84237678E-01 0.26251010E+03</pdfrwt>
<totfact> 0.80300694E+01</totfact>
</mgrwt>
</event>
<event>
 4    1  0.1033139E-008  0.8646659E+03  0.7818608E-02  0.9470862E-01
         -2   -1    0    0    0  501 -0.00000000000E+00  0.00000000000E+00  0.14563372483E+04  0.14563372483E+04  0.25500000000E-02 0.  1.
          2   -1    0    0  501    0  0.00000000000E+00 -0.00000000000E+00 -0.58111012679E+03  0.58111012680E+03  0.25500000000E-02 0. -1.
    8880022    1    1    2    0    0  0.57602425042E+03  0.62645946650E+03  0.78541737164E+03  0.11681299161E+04  0.15294330000E+03 0.  0.
    8880022    1    1    2    0    0 -0.57602425042E+03 -0.62645946650E+03  0.89809749826E+02  0.86931745894E+03  0.15294330000E+03 0.  0.
<mgrwt>
<rscale>  0 0.86466586E+03</rscale>
<asrwt>0</asrwt>
<pdfrwt beam="1">  1        2 0.89401560E-01 0.86466586E+03</pdfrwt>
<pdfrwt beam="2">  1       -2 0.22405188E+00 0.86466586E+03</pdfrwt>
<totfact> 0.48526853E+00</totfact>
</mgrwt>
</event>
<event>
 4    1  0.1033139E-008  0.6494837E+03  0.7818608E-02  0.9807749E-01
          2   -1    0    0  501    0  0.00000000000E+00  0.00000000000E+00  0.14562457902E+04  0.14562457903E+04  0.25500000000E-02 0. -1.
         -2   -1    0    0    0  501 -0.00000000000E+00 -0.00000000000E+00 -0.51217033967E+03  0.51217033968E+03  0.25500000000E-02 0.  1.
    8880022    1    1    2    0    0 -0.19281069206E+02  0.63092442574E+03  0.11207411170E+04  0.12953338160E+04  0.15294330000E+03 0.  0.
    8880022    1    1    2    0    0  0.19281069206E+02 -0.63092442574E+03 -0.17666566638E+03  0.67308231392E+03  0.15294330000E+03 0.  0.
<mgrwt>
<rscale>  0 0.64948367E+03</rscale>
<asrwt>0</asrwt>
<pdfrwt beam="1">  1        2 0.22403782E+00 0.64948367E+03</pdfrwt>
<pdfrwt beam="2">  1       -2 0.78795436E-01 0.64948367E+03</pdfrwt>
<totfact> 0.19927890E+01</totfact>
</mgrwt>
</event>
<event>
 4    1  0.1033139E-008  0.6632897E+03  0.7818608E-02  0.9782157E-01
         -2   -1    0    0    0  501 -0.00000000000E+00  0.00000000000E+00  0.10596031384E+04  0.10596031384E+04  0.25500000000E-02 0.  1.
          2   -1    0    0  501    0  0.00000000000E+00 -0.00000000000E+00 -0.21369347454E+04  0.21369347454E+04  0.25500000000E-02 0. -1.
    8880022    1    1    2    0    0 -0.38524329871E+03  0.51783116257E+03 -0.19732850224E+04  0.20817797541E+04  0.15294330000E+03 0.  0.
    8880022    1    1    2    0    0  0.38524329871E+03 -0.51783116257E+03  0.89595341534E+03  0.11147581296E+04  0.15294330000E+03 0.  0.
<mgrwt>
<rscale>  0 0.66328965E+03</rscale>
<asrwt>0</asrwt>
<pdfrwt beam="1">  1        2 0.32875919E+00 0.66328965E+03</pdfrwt>
<pdfrwt beam="2">  1       -2 0.16301587E+00 0.66328965E+03</pdfrwt>
<totfact> 0.14241845E+00</totfact>
</mgrwt>
</event>
<event>
 4    1  0.1033139E-008  0.7687291E+03  0.7818608E-02  0.9606417E-01
         -2   -1    0    0    0  501 -0.00000000000E+00  0.00000000000E+00  0.32036245335E+04  0.32036245335E+04  0.25500000000E-02 0.  1.
          2   -1    0    0  501    0  0.00000000000E+00 -0.00000000000E+00 -0.40188675832E+03  0.40188675833E+03  0.25500000000E-02 0. -1.
    8880022    1    1    2    0    0 -0.16983291251E+03 -0.73396837103E+03  0.74878706404E+02  0.77236730999E+03  0.15294330000E+03 0.  0.
    8880022    1    1    2    0    0  0.16983291251E+03  0.73396837103E+03  0.27268590688E+04  0.28331439818E+04  0.15294330000E+03 0.  0.
<mgrwt>
<rscale>  0 0.76872911E+03</rscale>
<asrwt>0</asrwt>
<pdfrwt beam="1">  1        2 0.61828733E-01 0.76872911E+03</pdfrwt>
<pdfrwt beam="2">  1       -2 0.49286531E+00 0.76872911E+03</pdfrwt>
<totfact> 0.15262357E-01</totfact>
</mgrwt>
</event>
<event>
 4    1  0.1033139E-008  0.7531781E+03  0.7818608E-02  0.9630378E-01
         -2   -1    0    0    0  501 -0.00000000000E+00  0.00000000000E+00  0.39819835546E+03  0.39819835546E+03  0.25500000000E-02 0.  1.
          2   -1    0    0  501    0  0.00000000000E+00 -0.00000000000E+00 -0.17566618974E+04  0.17566618974E+04  0.25500000000E-02 0. -1.
    8880022    1    1    2    0    0 -0.30493958269E+03 -0.67148899257E+03 -0.21079804566E+03  0.78212088918E+03  0.15294330000E+03 0.  0.
    8880022    1    1    2    0    0  0.30493958269E+03  0.67148899257E+03 -0.11476654963E+04  0.13727393637E+04  0.15294330000E+03 0.  0.
<mgrwt>
<rscale>  0 0.75317811E+03</rscale>
<asrwt>0</asrwt>
<pdfrwt beam="1">  1        2 0.27025567E+00 0.75317811E+03</pdfrwt>
<pdfrwt beam="2">  1       -2 0.61261286E-01 0.75317811E+03</pdfrwt>
<totfact> 0.23237435E+01</totfact>
</mgrwt>
</event>
<event>
 4    1  0.1033139E-008  0.8261010E+03  0.7818608E-02  0.9522987E-01
         -2   -1    0    0    0  501 -0.00000000000E+00  0.00000000000E+00  0.94196302104E+03  0.94196302104E+03  0.25500000000E-02 0.  1.
          2   -1    0    0  501    0  0.00000000000E+00 -0.00000000000E+00 -0.12284251799E+04  0.12284251799E+04  0.25500000000E-02 0. -1.
    8880022    1    1    2    0    0 -0.77201641040E+03  0.25108150775E+03 -0.83828796604E+03  0.11769322956E+04  0.15294330000E+03 0.  0.
    8880022    1    1    2    0    0  0.77201641040E+03 -0.25108150775E+03  0.55182580713E+03  0.99345590536E+03  0.15294330000E+03 0.  0.
<mgrwt>
<rscale>  0 0.82610103E+03</rscale>
<asrwt>0</asrwt>
<pdfrwt beam="1">  1        2 0.18898849E+00 0.82610103E+03</pdfrwt>
<pdfrwt beam="2">  1       -2 0.14491739E+00 0.82610103E+03</pdfrwt>
<totfact> 0.60451852E+00</totfact>
</mgrwt>
</event>
<event>
 4    1  0.1033139E-008  0.1912069E+03  0.7818608E-02  0.1157377E+00
         -2   -1    0    0    0  501 -0.00000000000E+00  0.00000000000E+00  0.27321043231E+03  0.27321043232E+03  0.25500000000E-02 0.  1.
          2   -1    0    0  501    0  0.00000000000E+00 -0.00000000000E+00 -0.27027277833E+03  0.27027277835E+03  0.25500000000E-02 0. -1.
    8880022    1    1    2    0    0  0.84320559773E+02  0.77836195354E+02 -0.19161754942E+03  0.27069792827E+03  0.15294330000E+03 0.  0.
    8880022    1    1    2    0    0 -0.84320559773E+02 -0.77836195354E+02  0.19455520339E+03  0.27278528239E+03  0.15294330000E+03 0.  1.
<mgrwt>
<rscale>  0 0.19120691E+03</rscale>
<asrwt>0</asrwt>
<pdfrwt beam="1">  1        2 0.41580428E-01 0.19120691E+03</pdfrwt>
<pdfrwt beam="2">  1       -2 0.42032374E-01 0.19120691E+03</pdfrwt>
<totfact> 0.66342799E+02</totfact>
</mgrwt>
</event>
<event>
 4    1  0.1033139E-008  0.1275929E+04  0.7818608E-02  0.9048875E-01
          2   -1    0    0  501    0  0.00000000000E+00  0.00000000000E+00  0.11832682250E+04  0.11832682250E+04  0.25500000000E-02 0. -1.
         -2   -1    0    0    0  501 -0.00000000000E+00 -0.00000000000E+00 -0.20950197174E+04  0.20950197174E+04  0.25500000000E-02 0.  1.
    8880022    1    1    2    0    0  0.12612896331E+04 -0.11726230291E+03  0.50449795119E+03  0.13720465816E+04  0.15294330000E+03 0.  0.
    8880022    1    1    2    0    0 -0.12612896331E+04  0.11726230291E+03 -0.14162494436E+04  0.19062413609E+04  0.15294330000E+03 0.  0.
<mgrwt>
<rscale>  0 0.12759285E+04</rscale>
<asrwt>0</asrwt>
<pdfrwt beam="1">  1        2 0.18204127E+00 0.12759285E+04</pdfrwt>
<pdfrwt beam="2">  1       -2 0.32231072E+00 0.12759285E+04</pdfrwt>
<totfact> 0.43535556E-01</totfact>
</mgrwt>
</event>
<event>
 4    1  0.1033139E-008  0.1490553E+04  0.7818608E-02  0.8890759E-01
         -2   -1    0    0    0  501 -0.00000000000E+00  0.00000000000E+00  0.22740575123E+04  0.22740575123E+04  0.25500000000E-02 0.  1.
          2   -1    0    0  501    0  0.00000000000E+00 -0.00000000000E+00 -0.14745024937E+04  0.14745024937E+04  0.25500000000E-02 0. -1.
    8880022    1    1    2    0    0  0.25164531318E+03  0.14611748544E+04  0.14884828376E+04  0.21064971230E+04  0.15294330000E+03 0.  0.
    8880022    1    1    2    0    0 -0.25164531318E+03 -0.14611748544E+04 -0.68892781898E+03  0.16420628829E+04  0.15294330000E+03 0.  0.
<mgrwt>
<rscale>  0 0.14905532E+04</rscale>
<asrwt>0</asrwt>
<pdfrwt beam="1">  1        2 0.22684654E+00 0.14905532E+04</pdfrwt>
<pdfrwt beam="2">  1       -2 0.34985500E+00 0.14905532E+04</pdfrwt>
<totfact> 0.19303657E-01</totfact>
</mgrwt>
</event>
<event>
 4    1  0.1033139E-008  0.4756377E+03  0.7818608E-02  0.1020341E+00
          2   -1    0    0  501    0  0.00000000000E+00  0.00000000000E+00  0.14573744316E+04  0.14573744316E+04  0.25500000000E-02 0. -1.
         -2   -1    0    0    0  501 -0.00000000000E+00 -0.00000000000E+00 -0.41589419084E+03  0.41589419085E+03  0.25500000000E-02 0.  1.
    8880022    1    1    2    0    0 -0.33607544614E+03 -0.29982137770E+03 -0.22077091187E+03  0.52437678492E+03  0.15294330000E+03 0.  0.
    8880022    1    1    2    0    0  0.33607544614E+03  0.29982137770E+03  0.12622511526E+04  0.13488918375E+04  0.15294330000E+03 0.  0.
<mgrwt>
<rscale>  0 0.47563770E+03</rscale>
<asrwt>0</asrwt>
<pdfrwt beam="1">  1        2 0.22421146E+00 0.47563770E+03</pdfrwt>
<pdfrwt beam="2">  1       -2 0.63983720E-01 0.47563770E+03</pdfrwt>
<totfact> 0.32208694E+01</totfact>
</mgrwt>
</event>
<event>
 4    1  0.1033139E-008  0.9643077E+03  0.7818608E-02  0.9348582E-01
          2   -1    0    0  501    0  0.00000000000E+00  0.00000000000E+00  0.16602590103E+04  0.16602590103E+04  0.25500000000E-02 0. -1.
         -2   -1    0    0    0  501 -0.00000000000E+00 -0.00000000000E+00 -0.16882454351E+04  0.16882454351E+04  0.25500000000E-02 0.  1.
    8880022    1    1    2    0    0 -0.40101269699E+03  0.86353138630E+03 -0.13826298525E+04  0.16856911343E+04  0.15294330000E+03 0.  0.
    8880022    1    1    2    0    0  0.40101269699E+03 -0.86353138630E+03  0.13546434277E+04  0.16628133111E+04  0.15294330000E+03 0.  0.
<mgrwt>
<rscale>  0 0.96430767E+03</rscale>
<asrwt>0</asrwt>
<pdfrwt beam="1">  1        2 0.25542446E+00 0.96430767E+03</pdfrwt>
<pdfrwt beam="2">  1       -2 0.25973007E+00 0.96430767E+03</pdfrwt>
<totfact> 0.58177654E-01</totfact>
</mgrwt>
</event>
<event>
 4    1  0.1033139E-008  0.1309614E+04  0.7818608E-02  0.9021976E-01
          2   -1    0    0  501    0  0.00000000000E+00  0.00000000000E+00  0.12582667914E+04  0.12582667914E+04  0.25500000000E-02 0. -1.
         -2   -1    0    0    0  501 -0.00000000000E+00 -0.00000000000E+00 -0.16241444107E+04  0.16241444107E+04  0.25500000000E-02 0.  1.
    8880022    1    1    2    0    0 -0.74582934545E+02 -0.12985123456E+04  0.39490052386E+03  0.13678578152E+04  0.15294330000E+03 0.  0.
    8880022    1    1    2    0    0  0.74582934545E+02  0.12985123456E+04 -0.76077814318E+03  0.15145533870E+04  0.15294330000E+03 0.  0.
<mgrwt>
<rscale>  0 0.13096139E+04</rscale>
<asrwt>0</asrwt>
<pdfrwt beam="1">  1        2 0.19357951E+00 0.13096139E+04</pdfrwt>
<pdfrwt beam="2">  1       -2 0.24986837E+00 0.13096139E+04</pdfrwt>
<totfact> 0.10819218E+00</totfact>
</mgrwt>
</event>
<event>
 4    1  0.1033139E-008  0.2784560E+03  0.7818608E-02  0.1096535E+00
         -2   -1    0    0    0  501 -0.00000000000E+00  0.00000000000E+00  0.54260676830E+02  0.54260676890E+02  0.25500000000E-02 0.  1.
          2   -1    0    0  501    0  0.00000000000E+00 -0.00000000000E+00 -0.24255041739E+04  0.24255041739E+04  0.25500000000E-02 0. -1.
    8880022    1    1    2    0    0 -0.54263118852E+02 -0.22627773349E+03 -0.39088721273E+03  0.47992766625E+03  0.15294330000E+03 0.  0.
    8880022    1    1    2    0    0  0.54263118852E+02  0.22627773349E+03 -0.19803562843E+04  0.19998371845E+04  0.15294330000E+03 0.  0.
<mgrwt>
<rscale>  0 0.27845601E+03</rscale>
<asrwt>0</asrwt>
<pdfrwt beam="1">  1        2 0.37315440E+00 0.27845601E+03</pdfrwt>
<pdfrwt beam="2">  1       -2 0.83477983E-02 0.27845601E+03</pdfrwt>
<totfact> 0.38929104E+02</totfact>
</mgrwt>
</event>
<event>
 4    1  0.1384557E-008  0.1100945E+04  0.7818608E-02  0.9204271E-01
         -2   -1    0    0    0  501 -0.00000000000E+00  0.00000000000E+00  0.15368548355E+04  0.15368548355E+04  0.25500000000E-02 0.  1.
          2   -1    0    0  501    0  0.00000000000E+00 -0.00000000000E+00 -0.19803691681E+04  0.19803691681E+04  0.25500000000E-02 0. -1.
    8880022    1    1    2    0    0 -0.14956214230E+02  0.10901676073E+04  0.11424463111E+04  0.15865888966E+04  0.15294330000E+03 0.  0.
    8880022    1    1    2    0    0  0.14956214230E+02 -0.10901676073E+04 -0.15859606436E+04  0.19306351070E+04  0.15294330000E+03 0.  0.
<mgrwt>
<rscale>  0 0.11009454E+04</rscale>
<asrwt>0</asrwt>
<pdfrwt beam="1">  1        2 0.30467218E+00 0.11009454E+04</pdfrwt>
<pdfrwt beam="2">  1       -2 0.23643921E+00 0.11009454E+04</pdfrwt>
<totfact> 0.52645927E-01</totfact>
</mgrwt>
</event>
<event>
 4    1  0.1033139E-008  0.3039816E+03  0.7818608E-02  0.1083267E+00
         -2   -1    0    0    0  501 -0.00000000000E+00  0.00000000000E+00  0.16628161833E+03  0.16628161835E+03  0.25500000000E-02 0.  1.
          2   -1    0    0  501    0  0.00000000000E+00 -0.00000000000E+00 -0.97510223961E+03  0.97510223962E+03  0.25500000000E-02 0. -1.
    8880022    1    1    2    0    0 -0.22302722366E+03  0.13882366051E+03 -0.30139929365E+02  0.30547212568E+03  0.15294330000E+03 0.  1.
    8880022    1    1    2    0    0  0.22302722366E+03 -0.13882366051E+03 -0.77868069192E+03  0.83591173229E+03  0.15294330000E+03 0.  0.
<mgrwt>
<rscale>  0 0.30398159E+03</rscale>
<asrwt>0</asrwt>
<pdfrwt beam="1">  1        2 0.15001573E+00 0.30398159E+03</pdfrwt>
<pdfrwt beam="2">  1       -2 0.25581788E-01 0.30398159E+03</pdfrwt>
<totfact> 0.37247838E+02</totfact>
</mgrwt>
</event>
<event>
 4    1  0.1033139E-008  0.4042576E+03  0.7818608E-02  0.1042315E+00
         -2   -1    0    0    0  501 -0.00000000000E+00  0.00000000000E+00  0.47432500884E+03  0.47432500885E+03  0.25500000000E-02 0.  1.
          2   -1    0    0  501    0  0.00000000000E+00 -0.00000000000E+00 -0.22769877292E+04  0.22769877292E+04  0.25500000000E-02 0. -1.
    8880022    1    1    2    0    0  0.19198567149E+03  0.32120717049E+03  0.36598031116E+03  0.54531255772E+03  0.15294330000E+03 0.  0.
    8880022    1    1    2    0    0 -0.19198567149E+03 -0.32120717049E+03 -0.21686430316E+04  0.22060001804E+04  0.15294330000E+03 0.  0.
<mgrwt>
<rscale>  0 0.40425759E+03</rscale>
<asrwt>0</asrwt>
<pdfrwt beam="1">  1        2 0.35030580E+00 0.40425759E+03</pdfrwt>
<pdfrwt beam="2">  1       -2 0.72973080E-01 0.40425759E+03</pdfrwt>
<totfact> 0.89275970E+00</totfact>
</mgrwt>
</event>
<event>
 4    1  0.1033139E-008  0.2874896E+03  0.7818608E-02  0.1091667E+00
          2   -1    0    0  501    0  0.00000000000E+00  0.00000000000E+00  0.95697614823E+03  0.95697614823E+03  0.25500000000E-02 0. -1.
         -2   -1    0    0    0  501 -0.00000000000E+00 -0.00000000000E+00 -0.49425919477E+03  0.49425919478E+03  0.25500000000E-02 0.  1.
    8880022    1    1    2    0    0 -0.19135925935E+03  0.15046672887E+03 -0.42782099226E+03  0.51544258368E+03  0.15294330000E+03 0.  0.
    8880022    1    1    2    0    0  0.19135925935E+03 -0.15046672887E+03  0.89053794572E+03  0.93579275933E+03  0.15294330000E+03 0. -1.
<mgrwt>
<rscale>  0 0.28748957E+03</rscale>
<asrwt>0</asrwt>
<pdfrwt beam="1">  1        2 0.14722710E+00 0.28748957E+03</pdfrwt>
<pdfrwt beam="2">  1       -2 0.76039876E-01 0.28748957E+03</pdfrwt>
<totfact> 0.45006930E+01</totfact>
</mgrwt>
</event>
<event>
 4    1  0.1033139E-008  0.1031824E+04  0.7818608E-02  0.9274313E-01
          2   -1    0    0  501    0  0.00000000000E+00  0.00000000000E+00  0.21353146434E+04  0.21353146434E+04  0.25500000000E-02 0. -1.
         -2   -1    0    0    0  501 -0.00000000000E+00 -0.00000000000E+00 -0.14013520556E+04  0.14013520556E+04  0.25500000000E-02 0.  1.
    8880022    1    1    2    0    0 -0.69628355621E+03  0.74596170248E+03  0.17862855131E+04  0.20628808108E+04  0.15294330000E+03 0.  0.
    8880022    1    1    2    0    0  0.69628355621E+03 -0.74596170248E+03 -0.10523229253E+04  0.14737858882E+04  0.15294330000E+03 0.  0.
<mgrwt>
<rscale>  0 0.10318243E+04</rscale>
<asrwt>0</asrwt>
<pdfrwt beam="1">  1        2 0.32850994E+00 0.10318243E+04</pdfrwt>
<pdfrwt beam="2">  1       -2 0.21559262E+00 0.10318243E+04</pdfrwt>
<totfact> 0.58982248E-01</totfact>
</mgrwt>
</event>
<event>
 4    1  0.1033139E-008  0.4101556E+03  0.7818608E-02  0.1040319E+00
         -2   -1    0    0    0  501 -0.00000000000E+00  0.00000000000E+00  0.11627356290E+04  0.11627356290E+04  0.25500000000E-02 0.  1.
          2   -1    0    0  501    0  0.00000000000E+00 -0.00000000000E+00 -0.32439776854E+03  0.32439776855E+03  0.25500000000E-02 0. -1.
    8880022    1    1    2    0    0 -0.37997770412E+03  0.21281319662E+02  0.97261254423E+03  0.10555580346E+04  0.15294330000E+03 0.  0.
    8880022    1    1    2    0    0  0.37997770412E+03 -0.21281319662E+02 -0.13427468378E+03  0.43157536296E+03  0.15294330000E+03 0. -1.
<mgrwt>
<rscale>  0 0.41015558E+03</rscale>
<asrwt>0</asrwt>
<pdfrwt beam="1">  1        2 0.49907350E-01 0.41015558E+03</pdfrwt>
<pdfrwt beam="2">  1       -2 0.17888240E+00 0.41015558E+03</pdfrwt>
<totfact> 0.19570076E+01</totfact>
</mgrwt>
</event>
<event>
 4    1  0.1033139E-008  0.9499572E+03  0.7818608E-02  0.9365201E-01
         -2   -1    0    0    0  501 -0.00000000000E+00  0.00000000000E+00  0.30530486765E+03  0.30530486766E+03  0.25500000000E-02 0.  1.
          2   -1    0    0  501    0  0.00000000000E+00 -0.00000000000E+00 -0.32645308375E+04  0.32645308375E+04  0.25500000000E-02 0. -1.
    8880022    1    1    2    0    0  0.36352044055E+03  0.86422214597E+03 -0.93070293338E+03  0.13298972259E+04  0.15294330000E+03 0.  0.
    8880022    1    1    2    0    0 -0.36352044055E+03 -0.86422214597E+03 -0.20285230365E+04  0.22399384792E+04  0.15294330000E+03 0.  0.
<mgrwt>
<rscale>  0 0.94995720E+03</rscale>
<asrwt>0</asrwt>
<pdfrwt beam="1">  1        2 0.50223549E+00 0.94995720E+03</pdfrwt>
<pdfrwt beam="2">  1       -2 0.46969982E-01 0.94995720E+03</pdfrwt>
<totfact> 0.52448723E+00</totfact>
</mgrwt>
</event>
<event>
 4    1  0.1033139E-008  0.6600164E+03  0.7818608E-02  0.9788164E-01
         -2   -1    0    0    0  501 -0.00000000000E+00  0.00000000000E+00  0.46266152499E+03  0.46266152499E+03  0.25500000000E-02 0.  1.
          2   -1    0    0  501    0  0.00000000000E+00 -0.00000000000E+00 -0.16664989958E+04  0.16664989958E+04  0.25500000000E-02 0. -1.
    8880022    1    1    2    0    0 -0.89048944860E+02  0.63584609818E+03 -0.13040654679E+04  0.14615773578E+04  0.15294330000E+03 0.  0.
    8880022    1    1    2    0    0  0.89048944860E+02 -0.63584609818E+03  0.10022799708E+03  0.66758316303E+03  0.15294330000E+03 0.  0.
<mgrwt>
<rscale>  0 0.66001638E+03</rscale>
<asrwt>0</asrwt>
<pdfrwt beam="1">  1        2 0.25638446E+00 0.66001638E+03</pdfrwt>
<pdfrwt beam="2">  1       -2 0.71178697E-01 0.66001638E+03</pdfrwt>
<totfact> 0.19081327E+01</totfact>
</mgrwt>
</event>
<event>
 4    1  0.1033139E-008  0.3624029E+03  0.7818608E-02  0.1057636E+00
         -2   -1    0    0    0  501 -0.00000000000E+00  0.00000000000E+00  0.43223030929E+03  0.43223030929E+03  0.25500000000E-02 0.  1.
          2   -1    0    0  501    0  0.00000000000E+00 -0.00000000000E+00 -0.83624821035E+03  0.83624821036E+03  0.25500000000E-02 0. -1.
    8880022    1    1    2    0    0  0.21448081148E+03  0.24888188911E+03  0.30405019645E+03  0.47305643236E+03  0.15294330000E+03 0.  0.
    8880022    1    1    2    0    0 -0.21448081148E+03 -0.24888188911E+03 -0.70806809751E+03  0.79542208729E+03  0.15294330000E+03 0. -1.
<mgrwt>
<rscale>  0 0.36240291E+03</rscale>
<asrwt>0</asrwt>
<pdfrwt beam="1">  1        2 0.12865357E+00 0.36240291E+03</pdfrwt>
<pdfrwt beam="2">  1       -2 0.66496971E-01 0.36240291E+03</pdfrwt>
<totfact> 0.71169741E+01</totfact>
</mgrwt>
</event>
<event>
 4    1  0.1033139E-008  0.7055024E+03  0.7818608E-02  0.9707868E-01
          2   -1    0    0  501    0  0.00000000000E+00  0.00000000000E+00  0.20354604076E+04  0.20354604076E+04  0.25500000000E-02 0. -1.
         -2   -1    0    0    0  501 -0.00000000000E+00 -0.00000000000E+00 -0.62118495834E+03  0.62118495834E+03  0.25500000000E-02 0.  1.
    8880022    1    1    2    0    0  0.68665262578E+03  0.53386859642E+02 -0.32720451024E+03  0.77768658842E+03  0.15294330000E+03 0.  0.
    8880022    1    1    2    0    0 -0.68665262578E+03 -0.53386859642E+02  0.17414799595E+04  0.18789587775E+04  0.15294330000E+03 0.  0.
<mgrwt>
<rscale>  0 0.70550240E+03</rscale>
<asrwt>0</asrwt>
<pdfrwt beam="1">  1        2 0.31314776E+00 0.70550240E+03</pdfrwt>
<pdfrwt beam="2">  1       -2 0.95566916E-01 0.70550240E+03</pdfrwt>
<totfact> 0.61290585E+00</totfact>
</mgrwt>
</event>
<event>
 4    1  0.1033139E-008  0.8454779E+03  0.7818608E-02  0.9496427E-01
         -2   -1    0    0    0  501 -0.00000000000E+00  0.00000000000E+00  0.68509222282E+03  0.68509222283E+03  0.25500000000E-02 0.  1.
          2   -1    0    0  501    0  0.00000000000E+00 -0.00000000000E+00 -0.19557667627E+04  0.19557667627E+04  0.25500000000E-02 0. -1.
    8880022    1    1    2    0    0 -0.17836717406E+03 -0.81217385056E+03  0.26652196976E+03  0.88649130041E+03  0.15294330000E+03 0.  0.
    8880022    1    1    2    0    0  0.17836717406E+03  0.81217385056E+03 -0.15371965096E+04  0.17543676851E+04  0.15294330000E+03 0.  0.
<mgrwt>
<rscale>  0 0.84547789E+03</rscale>
<asrwt>0</asrwt>
<pdfrwt beam="1">  1        2 0.30088719E+00 0.84547789E+03</pdfrwt>
<pdfrwt beam="2">  1       -2 0.10539880E+00 0.84547789E+03</pdfrwt>
<totfact> 0.52532568E+00</totfact>
</mgrwt>
</event>
<event>
 4    1  0.1033139E-008  0.8078108E+03  0.7818608E-02  0.9548780E-01
          2   -1    0    0  501    0  0.00000000000E+00  0.00000000000E+00  0.24952209325E+04  0.24952209325E+04  0.25500000000E-02 0. -1.
         -2   -1    0    0    0  501 -0.00000000000E+00 -0.00000000000E+00 -0.52805014443E+03  0.52805014444E+03  0.25500000000E-02 0.  1.
    8880022    1    1    2    0    0  0.35782171991E+03  0.70790551340E+03 -0.90354663811E+02  0.81284821303E+03  0.15294330000E+03 0.  0.
    8880022    1    1    2    0    0 -0.35782171991E+03 -0.70790551340E+03  0.20575254519E+04  0.22104228639E+04  0.15294330000E+03 0.  0.
<mgrwt>
<rscale>  0 0.80781078E+03</rscale>
<asrwt>0</asrwt>
<pdfrwt beam="1">  1        2 0.38388014E+00 0.80781078E+03</pdfrwt>
<pdfrwt beam="2">  1       -2 0.81238484E-01 0.80781078E+03</pdfrwt>
<totfact> 0.48616924E+00</totfact>
</mgrwt>
</event>
<event>
 4    1  0.1033139E-008  0.4822215E+03  0.7818608E-02  0.1018526E+00
         -2   -1    0    0    0  501 -0.00000000000E+00  0.00000000000E+00  0.29923411964E+03  0.29923411965E+03  0.25500000000E-02 0.  1.
          2   -1    0    0  501    0  0.00000000000E+00 -0.00000000000E+00 -0.12842322495E+04  0.12842322495E+04  0.25500000000E-02 0. -1.
    8880022    1    1    2    0    0 -0.12641055307E+03  0.43950690840E+03  0.50245673735E+01  0.48224770580E+03  0.15294330000E+03 0.  0.
    8880022    1    1    2    0    0  0.12641055307E+03 -0.43950690840E+03 -0.99002269719E+03  0.11012186633E+04  0.15294330000E+03 0. -1.
<mgrwt>
<rscale>  0 0.48222153E+03</rscale>
<asrwt>0</asrwt>
<pdfrwt beam="1">  1        2 0.19757419E+00 0.48222153E+03</pdfrwt>
<pdfrwt beam="2">  1       -2 0.46036019E-01 0.48222153E+03</pdfrwt>
<totfact> 0.79137993E+01</totfact>
</mgrwt>
</event>
<event>
 4    1  0.1033139E-008  0.5949991E+03  0.7818608E-02  0.9915836E-01
          2   -1    0    0  501    0  0.00000000000E+00  0.00000000000E+00  0.27811802115E+03  0.27811802116E+03  0.25500000000E-02 0. -1.
         -2   -1    0    0    0  501 -0.00000000000E+00 -0.00000000000E+00 -0.26517818679E+04  0.26517818679E+04  0.25500000000E-02 0.  1.
    8880022    1    1    2    0    0 -0.21792482008E+03  0.53211004421E+03 -0.22431948288E+04  0.23207643179E+04  0.15294330000E+03 0.  0.
    8880022    1    1    2    0    0  0.21792482008E+03 -0.53211004421E+03 -0.13046901794E+03  0.60913557113E+03  0.15294330000E+03 0.  0.
<mgrwt>
<rscale>  0 0.59499914E+03</rscale>
<asrwt>0</asrwt>
<pdfrwt beam="1">  1        2 0.42787390E-01 0.59499914E+03</pdfrwt>
<pdfrwt beam="2">  1       -2 0.40796642E+00 0.59499914E+03</pdfrwt>
<totfact> 0.86138444E-01</totfact>
</mgrwt>
</event>
<event>
 4    1  0.1033139E-008  0.1805342E+04  0.7818608E-02  0.8703464E-01
          2   -1    0    0  501    0  0.00000000000E+00  0.00000000000E+00  0.20946224854E+04  0.20946224854E+04  0.25500000000E-02 0. -1.
         -2   -1    0    0    0  501 -0.00000000000E+00 -0.00000000000E+00 -0.17707215749E+04  0.17707215749E+04  0.25500000000E-02 0.  1.
    8880022    1    1    2    0    0 -0.17792371505E+04 -0.26492053057E+03 -0.51103848758E+03  0.18762781547E+04  0.15294330000E+03 0.  0.
    8880022    1    1    2    0    0  0.17792371505E+04  0.26492053057E+03  0.83493939816E+03  0.19890659056E+04  0.15294330000E+03 0.  0.
<mgrwt>
<rscale>  0 0.18053419E+04</rscale>
<asrwt>0</asrwt>
<pdfrwt beam="1">  1        2 0.32224961E+00 0.18053419E+04</pdfrwt>
<pdfrwt beam="2">  1       -2 0.27241870E+00 0.18053419E+04</pdfrwt>
<totfact> 0.25155410E-01</totfact>
</mgrwt>
</event>
<event>
 4    1  0.1033139E-008  0.1112781E+04  0.7818608E-02  0.9192824E-01
          2   -1    0    0  501    0  0.00000000000E+00  0.00000000000E+00  0.28762708677E+04  0.28762708677E+04  0.25500000000E-02 0. -1.
         -2   -1    0    0    0  501 -0.00000000000E+00 -0.00000000000E+00 -0.51013806812E+03  0.51013806812E+03  0.25500000000E-02 0.  1.
    8880022    1    1    2    0    0  0.39716405317E+02  0.11015044630E+04  0.51413467535E+03  0.12258122173E+04  0.15294330000E+03 0.  0.
    8880022    1    1    2    0    0 -0.39716405317E+02 -0.11015044630E+04  0.18519981242E+04  0.21605967185E+04  0.15294330000E+03 0.  0.
<mgrwt>
<rscale>  0 0.11127808E+04</rscale>
<asrwt>0</asrwt>
<pdfrwt beam="1">  1        2 0.44250322E+00 0.11127808E+04</pdfrwt>
<pdfrwt beam="2">  1       -2 0.78482777E-01 0.11127808E+04</pdfrwt>
<totfact> 0.30061102E+00</totfact>
</mgrwt>
</event>
<event>
 4    1  0.1033139E-008  0.9798821E+03  0.7818608E-02  0.9330889E-01
         -2   -1    0    0    0  501 -0.00000000000E+00  0.00000000000E+00  0.67191287966E+03  0.67191287967E+03  0.25500000000E-02 0.  1.
          2   -1    0    0  501    0  0.00000000000E+00 -0.00000000000E+00 -0.29353711587E+04  0.29353711587E+04  0.25500000000E-02 0. -1.
    8880022    1    1    2    0    0  0.83611839221E+03  0.48752781275E+03 -0.24237920291E+04  0.26143712031E+04  0.15294330000E+03 0.  0.
    8880022    1    1    2    0    0 -0.83611839221E+03 -0.48752781275E+03  0.16033375011E+03  0.99291283527E+03  0.15294330000E+03 0.  0.
<mgrwt>
<rscale>  0 0.97988213E+03</rscale>
<asrwt>0</asrwt>
<pdfrwt beam="1">  1        2 0.45159556E+00 0.97988213E+03</pdfrwt>
<pdfrwt beam="2">  1       -2 0.10337121E+00 0.97988213E+03</pdfrwt>
<totfact> 0.14886432E+00</totfact>
</mgrwt>
</event>
<event>
 4    1  0.1033139E-008  0.3171873E+03  0.7818608E-02  0.1076951E+00
         -2   -1    0    0    0  501 -0.00000000000E+00  0.00000000000E+00  0.11481850571E+04  0.11481850571E+04  0.25500000000E-02 0.  1.
          2   -1    0    0  501    0  0.00000000000E+00 -0.00000000000E+00 -0.25439100388E+03  0.25439100389E+03  0.25500000000E-02 0. -1.
    8880022    1    1    2    0    0 -0.14036077913E+03 -0.23982277106E+03  0.10147050533E+04  0.10631246907E+04  0.15294330000E+03 0.  0.
    8880022    1    1    2    0    0  0.14036077913E+03  0.23982277106E+03 -0.12091100006E+03  0.33945137028E+03  0.15294330000E+03 0.  0.
<mgrwt>
<rscale>  0 0.31718727E+03</rscale>
<asrwt>0</asrwt>
<pdfrwt beam="1">  1        2 0.39137077E-01 0.31718727E+03</pdfrwt>
<pdfrwt beam="2">  1       -2 0.17664386E+00 0.31718727E+03</pdfrwt>
<totfact> 0.26822767E+01</totfact>
</mgrwt>
</event>
<event>
 4    1  0.1033139E-008  0.7563416E+03  0.7818608E-02  0.9625454E-01
         -2   -1    0    0    0  501 -0.00000000000E+00  0.00000000000E+00  0.19581050653E+04  0.19581050653E+04  0.25500000000E-02 0.  1.
          2   -1    0    0  501    0  0.00000000000E+00 -0.00000000000E+00 -0.62719201003E+03  0.62719201004E+03  0.25500000000E-02 0. -1.
    8880022    1    1    2    0    0  0.74034243659E+03 -0.23536972857E+02 -0.27932724392E+03  0.80627307701E+03  0.15294330000E+03 0.  0.
    8880022    1    1    2    0    0 -0.74034243659E+03  0.23536972857E+02  0.16102402992E+04  0.17790239983E+04  0.15294330000E+03 0.  1.
<mgrwt>
<rscale>  0 0.75634157E+03</rscale>
<asrwt>0</asrwt>
<pdfrwt beam="1">  1        2 0.96491080E-01 0.75634157E+03</pdfrwt>
<pdfrwt beam="2">  1       -2 0.30124693E+00 0.75634157E+03</pdfrwt>
<totfact> 0.15286311E+00</totfact>
</mgrwt>
</event>
<event>
 4    1  0.1033139E-008  0.5234680E+03  0.7818608E-02  0.1007829E+00
         -2   -1    0    0    0  501 -0.00000000000E+00  0.00000000000E+00  0.14899132730E+03  0.14899132732E+03  0.25500000000E-02 0.  1.
          2   -1    0    0  501    0  0.00000000000E+00 -0.00000000000E+00 -0.23411410934E+04  0.23411410934E+04  0.25500000000E-02 0. -1.
    8880022    1    1    2    0    0 -0.40485025457E+03 -0.29448827027E+03 -0.51954368064E+03  0.73752583620E+03  0.15294330000E+03 0.  0.
    8880022    1    1    2    0    0  0.40485025457E+03  0.29448827027E+03 -0.16726060855E+04  0.17526065845E+04  0.15294330000E+03 0.  0.
<mgrwt>
<rscale>  0 0.52346798E+03</rscale>
<asrwt>0</asrwt>
<pdfrwt beam="1">  1        2 0.36017553E+00 0.52346798E+03</pdfrwt>
<pdfrwt beam="2">  1       -2 0.22921744E-01 0.52346798E+03</pdfrwt>
<totfact> 0.76983781E+01</totfact>
</mgrwt>
</event>
<event>
 4    1  0.1033139E-008  0.1657466E+04  0.7818608E-02  0.8786002E-01
          2   -1    0    0  501    0  0.00000000000E+00  0.00000000000E+00  0.22611418169E+04  0.22611418169E+04  0.25500000000E-02 0. -1.
         -2   -1    0    0    0  501 -0.00000000000E+00 -0.00000000000E+00 -0.13490968256E+04  0.13490968256E+04  0.25500000000E-02 0.  1.
    8880022    1    1    2    0    0 -0.10335781962E+04 -0.12866688889E+04  0.10252181588E+04  0.19489137086E+04  0.15294330000E+03 0.  0.
    8880022    1    1    2    0    0  0.10335781962E+04  0.12866688889E+04 -0.11317316744E+03  0.16613249339E+04  0.15294330000E+03 0.  0.
<mgrwt>
<rscale>  0 0.16574656E+04</rscale>
<asrwt>0</asrwt>
<pdfrwt beam="1">  1        2 0.34786797E+00 0.16574656E+04</pdfrwt>
<pdfrwt beam="2">  1       -2 0.20755336E+00 0.16574656E+04</pdfrwt>
<totfact> 0.52321885E-01</totfact>
</mgrwt>
</event>
<event>
 4    1  0.1033139E-008  0.6915509E+03  0.7818608E-02  0.9731791E-01
          2   -1    0    0  501    0  0.00000000000E+00  0.00000000000E+00  0.15415525288E+04  0.15415525288E+04  0.25500000000E-02 0. -1.
         -2   -1    0    0    0  501 -0.00000000000E+00 -0.00000000000E+00 -0.51609392638E+03  0.51609392639E+03  0.25500000000E-02 0.  1.
    8880022    1    1    2    0    0  0.65924093040E+03  0.14231065036E+03  0.11625026619E+04  0.13526474106E+04  0.15294330000E+03 0. -1.
    8880022    1    1    2    0    0 -0.65924093040E+03 -0.14231065036E+03 -0.13704405952E+03  0.70499904453E+03  0.15294330000E+03 0.  0.
<mgrwt>
<rscale>  0 0.69155085E+03</rscale>
<asrwt>0</asrwt>
<pdfrwt beam="1">  1        2 0.23716192E+00 0.69155085E+03</pdfrwt>
<pdfrwt beam="2">  1       -2 0.79399067E-01 0.69155085E+03</pdfrwt>
<totfact> 0.17464365E+01</totfact>
</mgrwt>
</event>
<event>
 4    1  0.1033139E-008  0.6477222E+03  0.7818608E-02  0.9811063E-01
          2   -1    0    0  501    0  0.00000000000E+00  0.00000000000E+00  0.10275134956E+04  0.10275134956E+04  0.25500000000E-02 0. -1.
         -2   -1    0    0    0  501 -0.00000000000E+00 -0.00000000000E+00 -0.77277663817E+03  0.77277663818E+03  0.25500000000E-02 0.  1.
    8880022    1    1    2    0    0 -0.48575845987E+03 -0.40023875392E+03  0.74554768498E+03  0.98761599069E+03  0.15294330000E+03 0.  0.
    8880022    1    1    2    0    0  0.48575845987E+03  0.40023875392E+03 -0.49081082752E+03  0.81267414312E+03  0.15294330000E+03 0.  0.
<mgrwt>
<rscale>  0 0.64772216E+03</rscale>
<asrwt>0</asrwt>
<pdfrwt beam="1">  1        2 0.15807900E+00 0.64772216E+03</pdfrwt>
<pdfrwt beam="2">  1       -2 0.11888871E+00 0.64772216E+03</pdfrwt>
<totfact> 0.13540171E+01</totfact>
</mgrwt>
</event>
<event>
 4    1  0.1033139E-008  0.6009175E+03  0.7818608E-02  0.9903504E-01
         -2   -1    0    0    0  501 -0.00000000000E+00  0.00000000000E+00  0.12571463122E+04  0.12571463122E+04  0.25500000000E-02 0.  1.
          2   -1    0    0  501    0  0.00000000000E+00 -0.00000000000E+00 -0.61845931562E+03  0.61845931562E+03  0.25500000000E-02 0. -1.
    8880022    1    1    2    0    0 -0.53679695887E+03  0.22261911830E+03 -0.36695683888E+03  0.70410171247E+03  0.15294330000E+03 0.  0.
    8880022    1    1    2    0    0  0.53679695887E+03 -0.22261911830E+03  0.10056438355E+04  0.11715039154E+04  0.15294330000E+03 0.  0.
<mgrwt>
<rscale>  0 0.60091755E+03</rscale>
<asrwt>0</asrwt>
<pdfrwt beam="1">  1        2 0.95147588E-01 0.60091755E+03</pdfrwt>
<pdfrwt beam="2">  1       -2 0.19340712E+00 0.60091755E+03</pdfrwt>
<totfact> 0.73072441E+00</totfact>
</mgrwt>
</event>
<event>
 4    1  0.1033139E-008  0.1491220E+04  0.7818608E-02  0.8890312E-01
         -2   -1    0    0    0  501 -0.00000000000E+00  0.00000000000E+00  0.17420327937E+04  0.17420327937E+04  0.25500000000E-02 0.  1.
          2   -1    0    0  501    0  0.00000000000E+00 -0.00000000000E+00 -0.22403496505E+04  0.22403496505E+04  0.25500000000E-02 0. -1.
    8880022    1    1    2    0    0  0.50909934401E+03  0.13932566413E+04 -0.15551953247E+04  0.21546160589E+04  0.15294330000E+03 0.  0.
    8880022    1    1    2    0    0 -0.50909934401E+03 -0.13932566413E+04  0.10568784678E+04  0.18277663853E+04  0.15294330000E+03 0.  0.
<mgrwt>
<rscale>  0 0.14912203E+04</rscale>
<asrwt>0</asrwt>
<pdfrwt beam="1">  1        2 0.34466918E+00 0.14912203E+04</pdfrwt>
<pdfrwt beam="2">  1       -2 0.26800504E+00 0.14912203E+04</pdfrwt>
<totfact> 0.22918662E-01</totfact>
</mgrwt>
</event>
<event>
 4    1  0.1033139E-008  0.7261899E+03  0.7818608E-02  0.9673463E-01
          2   -1    0    0  501    0  0.00000000000E+00  0.00000000000E+00  0.44314833933E+04  0.44314833933E+04  0.25500000000E-02 0. -1.
         -2   -1    0    0    0  501 -0.00000000000E+00 -0.00000000000E+00 -0.47344703734E+03  0.47344703735E+03  0.25500000000E-02 0.  1.
    8880022    1    1    2    0    0  0.70666743530E+03  0.67685299720E+02 -0.14296578904E+03  0.74012906561E+03  0.15294330000E+03 0.  0.
    8880022    1    1    2    0    0 -0.70666743530E+03 -0.67685299720E+02  0.41010021450E+04  0.41648013651E+04  0.15294330000E+03 0.  0.
<mgrwt>
<rscale>  0 0.72618993E+03</rscale>
<asrwt>0</asrwt>
<pdfrwt beam="1">  1        2 0.68176668E+00 0.72618993E+03</pdfrwt>
<pdfrwt beam="2">  1       -2 0.72838005E-01 0.72618993E+03</pdfrwt>
<totfact> 0.28016338E-01</totfact>
</mgrwt>
</event>
<event>
 4    1  0.1033139E-008  0.4897304E+03  0.7818608E-02  0.1016495E+00
         -2   -1    0    0    0  501 -0.00000000000E+00  0.00000000000E+00  0.17222059425E+04  0.17222059425E+04  0.25500000000E-02 0.  1.
          2   -1    0    0  501    0  0.00000000000E+00 -0.00000000000E+00 -0.33680347775E+03  0.33680347776E+03  0.25500000000E-02 0. -1.
    8880022    1    1    2    0    0  0.10757889414E+03  0.45262675398E+03  0.14811445491E+04  0.15600080209E+04  0.15294330000E+03 0.  1.
    8880022    1    1    2    0    0 -0.10757889414E+03 -0.45262675398E+03 -0.95742084321E+02  0.49900139940E+03  0.15294330000E+03 0.  0.
<mgrwt>
<rscale>  0 0.48973038E+03</rscale>
<asrwt>0</asrwt>
<pdfrwt beam="1">  1        2 0.51815920E-01 0.48973038E+03</pdfrwt>
<pdfrwt beam="2">  1       -2 0.26495476E+00 0.48973038E+03</pdfrwt>
<totfact> 0.53881662E+00</totfact>
</mgrwt>
</event>
<event>
 4    1  0.1033139E-008  0.9428706E+03  0.7818608E-02  0.9373523E-01
          2   -1    0    0  501    0  0.00000000000E+00  0.00000000000E+00  0.24271385905E+04  0.24271385905E+04  0.25500000000E-02 0. -1.
         -2   -1    0    0    0  501 -0.00000000000E+00 -0.00000000000E+00 -0.44943625581E+03  0.44943625582E+03  0.25500000000E-02 0.  1.
    8880022    1    1    2    0    0  0.42845561915E+03  0.82585657583E+03  0.37016982129E+03  0.10129317109E+04  0.15294330000E+03 0.  0.
    8880022    1    1    2    0    0 -0.42845561915E+03 -0.82585657583E+03  0.16075325134E+04  0.18636431354E+04  0.15294330000E+03 0.  0.
<mgrwt>
<rscale>  0 0.94287059E+03</rscale>
<asrwt>0</asrwt>
<pdfrwt beam="1">  1        2 0.37340594E+00 0.94287059E+03</pdfrwt>
<pdfrwt beam="2">  1       -2 0.69144039E-01 0.94287059E+03</pdfrwt>
<totfact> 0.74502524E+00</totfact>
</mgrwt>
</event>
<event>
 4    1  0.1033139E-008  0.9662737E+03  0.7818608E-02  0.9346329E-01
          2   -1    0    0  501    0  0.00000000000E+00  0.00000000000E+00  0.14378205184E+04  0.14378205184E+04  0.25500000000E-02 0. -1.
         -2   -1    0    0    0  501 -0.00000000000E+00 -0.00000000000E+00 -0.78750089835E+03  0.78750089835E+03  0.25500000000E-02 0.  1.
    8880022    1    1    2    0    0  0.95219801983E+03  0.60101359965E+02 -0.14082801100E+03  0.97648216786E+03  0.15294330000E+03 0.  0.
    8880022    1    1    2    0    0 -0.95219801983E+03 -0.60101359965E+02  0.79114763107E+03  0.12488392489E+04  0.15294330000E+03 0.  0.
<mgrwt>
<rscale>  0 0.96627372E+03</rscale>
<asrwt>0</asrwt>
<pdfrwt beam="1">  1        2 0.22120316E+00 0.96627372E+03</pdfrwt>
<pdfrwt beam="2">  1       -2 0.12115398E+00 0.96627372E+03</pdfrwt>
<totfact> 0.71181884E+00</totfact>
</mgrwt>
</event>
<event>
 4    1  0.1033139E-008  0.1069036E+04  0.7818608E-02  0.9235908E-01
         -2   -1    0    0    0  501 -0.00000000000E+00  0.00000000000E+00  0.55332528014E+03  0.55332528015E+03  0.25500000000E-02 0.  1.
          2   -1    0    0  501    0  0.00000000000E+00 -0.00000000000E+00 -0.28320449858E+04  0.28320449858E+04  0.25500000000E-02 0. -1.
    8880022    1    1    2    0    0  0.42133521759E+03  0.97052724216E+03 -0.25866958327E+03  0.10998854939E+04  0.15294330000E+03 0.  0.
    8880022    1    1    2    0    0 -0.42133521759E+03 -0.97052724216E+03 -0.20200501224E+04  0.22854847721E+04  0.15294330000E+03 0.  0.
<mgrwt>
<rscale>  0 0.10690361E+04</rscale>
<asrwt>0</asrwt>
<pdfrwt beam="1">  1        2 0.43569922E+00 0.10690361E+04</pdfrwt>
<pdfrwt beam="2">  1       -2 0.85126968E-01 0.10690361E+04</pdfrwt>
<totfact> 0.26732531E+00</totfact>
</mgrwt>
</event>
<event>
 4    1  0.1033139E-008  0.9182951E+03  0.7818608E-02  0.9402996E-01
         -2   -1    0    0    0  501 -0.00000000000E+00  0.00000000000E+00  0.15266736612E+04  0.15266736612E+04  0.25500000000E-02 0.  1.
          2   -1    0    0  501    0  0.00000000000E+00 -0.00000000000E+00 -0.69471060388E+03  0.69471060389E+03  0.25500000000E-02 0. -1.
    8880022    1    1    2    0    0  0.90239640779E+03  0.74531430254E+02  0.91876267274E+03  0.12989960403E+04  0.15294330000E+03 0.  0.
    8880022    1    1    2    0    0 -0.90239640779E+03 -0.74531430254E+02 -0.86799615459E+02  0.92238822475E+03  0.15294330000E+03 0.  0.
<mgrwt>
<rscale>  0 0.91829509E+03</rscale>
<asrwt>0</asrwt>
<pdfrwt beam="1">  1        2 0.10687855E+00 0.91829509E+03</pdfrwt>
<pdfrwt beam="2">  1       -2 0.23487287E+00 0.91829509E+03</pdfrwt>
<totfact> 0.33157157E+00</totfact>
</mgrwt>
</event>
<event>
 4    1  0.1033139E-008  0.8066556E+03  0.7818608E-02  0.9550433E-01
          2   -1    0    0  501    0  0.00000000000E+00  0.00000000000E+00  0.23718248516E+04  0.23718248516E+04  0.25500000000E-02 0. -1.
         -2   -1    0    0    0  501 -0.00000000000E+00 -0.00000000000E+00 -0.97219417509E+03  0.97219417509E+03  0.25500000000E-02 0.  1.
    8880022    1    1    2    0    0 -0.74018987691E+03  0.28181638790E+03  0.21164037714E+04  0.22649190067E+04  0.15294330000E+03 0.  0.
    8880022    1    1    2    0    0  0.74018987691E+03 -0.28181638790E+03 -0.71677309494E+03  0.10791000199E+04  0.15294330000E+03 0.  0.
<mgrwt>
<rscale>  0 0.80665555E+03</rscale>
<asrwt>0</asrwt>
<pdfrwt beam="1">  1        2 0.36489613E+00 0.80665555E+03</pdfrwt>
<pdfrwt beam="2">  1       -2 0.14956834E+00 0.80665555E+03</pdfrwt>
<totfact> 0.12915099E+00</totfact>
</mgrwt>
</event>
<event>
 4    1  0.1033139E-008  0.6548564E+03  0.7818608E-02  0.9797709E-01
         -2   -1    0    0    0  501 -0.00000000000E+00  0.00000000000E+00  0.23165913572E+03  0.23165913573E+03  0.25500000000E-02 0.  1.
          2   -1    0    0  501    0  0.00000000000E+00 -0.00000000000E+00 -0.23504778373E+04  0.23504778373E+04  0.25500000000E-02 0. -1.
    8880022    1    1    2    0    0  0.55509077348E+03 -0.31196076415E+03 -0.16544710116E+04  0.17793569811E+04  0.15294330000E+03 0.  0.
    8880022    1    1    2    0    0 -0.55509077348E+03  0.31196076415E+03 -0.46434769001E+03  0.80277999190E+03  0.15294330000E+03 0.  0.
<mgrwt>
<rscale>  0 0.65485643E+03</rscale>
<asrwt>0</asrwt>
<pdfrwt beam="1">  1        2 0.36161196E+00 0.65485643E+03</pdfrwt>
<pdfrwt beam="2">  1       -2 0.35639869E-01 0.65485643E+03</pdfrwt>
<totfact> 0.33101569E+01</totfact>
</mgrwt>
</event>
<event>
 4    1  0.1033139E-008  0.5448521E+03  0.7818608E-02  0.1002693E+00
          2   -1    0    0  501    0  0.00000000000E+00  0.00000000000E+00  0.13908375505E+04  0.13908375505E+04  0.25500000000E-02 0. -1.
         -2   -1    0    0    0  501 -0.00000000000E+00 -0.00000000000E+00 -0.83056215467E+03  0.83056215467E+03  0.25500000000E-02 0.  1.
    8880022    1    1    2    0    0 -0.44844082360E+03 -0.26902226978E+03 -0.67726653601E+03  0.86922595895E+03  0.15294330000E+03 0.  0.
    8880022    1    1    2    0    0  0.44844082360E+03  0.26902226978E+03  0.12375419319E+04  0.13521737463E+04  0.15294330000E+03 0.  0.
<mgrwt>
<rscale>  0 0.54485210E+03</rscale>
<asrwt>0</asrwt>
<pdfrwt beam="1">  1        2 0.21397501E+00 0.54485210E+03</pdfrwt>
<pdfrwt beam="2">  1       -2 0.12777879E+00 0.54485210E+03</pdfrwt>
<totfact> 0.70338907E+00</totfact>
</mgrwt>
</event>
<event>
 4    1  0.1033139E-008  0.1480278E+04  0.7818608E-02  0.8897675E-01
          2   -1    0    0  501    0  0.00000000000E+00  0.00000000000E+00  0.12619149200E+04  0.12619149200E+04  0.25500000000E-02 0. -1.
         -2   -1    0    0    0  501 -0.00000000000E+00 -0.00000000000E+00 -0.20382472315E+04  0.20382472315E+04  0.25500000000E-02 0.  1.
    8880022    1    1    2    0    0 -0.13456045343E+04 -0.59764501040E+03 -0.10231332724E+04  0.17994511572E+04  0.15294330000E+03 0.  0.
    8880022    1    1    2    0    0  0.13456045343E+04  0.59764501040E+03  0.24680096090E+03  0.15007109943E+04  0.15294330000E+03 0.  0.
<mgrwt>
<rscale>  0 0.14802779E+04</rscale>
<asrwt>0</asrwt>
<pdfrwt beam="1">  1        2 0.19414076E+00 0.14802779E+04</pdfrwt>
<pdfrwt beam="2">  1       -2 0.31357650E+00 0.14802779E+04</pdfrwt>
<totfact> 0.43185410E-01</totfact>
</mgrwt>
</event>
<event>
 4    1  0.1033139E-008  0.6856684E+03  0.7818608E-02  0.9742060E-01
          2   -1    0    0  501    0  0.00000000000E+00  0.00000000000E+00  0.14730000937E+04  0.14730000937E+04  0.25500000000E-02 0. -1.
         -2   -1    0    0    0  501 -0.00000000000E+00 -0.00000000000E+00 -0.35728477363E+03  0.35728477364E+03  0.25500000000E-02 0.  1.
    8880022    1    1    2    0    0  0.66670162719E+03 -0.47522516991E+02  0.85674942237E+03  0.10973425514E+04  0.15294330000E+03 0. -1.
    8880022    1    1    2    0    0 -0.66670162719E+03  0.47522516991E+02  0.25896589768E+03  0.73294231594E+03  0.15294330000E+03 0.  0.
<mgrwt>
<rscale>  0 0.68566836E+03</rscale>
<asrwt>0</asrwt>
<pdfrwt beam="1">  1        2 0.22661540E+00 0.68566836E+03</pdfrwt>
<pdfrwt beam="2">  1       -2 0.54966889E-01 0.68566836E+03</pdfrwt>
<totfact> 0.42130939E+01</totfact>
</mgrwt>
</event>
<event>
 4    1  0.1033139E-008  0.1065858E+04  0.7818608E-02  0.9239123E-01
         -2   -1    0    0    0  501 -0.00000000000E+00  0.00000000000E+00  0.79661271407E+03  0.79661271408E+03  0.25500000000E-02 0.  1.
          2   -1    0    0  501    0  0.00000000000E+00 -0.00000000000E+00 -0.29248262450E+04  0.29248262450E+04  0.25500000000E-02 0. -1.
    8880022    1    1    2    0    0  0.98175855535E+03 -0.38576085977E+03 -0.23960673607E+04  0.26224400378E+04  0.15294330000E+03 0.  0.
    8880022    1    1    2    0    0 -0.98175855535E+03  0.38576085977E+03  0.26785382971E+03  0.10989989213E+04  0.15294330000E+03 0.  0.
<mgrwt>
<rscale>  0 0.10658578E+04</rscale>
<asrwt>0</asrwt>
<pdfrwt beam="1">  1        2 0.44997327E+00 0.10658578E+04</pdfrwt>
<pdfrwt beam="2">  1       -2 0.12255580E+00 0.10658578E+04</pdfrwt>
<totfact> 0.98244917E-01</totfact>
</mgrwt>
</event>
<event>
 4    1  0.1033139E-008  0.5031581E+03  0.7818608E-02  0.1012958E+00
         -2   -1    0    0    0  501 -0.00000000000E+00  0.00000000000E+00  0.30369099554E+03  0.30369099555E+03  0.25500000000E-02 0.  1.
          2   -1    0    0  501    0  0.00000000000E+00 -0.00000000000E+00 -0.27668064954E+04  0.27668064954E+04  0.25500000000E-02 0. -1.
    8880022    1    1    2    0    0  0.26008729246E+03  0.40265491803E+03  0.51730831876E+02  0.50581035447E+03  0.15294330000E+03 0.  0.
    8880022    1    1    2    0    0 -0.26008729246E+03 -0.40265491803E+03 -0.25148463318E+04  0.25646871365E+04  0.15294330000E+03 0.  0.
<mgrwt>
<rscale>  0 0.50315806E+03</rscale>
<asrwt>0</asrwt>
<pdfrwt beam="1">  1        2 0.42566252E+00 0.50315806E+03</pdfrwt>
<pdfrwt beam="2">  1       -2 0.46721693E-01 0.50315806E+03</pdfrwt>
<totfact> 0.11694740E+01</totfact>
</mgrwt>
</event>
<event>
 4    1  0.1033139E-008  0.8348360E+03  0.7818608E-02  0.9510919E-01
         -2   -1    0    0    0  501 -0.00000000000E+00  0.00000000000E+00  0.16060701277E+04  0.16060701277E+04  0.25500000000E-02 0.  1.
          2   -1    0    0  501    0  0.00000000000E+00 -0.00000000000E+00 -0.96376537066E+03  0.96376537067E+03  0.25500000000E-02 0. -1.
    8880022    1    1    2    0    0 -0.82053346164E+03  0.16863738842E+02  0.12738447648E+04  0.15230337111E+04  0.15294330000E+03 0.  1.
    8880022    1    1    2    0    0  0.82053346164E+03 -0.16863738842E+02 -0.63154000777E+03  0.10468017872E+04  0.15294330000E+03 0.  0.
<mgrwt>
<rscale>  0 0.83483603E+03</rscale>
<asrwt>0</asrwt>
<pdfrwt beam="1">  1        2 0.14827160E+00 0.83483603E+03</pdfrwt>
<pdfrwt beam="2">  1       -2 0.24708771E+00 0.83483603E+03</pdfrwt>
<totfact> 0.18149106E+00</totfact>
</mgrwt>
</event>
<event>
 4    1  0.1033139E-008  0.5684252E+03  0.7818608E-02  0.9973169E-01
         -2   -1    0    0    0  501 -0.00000000000E+00  0.00000000000E+00  0.21334487166E+03  0.21334487168E+03  0.25500000000E-02 0.  1.
          2   -1    0    0  501    0  0.00000000000E+00 -0.00000000000E+00 -0.21368346922E+04  0.21368346922E+04  0.25500000000E-02 0. -1.
    8880022    1    1    2    0    0  0.52088261509E+02 -0.54497923883E+03 -0.15959116723E+04  0.16941196169E+04  0.15294330000E+03 0.  0.
    8880022    1    1    2    0    0 -0.52088261509E+02  0.54497923883E+03 -0.32757814825E+03  0.65605994694E+03  0.15294330000E+03 0.  0.
<mgrwt>
<rscale>  0 0.56842520E+03</rscale>
<asrwt>0</asrwt>
<pdfrwt beam="1">  1        2 0.32874378E+00 0.56842520E+03</pdfrwt>
<pdfrwt beam="2">  1       -2 0.32822289E-01 0.56842520E+03</pdfrwt>
<totfact> 0.51397789E+01</totfact>
</mgrwt>
</event>
<event>
 4    1  0.1033139E-008  0.8822864E+03  0.7818608E-02  0.9447999E-01
         -2   -1    0    0    0  501 -0.00000000000E+00  0.00000000000E+00  0.14715991160E+04  0.14715991160E+04  0.25500000000E-02 0.  1.
          2   -1    0    0  501    0  0.00000000000E+00 -0.00000000000E+00 -0.81733830969E+03  0.81733830970E+03  0.25500000000E-02 0. -1.
    8880022    1    1    2    0    0 -0.86034482293E+03  0.12183799942E+03  0.10069254572E+04  0.13387786381E+04  0.15294330000E+03 0.  0.
    8880022    1    1    2    0    0  0.86034482293E+03 -0.12183799942E+03 -0.35266465098E+03  0.95015878753E+03  0.15294330000E+03 0.  0.
<mgrwt>
<rscale>  0 0.88228644E+03</rscale>
<asrwt>0</asrwt>
<pdfrwt beam="1">  1        2 0.12574436E+00 0.88228644E+03</pdfrwt>
<pdfrwt beam="2">  1       -2 0.22639986E+00 0.88228644E+03</pdfrwt>
<totfact> 0.30402348E+00</totfact>
</mgrwt>
</event>
<event>
 4    1  0.1033139E-008  0.8162757E+03  0.7818608E-02  0.9536753E-01
          2   -1    0    0  501    0  0.00000000000E+00  0.00000000000E+00  0.29161506044E+04  0.29161506044E+04  0.25500000000E-02 0. -1.
         -2   -1    0    0    0  501 -0.00000000000E+00 -0.00000000000E+00 -0.36368510759E+03  0.36368510760E+03  0.25500000000E-02 0.  1.
    8880022    1    1    2    0    0  0.24981671118E+02  0.80143011767E+03  0.22761008938E+04  0.24180449229E+04  0.15294330000E+03 0.  0.
    8880022    1    1    2    0    0 -0.24981671118E+02 -0.80143011767E+03  0.27636460306E+03  0.86179078914E+03  0.15294330000E+03 0.  0.
<mgrwt>
<rscale>  0 0.81627567E+03</rscale>
<asrwt>0</asrwt>
<pdfrwt beam="1">  1        2 0.44863855E+00 0.81627567E+03</pdfrwt>
<pdfrwt beam="2">  1       -2 0.55951556E-01 0.81627567E+03</pdfrwt>
<totfact> 0.61848371E+00</totfact>
</mgrwt>
</event>
<event>
 4    1  0.1033139E-008  0.7342069E+03  0.7818608E-02  0.9660458E-01
         -2   -1    0    0    0  501 -0.00000000000E+00  0.00000000000E+00  0.81862687776E+03  0.81862687776E+03  0.25500000000E-02 0.  1.
          2   -1    0    0  501    0  0.00000000000E+00 -0.00000000000E+00 -0.11165459177E+04  0.11165459177E+04  0.25500000000E-02 0. -1.
    8880022    1    1    2    0    0 -0.61748655010E+03  0.36657664935E+03 -0.76869945472E+03  0.10629951007E+04  0.15294330000E+03 0.  0.
    8880022    1    1    2    0    0  0.61748655010E+03 -0.36657664935E+03  0.47078041474E+03  0.87217769481E+03  0.15294330000E+03 0.  0.
<mgrwt>
<rscale>  0 0.73420687E+03</rscale>
<asrwt>0</asrwt>
<pdfrwt beam="1">  1        2 0.17177630E+00 0.73420687E+03</pdfrwt>
<pdfrwt beam="2">  1       -2 0.12594260E+00 0.73420687E+03</pdfrwt>
<totfact> 0.10220454E+01</totfact>
</mgrwt>
</event>
<event>
 4    1  0.1033139E-008  0.4116418E+03  0.7818608E-02  0.1039821E+00
          2   -1    0    0  501    0  0.00000000000E+00  0.00000000000E+00  0.17257313427E+04  0.17257313427E+04  0.25500000000E-02 0. -1.
         -2   -1    0    0    0  501 -0.00000000000E+00 -0.00000000000E+00 -0.25071817999E+03  0.25071818000E+03  0.25500000000E-02 0.  1.
    8880022    1    1    2    0    0  0.36180941972E+03 -0.12309034085E+03 -0.33287503683E+02  0.41298547084E+03  0.15294330000E+03 0.  0.
    8880022    1    1    2    0    0 -0.36180941972E+03  0.12309034085E+03  0.15083006664E+04  0.15634640519E+04  0.15294330000E+03 0.  0.
<mgrwt>
<rscale>  0 0.41164176E+03</rscale>
<asrwt>0</asrwt>
<pdfrwt beam="1">  1        2 0.26549712E+00 0.41164176E+03</pdfrwt>
<pdfrwt beam="2">  1       -2 0.38572029E-01 0.41164176E+03</pdfrwt>
<totfact> 0.64771139E+01</totfact>
</mgrwt>
</event>
<event>
 4    1  0.1033139E-008  0.8342866E+03  0.7818608E-02  0.9511673E-01
          2   -1    0    0  501    0  0.00000000000E+00  0.00000000000E+00  0.88270418564E+03  0.88270418565E+03  0.25500000000E-02 0. -1.
         -2   -1    0    0    0  501 -0.00000000000E+00 -0.00000000000E+00 -0.13954668752E+04  0.13954668752E+04  0.25500000000E-02 0.  1.
    8880022    1    1    2    0    0  0.31603405689E+03  0.75681237791E+03  0.49484392255E+03  0.97000240266E+03  0.15294330000E+03 0.  0.
    8880022    1    1    2    0    0 -0.31603405689E+03 -0.75681237791E+03 -0.10076066121E+04  0.13081686582E+04  0.15294330000E+03 0.  0.
<mgrwt>
<rscale>  0 0.83428661E+03</rscale>
<asrwt>0</asrwt>
<pdfrwt beam="1">  1        2 0.13580064E+00 0.83428661E+03</pdfrwt>
<pdfrwt beam="2">  1       -2 0.21468721E+00 0.83428661E+03</pdfrwt>
<totfact> 0.32618966E+00</totfact>
</mgrwt>
</event>
<event>
 4    1  0.1033139E-008  0.4960872E+03  0.7818608E-02  0.1014805E+00
          2   -1    0    0  501    0  0.00000000000E+00  0.00000000000E+00  0.17970354175E+04  0.17970354175E+04  0.25500000000E-02 0. -1.
         -2   -1    0    0    0  501 -0.00000000000E+00 -0.00000000000E+00 -0.42606532521E+03  0.42606532522E+03  0.25500000000E-02 0.  1.
    8880022    1    1    2    0    0 -0.32287679018E+03  0.34418233913E+03 -0.23016013101E+03  0.54687863656E+03  0.15294330000E+03 0.  0.
    8880022    1    1    2    0    0  0.32287679018E+03 -0.34418233913E+03  0.16011302233E+04  0.16762221061E+04  0.15294330000E+03 0.  0.
<mgrwt>
<rscale>  0 0.49608725E+03</rscale>
<asrwt>0</asrwt>
<pdfrwt beam="1">  1        2 0.27646698E+00 0.49608725E+03</pdfrwt>
<pdfrwt beam="2">  1       -2 0.65548512E-01 0.49608725E+03</pdfrwt>
<totfact> 0.19933875E+01</totfact>
</mgrwt>
</event>
<event>
 4    1  0.1033139E-008  0.2981594E+03  0.7818608E-02  0.1086164E+00
          2   -1    0    0  501    0  0.00000000000E+00  0.00000000000E+00  0.42134872124E+04  0.42134872124E+04  0.25500000000E-02 0. -1.
         -2   -1    0    0    0  501 -0.00000000000E+00 -0.00000000000E+00 -0.29755192337E+03  0.29755192338E+03  0.25500000000E-02 0.  1.
    8880022    1    1    2    0    0  0.26949733655E+02 -0.25452131806E+03  0.41320503360E+04  0.41427936253E+04  0.15294330000E+03 0.  0.
    8880022    1    1    2    0    0 -0.26949733655E+02  0.25452131806E+03 -0.21611504694E+03  0.36824551052E+03  0.15294330000E+03 0.  0.
<mgrwt>
<rscale>  0 0.29815942E+03</rscale>
<asrwt>0</asrwt>
<pdfrwt beam="1">  1        2 0.64822877E+00 0.29815942E+03</pdfrwt>
<pdfrwt beam="2">  1       -2 0.45777222E-01 0.29815942E+03</pdfrwt>
<totfact> 0.13795238E+00</totfact>
</mgrwt>
</event>
<event>
 4    1  0.1033139E-008  0.6256548E+03  0.7818608E-02  0.9853565E-01
          2   -1    0    0  501    0  0.00000000000E+00  0.00000000000E+00  0.35600320693E+03  0.35600320694E+03  0.25500000000E-02 0. -1.
         -2   -1    0    0    0  501 -0.00000000000E+00 -0.00000000000E+00 -0.14057782211E+04  0.14057782211E+04  0.25500000000E-02 0.  1.
    8880022    1    1    2    0    0  0.57018015701E+02 -0.60398780400E+03 -0.11375204231E+03  0.63591155174E+03  0.15294330000E+03 0.  0.
    8880022    1    1    2    0    0 -0.57018015701E+02  0.60398780400E+03 -0.93602297182E+03  0.11258698763E+04  0.15294330000E+03 0.  0.
<mgrwt>
<rscale>  0 0.62565484E+03</rscale>
<asrwt>0</asrwt>
<pdfrwt beam="1">  1        2 0.54769725E-01 0.62565484E+03</pdfrwt>
<pdfrwt beam="2">  1       -2 0.21627357E+00 0.62565484E+03</pdfrwt>
<totfact> 0.97991840E+00</totfact>
</mgrwt>
</event>
<event>
 4    1  0.1033139E-008  0.2544294E+03  0.7818608E-02  0.1110537E+00
          2   -1    0    0  501    0  0.00000000000E+00  0.00000000000E+00  0.13313334375E+04  0.13313334375E+04  0.25500000000E-02 0. -1.
         -2   -1    0    0    0  501 -0.00000000000E+00 -0.00000000000E+00 -0.63036465216E+02  0.63036465268E+02  0.25500000000E-02 0.  1.
    8880022    1    1    2    0    0  0.13978404862E+02  0.20284787607E+03  0.30077866800E+03  0.39395699863E+03  0.15294330000E+03 0.  1.
    8880022    1    1    2    0    0 -0.13978404862E+02 -0.20284787607E+03  0.96751830423E+03  0.10004129041E+04  0.15294330000E+03 0.  0.
<mgrwt>
<rscale>  0 0.25442938E+03</rscale>
<asrwt>0</asrwt>
<pdfrwt beam="1">  1        2 0.20482054E+00 0.25442938E+03</pdfrwt>
<pdfrwt beam="2">  1       -2 0.96979171E-02 0.25442938E+03</pdfrwt>
<totfact> 0.11775011E+03</totfact>
</mgrwt>
</event>
<event>
 4    1  0.1033139E-008  0.4852185E+03  0.7818608E-02  0.1017711E+00
          2   -1    0    0  501    0  0.00000000000E+00  0.00000000000E+00  0.17663674388E+04  0.17663674388E+04  0.25500000000E-02 0. -1.
         -2   -1    0    0    0  501 -0.00000000000E+00 -0.00000000000E+00 -0.22954423765E+03  0.22954423767E+03  0.25500000000E-02 0.  1.
    8880022    1    1    2    0    0 -0.10272087454E+03 -0.44888056622E+03  0.12217616943E+03  0.50036387778E+03  0.15294330000E+03 0.  0.
    8880022    1    1    2    0    0  0.10272087454E+03  0.44888056622E+03  0.14146470317E+04  0.14955477987E+04  0.15294330000E+03 0.  0.
<mgrwt>
<rscale>  0 0.48521850E+03</rscale>
<asrwt>0</asrwt>
<pdfrwt beam="1">  1        2 0.27174884E+00 0.48521850E+03</pdfrwt>
<pdfrwt beam="2">  1       -2 0.35314498E-01 0.48521850E+03</pdfrwt>
<totfact> 0.71921367E+01</totfact>
</mgrwt>
</event>
<event>
 4    1  0.1033139E-008  0.1323557E+04  0.7818608E-02  0.9011090E-01
         -2   -1    0    0    0  501 -0.00000000000E+00  0.00000000000E+00  0.14259916975E+04  0.14259916975E+04  0.25500000000E-02 0.  1.
          2   -1    0    0  501    0  0.00000000000E+00 -0.00000000000E+00 -0.15261038015E+04  0.15261038015E+04  0.25500000000E-02 0. -1.
    8880022    1    1    2    0    0  0.39477120387E+03 -0.12540203890E+04 -0.70189721809E+03  0.14981531288E+04  0.15294330000E+03 0.  0.
    8880022    1    1    2    0    0 -0.39477120387E+03  0.12540203890E+04  0.60178511406E+03  0.14539423702E+04  0.15294330000E+03 0.  0.
<mgrwt>
<rscale>  0 0.13235570E+04</rscale>
<asrwt>0</asrwt>
<pdfrwt beam="1">  1        2 0.23478520E+00 0.13235570E+04</pdfrwt>
<pdfrwt beam="2">  1       -2 0.21938334E+00 0.13235570E+04</pdfrwt>
<totfact> 0.11714535E+00</totfact>
</mgrwt>
</event>
<event>
 4    1  0.1033139E-008  0.5509106E+03  0.7818608E-02  0.1001283E+00
         -2   -1    0    0    0  501 -0.00000000000E+00  0.00000000000E+00  0.30363949826E+03  0.30363949827E+03  0.25500000000E-02 0.  1.
          2   -1    0    0  501    0  0.00000000000E+00 -0.00000000000E+00 -0.17868843017E+04  0.17868843017E+04  0.25500000000E-02 0. -1.
    8880022    1    1    2    0    0  0.78331207427E+02 -0.52342622761E+03 -0.14354584597E+04  0.15375446128E+04  0.15294330000E+03 0.  0.
    8880022    1    1    2    0    0 -0.78331207427E+02  0.52342622761E+03 -0.47786343761E+02  0.55297918720E+03  0.15294330000E+03 0.  1.
<mgrwt>
<rscale>  0 0.55091056E+03</rscale>
<asrwt>0</asrwt>
<pdfrwt beam="1">  1        2 0.27490527E+00 0.55091056E+03</pdfrwt>
<pdfrwt beam="2">  1       -2 0.46713770E-01 0.55091056E+03</pdfrwt>
<totfact> 0.40256223E+01</totfact>
</mgrwt>
</event>
<event>
 4    1  0.1033139E-008  0.8433051E+03  0.7818608E-02  0.9499367E-01
          2   -1    0    0  501    0  0.00000000000E+00  0.00000000000E+00  0.28517699743E+04  0.28517699743E+04  0.25500000000E-02 0. -1.
         -2   -1    0    0    0  501 -0.00000000000E+00 -0.00000000000E+00 -0.10462521735E+04  0.10462521735E+04  0.25500000000E-02 0.  1.
    8880022    1    1    2    0    0  0.18482571677E+03  0.80846230074E+03 -0.79819088605E+03  0.11611512308E+04  0.15294330000E+03 0.  0.
    8880022    1    1    2    0    0 -0.18482571677E+03 -0.80846230074E+03  0.26037086869E+04  0.27368709170E+04  0.15294330000E+03 0.  0.
<mgrwt>
<rscale>  0 0.84330510E+03</rscale>
<asrwt>0</asrwt>
<pdfrwt beam="1">  1        2 0.43873384E+00 0.84330510E+03</pdfrwt>
<pdfrwt beam="2">  1       -2 0.16096187E+00 0.84330510E+03</pdfrwt>
<totfact> 0.55615411E-01</totfact>
</mgrwt>
</event>
<event>
 4    1  0.1033139E-008  0.4828691E+03  0.7818608E-02  0.1018350E+00
          2   -1    0    0  501    0  0.00000000000E+00  0.00000000000E+00  0.19703542680E+04  0.19703542680E+04  0.25500000000E-02 0. -1.
         -2   -1    0    0    0  501 -0.00000000000E+00 -0.00000000000E+00 -0.41346649605E+03  0.41346649606E+03  0.25500000000E-02 0.  1.
    8880022    1    1    2    0    0 -0.25027344895E+03 -0.38358062903E+03 -0.22855958384E+03  0.53423031980E+03  0.15294330000E+03 0.  1.
    8880022    1    1    2    0    0  0.25027344895E+03  0.38358062903E+03  0.17854473558E+04  0.18495904442E+04  0.15294330000E+03 0.  0.
<mgrwt>
<rscale>  0 0.48286908E+03</rscale>
<asrwt>0</asrwt>
<pdfrwt beam="1">  1        2 0.30313142E+00 0.48286908E+03</pdfrwt>
<pdfrwt beam="2">  1       -2 0.63610230E-01 0.48286908E+03</pdfrwt>
<totfact> 0.17199178E+01</totfact>
</mgrwt>
</event>
<event>
 4    1  0.1033139E-008  0.1304710E+04  0.7818608E-02  0.9025838E-01
         -2   -1    0    0    0  501 -0.00000000000E+00  0.00000000000E+00  0.23785590683E+04  0.23785590683E+04  0.25500000000E-02 0.  1.
          2   -1    0    0  501    0  0.00000000000E+00 -0.00000000000E+00 -0.11726820240E+04  0.11726820240E+04  0.25500000000E-02 0. -1.
    8880022    1    1    2    0    0 -0.71996620370E+03  0.10772766776E+04 -0.50552884014E+03  0.13992238691E+04  0.15294330000E+03 0.  0.
    8880022    1    1    2    0    0  0.71996620370E+03 -0.10772766776E+04  0.17114058844E+04  0.21520172232E+04  0.15294330000E+03 0.  1.
<mgrwt>
<rscale>  0 0.13047099E+04</rscale>
<asrwt>0</asrwt>
<pdfrwt beam="1">  1        2 0.18041262E+00 0.13047099E+04</pdfrwt>
<pdfrwt beam="2">  1       -2 0.36593217E+00 0.13047099E+04</pdfrwt>
<totfact> 0.23492808E-01</totfact>
</mgrwt>
</event>
<event>
 4    1  0.1033139E-008  0.8418905E+03  0.7818608E-02  0.9501286E-01
         -2   -1    0    0    0  501 -0.00000000000E+00  0.00000000000E+00  0.62244643872E+03  0.62244643872E+03  0.25500000000E-02 0.  1.
          2   -1    0    0  501    0  0.00000000000E+00 -0.00000000000E+00 -0.16470863432E+04  0.16470863432E+04  0.25500000000E-02 0. -1.
    8880022    1    1    2    0    0  0.24309125465E+03 -0.79138780712E+03  0.11812225258E+03  0.85013677660E+03  0.15294330000E+03 0.  0.
    8880022    1    1    2    0    0 -0.24309125465E+03  0.79138780712E+03 -0.11427621571E+04  0.14193960054E+04  0.15294330000E+03 0.  0.
<mgrwt>
<rscale>  0 0.84189053E+03</rscale>
<asrwt>0</asrwt>
<pdfrwt beam="1">  1        2 0.25339790E+00 0.84189053E+03</pdfrwt>
<pdfrwt beam="2">  1       -2 0.95760991E-01 0.84189053E+03</pdfrwt>
<totfact> 0.97461942E+00</totfact>
</mgrwt>
</event>
<event>
 4    1  0.1033139E-008  0.3412892E+03  0.7818608E-02  0.1066248E+00
          2   -1    0    0  501    0  0.00000000000E+00  0.00000000000E+00  0.13657014966E+04  0.13657014966E+04  0.25500000000E-02 0. -1.
         -2   -1    0    0    0  501 -0.00000000000E+00 -0.00000000000E+00 -0.84844452220E+03  0.84844452220E+03  0.25500000000E-02 0.  1.
    8880022    1    1    2    0    0  0.22811029811E+03  0.20261388547E+03  0.13085848863E+04  0.13523582190E+04  0.15294330000E+03 0.  0.
    8880022    1    1    2    0    0 -0.22811029811E+03 -0.20261388547E+03 -0.79132791194E+03  0.86178779982E+03  0.15294330000E+03 0.  0.
<mgrwt>
<rscale>  0 0.34128924E+03</rscale>
<asrwt>0</asrwt>
<pdfrwt beam="1">  1        2 0.21010792E+00 0.34128924E+03</pdfrwt>
<pdfrwt beam="2">  1       -2 0.13052993E+00 0.34128924E+03</pdfrwt>
<totfact> 0.72418651E+00</totfact>
</mgrwt>
</event>
<event>
 4    1  0.1033139E-008  0.7376323E+03  0.7818608E-02  0.9654956E-01
          2   -1    0    0  501    0  0.00000000000E+00  0.00000000000E+00  0.18326177479E+04  0.18326177479E+04  0.25500000000E-02 0. -1.
         -2   -1    0    0    0  501 -0.00000000000E+00 -0.00000000000E+00 -0.45900473597E+03  0.45900473598E+03  0.25500000000E-02 0.  1.
    8880022    1    1    2    0    0  0.38928683173E+03 -0.60758994592E+03  0.13677394980E+04  0.15539667844E+04  0.15294330000E+03 0.  0.
    8880022    1    1    2    0    0 -0.38928683173E+03  0.60758994592E+03  0.58735139305E+01  0.73765569944E+03  0.15294330000E+03 0.  0.
<mgrwt>
<rscale>  0 0.73763232E+03</rscale>
<asrwt>0</asrwt>
<pdfrwt beam="1">  1        2 0.28194120E+00 0.73763232E+03</pdfrwt>
<pdfrwt beam="2">  1       -2 0.70616111E-01 0.73763232E+03</pdfrwt>
<totfact> 0.15586398E+01</totfact>
</mgrwt>
</event>
<event>
 4    1  0.1033139E-008  0.6862386E+03  0.7818608E-02  0.9741060E-01
         -2   -1    0    0    0  501 -0.00000000000E+00  0.00000000000E+00  0.18691858823E+03  0.18691858825E+03  0.25500000000E-02 0.  1.
          2   -1    0    0  501    0  0.00000000000E+00 -0.00000000000E+00 -0.34517711445E+04  0.34517711445E+04  0.25500000000E-02 0. -1.
    8880022    1    1    2    0    0 -0.34778161453E+03 -0.57147153523E+03 -0.68686966406E+03  0.97093426935E+03  0.15294330000E+03 0.  0.
    8880022    1    1    2    0    0  0.34778161453E+03  0.57147153523E+03 -0.25779828922E+04  0.26677554634E+04  0.15294330000E+03 0.  0.
<mgrwt>
<rscale>  0 0.68623860E+03</rscale>
<asrwt>0</asrwt>
<pdfrwt beam="1">  1        2 0.53104167E+00 0.68623860E+03</pdfrwt>
<pdfrwt beam="2">  1       -2 0.28756708E-01 0.68623860E+03</pdfrwt>
<totfact> 0.10633333E+01</totfact>
</mgrwt>
</event>
<event>
 4    1  0.1033139E-008  0.1247209E+04  0.7818608E-02  0.9072510E-01
          2   -1    0    0  501    0  0.00000000000E+00  0.00000000000E+00  0.26022326770E+04  0.26022326770E+04  0.25500000000E-02 0. -1.
         -2   -1    0    0    0  501 -0.00000000000E+00 -0.00000000000E+00 -0.61972294324E+03  0.61972294325E+03  0.25500000000E-02 0.  1.
    8880022    1    1    2    0    0 -0.11996207255E+04  0.30503695202E+03  0.68802928770E+03  0.14243993053E+04  0.15294330000E+03 0.  0.
    8880022    1    1    2    0    0  0.11996207255E+04 -0.30503695202E+03  0.12944804461E+04  0.17975563150E+04  0.15294330000E+03 0.  0.
<mgrwt>
<rscale>  0 0.12472085E+04</rscale>
<asrwt>0</asrwt>
<pdfrwt beam="1">  1        2 0.40034349E+00 0.12472085E+04</pdfrwt>
<pdfrwt beam="2">  1       -2 0.95341990E-01 0.12472085E+04</pdfrwt>
<totfact> 0.27477606E+00</totfact>
</mgrwt>
</event>
<event>
 4    1  0.1033139E-008  0.8238578E+03  0.7818608E-02  0.9526112E-01
          2   -1    0    0  501    0  0.00000000000E+00  0.00000000000E+00  0.11022744864E+04  0.11022744864E+04  0.25500000000E-02 0. -1.
         -2   -1    0    0    0  501 -0.00000000000E+00 -0.00000000000E+00 -0.11472919977E+04  0.11472919977E+04  0.25500000000E-02 0.  1.
    8880022    1    1    2    0    0 -0.63584708923E+03  0.50104744525E+03  0.74307840699E+03  0.11094625885E+04  0.15294330000E+03 0.  0.
    8880022    1    1    2    0    0  0.63584708923E+03 -0.50104744525E+03 -0.78809591838E+03  0.11401038956E+04  0.15294330000E+03 0.  0.
<mgrwt>
<rscale>  0 0.82385783E+03</rscale>
<asrwt>0</asrwt>
<pdfrwt beam="1">  1        2 0.16958069E+00 0.82385783E+03</pdfrwt>
<pdfrwt beam="2">  1       -2 0.17650646E+00 0.82385783E+03</pdfrwt>
<totfact> 0.42143596E+00</totfact>
</mgrwt>
</event>
<event>
 4    1  0.1033139E-008  0.4199311E+03  0.7818608E-02  0.1037089E+00
         -2   -1    0    0    0  501 -0.00000000000E+00  0.00000000000E+00  0.14880988651E+03  0.14880988654E+03  0.25500000000E-02 0.  1.
          2   -1    0    0  501    0  0.00000000000E+00 -0.00000000000E+00 -0.23045129913E+04  0.23045129913E+04  0.25500000000E-02 0. -1.
    8880022    1    1    2    0    0 -0.38206724800E+03 -0.83516967386E+02 -0.22289003150E+03  0.47541780046E+03  0.15294330000E+03 0.  1.
    8880022    1    1    2    0    0  0.38206724800E+03  0.83516967386E+02 -0.19328130733E+04  0.19779050773E+04  0.15294330000E+03 0.  0.
<mgrwt>
<rscale>  0 0.41993109E+03</rscale>
<asrwt>0</asrwt>
<pdfrwt beam="1">  1        2 0.35454043E+00 0.41993109E+03</pdfrwt>
<pdfrwt beam="2">  1       -2 0.22893830E-01 0.41993109E+03</pdfrwt>
<totfact> 0.82425080E+01</totfact>
</mgrwt>
</event>
<event>
 4    1  0.1033139E-008  0.8505235E+03  0.7818608E-02  0.9489635E-01
          2   -1    0    0  501    0  0.00000000000E+00  0.00000000000E+00  0.77950574355E+03  0.77950574355E+03  0.25500000000E-02 0. -1.
         -2   -1    0    0    0  501 -0.00000000000E+00 -0.00000000000E+00 -0.11472074460E+04  0.11472074460E+04  0.25500000000E-02 0.  1.
    8880022    1    1    2    0    0  0.69695503749E+03  0.46287387369E+03 -0.60494816839E+03  0.10437205022E+04  0.15294330000E+03 0.  0.
    8880022    1    1    2    0    0 -0.69695503749E+03 -0.46287387369E+03  0.23724646598E+03  0.88299268733E+03  0.15294330000E+03 0.  0.
<mgrwt>
<rscale>  0 0.85052349E+03</rscale>
<asrwt>0</asrwt>
<pdfrwt beam="1">  1        2 0.11992396E+00 0.85052349E+03</pdfrwt>
<pdfrwt beam="2">  1       -2 0.17649345E+00 0.85052349E+03</pdfrwt>
<totfact> 0.68846222E+00</totfact>
</mgrwt>
</event>
<event>
 4    1  0.1033139E-008  0.2487113E+03  0.7818608E-02  0.1114122E+00
          2   -1    0    0  501    0  0.00000000000E+00  0.00000000000E+00  0.12603451461E+04  0.12603451461E+04  0.25500000000E-02 0. -1.
         -2   -1    0    0    0  501 -0.00000000000E+00 -0.00000000000E+00 -0.80946382327E+02  0.80946382367E+02  0.25500000000E-02 0.  1.
    8880022    1    1    2    0    0  0.42343051087E+02  0.19150129775E+03  0.16891167949E+03  0.30064678528E+03  0.15294330000E+03 0.  0.
    8880022    1    1    2    0    0 -0.42343051087E+02 -0.19150129775E+03  0.10104870843E+04  0.10406447432E+04  0.15294330000E+03 0. -1.
<mgrwt>
<rscale>  0 0.24871135E+03</rscale>
<asrwt>0</asrwt>
<pdfrwt beam="1">  1        2 0.19389927E+00 0.24871135E+03</pdfrwt>
<pdfrwt beam="2">  1       -2 0.12453289E-01 0.24871135E+03</pdfrwt>
<totfact> 0.86289946E+02</totfact>
</mgrwt>
</event>
<event>
 4    1  0.1033139E-008  0.1468543E+04  0.7818608E-02  0.8905645E-01
          2   -1    0    0  501    0  0.00000000000E+00  0.00000000000E+00  0.24921948122E+04  0.24921948122E+04  0.25500000000E-02 0. -1.
         -2   -1    0    0    0  501 -0.00000000000E+00 -0.00000000000E+00 -0.22876941191E+04  0.22876941191E+04  0.25500000000E-02 0.  1.
    8880022    1    1    2    0    0 -0.12106969425E+04  0.81696946826E+03  0.19867295618E+04  0.24705692064E+04  0.15294330000E+03 0.  0.
    8880022    1    1    2    0    0  0.12106969425E+04 -0.81696946826E+03 -0.17822288687E+04  0.23093197250E+04  0.15294330000E+03 0.  0.
<mgrwt>
<rscale>  0 0.14685428E+04</rscale>
<asrwt>0</asrwt>
<pdfrwt beam="1">  1        2 0.38341459E+00 0.14685428E+04</pdfrwt>
<pdfrwt beam="2">  1       -2 0.35195294E+00 0.14685428E+04</pdfrwt>
<totfact> 0.50211290E-02</totfact>
</mgrwt>
</event>
<event>
 4    1  0.1033139E-008  0.1176527E+04  0.7818608E-02  0.9133655E-01
          2   -1    0    0  501    0  0.00000000000E+00  0.00000000000E+00  0.35956292793E+04  0.35956292793E+04  0.25500000000E-02 0. -1.
         -2   -1    0    0    0  501 -0.00000000000E+00 -0.00000000000E+00 -0.87108749057E+03  0.87108749057E+03  0.25500000000E-02 0.  1.
    8880022    1    1    2    0    0  0.11661843694E+04 -0.28932830637E+02 -0.30611877121E+03  0.12156987486E+04  0.15294330000E+03 0.  0.
    8880022    1    1    2    0    0 -0.11661843694E+04  0.28932830637E+02  0.30306605599E+04  0.32510180213E+04  0.15294330000E+03 0.  0.
<mgrwt>
<rscale>  0 0.11765266E+04</rscale>
<asrwt>0</asrwt>
<pdfrwt beam="1">  1        2 0.55317373E+00 0.11765266E+04</pdfrwt>
<pdfrwt beam="2">  1       -2 0.13401346E+00 0.11765266E+04</pdfrwt>
<totfact> 0.28018118E-01</totfact>
</mgrwt>
</event>
<event>
 4    1  0.1033139E-008  0.5088990E+03  0.7818608E-02  0.1011482E+00
          2   -1    0    0  501    0  0.00000000000E+00  0.00000000000E+00  0.33364293561E+04  0.33364293561E+04  0.25500000000E-02 0. -1.
         -2   -1    0    0    0  501 -0.00000000000E+00 -0.00000000000E+00 -0.70565588292E+03  0.70565588292E+03  0.25500000000E-02 0.  1.
    8880022    1    1    2    0    0  0.42770679181E+03 -0.22946340388E+03 -0.59126224201E+03  0.78010848305E+03  0.15294330000E+03 0.  0.
    8880022    1    1    2    0    0 -0.42770679181E+03  0.22946340388E+03  0.32220357152E+04  0.32619767559E+04  0.15294330000E+03 0.  0.
<mgrwt>
<rscale>  0 0.50889901E+03</rscale>
<asrwt>0</asrwt>
<pdfrwt beam="1">  1        2 0.51329681E+00 0.50889901E+03</pdfrwt>
<pdfrwt beam="2">  1       -2 0.10856245E+00 0.50889901E+03</pdfrwt>
<totfact> 0.82886578E-01</totfact>
</mgrwt>
</event>
<event>
 4    1  0.1033139E-008  0.2855218E+03  0.7818608E-02  0.1092711E+00
         -2   -1    0    0    0  501 -0.00000000000E+00  0.00000000000E+00  0.73530904985E+03  0.73530904985E+03  0.25500000000E-02 0.  1.
          2   -1    0    0  501    0  0.00000000000E+00 -0.00000000000E+00 -0.15434718178E+04  0.15434718178E+04  0.25500000000E-02 0. -1.
    8880022    1    1    2    0    0  0.17969128084E+02  0.24043327262E+03  0.69362496118E+03  0.75009218629E+03  0.15294330000E+03 0.  1.
    8880022    1    1    2    0    0 -0.17969128084E+02 -0.24043327262E+03 -0.15017877291E+04  0.15286886813E+04  0.15294330000E+03 0.  0.
<mgrwt>
<rscale>  0 0.28552181E+03</rscale>
<asrwt>0</asrwt>
<pdfrwt beam="1">  1        2 0.23745720E+00 0.28552181E+03</pdfrwt>
<pdfrwt beam="2">  1       -2 0.11312447E+00 0.28552181E+03</pdfrwt>
<totfact> 0.83944905E+00</totfact>
</mgrwt>
</event>
<event>
 4    1  0.1033139E-008  0.8710820E+03  0.7818608E-02  0.9462470E-01
          2   -1    0    0  501    0  0.00000000000E+00  0.00000000000E+00  0.23062145916E+04  0.23062145916E+04  0.25500000000E-02 0. -1.
         -2   -1    0    0    0  501 -0.00000000000E+00 -0.00000000000E+00 -0.69588674109E+03  0.69588674110E+03  0.25500000000E-02 0.  1.
    8880022    1    1    2    0    0  0.22864465355E+02 -0.85724521410E+03  0.18950523007E+04  0.20856670435E+04  0.15294330000E+03 0.  0.
    8880022    1    1    2    0    0 -0.22864465355E+02  0.85724521410E+03 -0.28472445020E+03  0.91643428921E+03  0.15294330000E+03 0.  0.
<mgrwt>
<rscale>  0 0.87108197E+03</rscale>
<asrwt>0</asrwt>
<pdfrwt beam="1">  1        2 0.35480225E+00 0.87108197E+03</pdfrwt>
<pdfrwt beam="2">  1       -2 0.10705950E+00 0.87108197E+03</pdfrwt>
<totfact> 0.32285391E+00</totfact>
</mgrwt>
</event>
<event>
 4    1  0.1033139E-008  0.4641359E+03  0.7818608E-02  0.1023588E+00
         -2   -1    0    0    0  501 -0.00000000000E+00  0.00000000000E+00  0.26137447374E+03  0.26137447375E+03  0.25500000000E-02 0.  1.
          2   -1    0    0  501    0  0.00000000000E+00 -0.00000000000E+00 -0.15904197692E+04  0.15904197692E+04  0.25500000000E-02 0. -1.
    8880022    1    1    2    0    0 -0.40504983266E+03  0.16722781144E+03 -0.13071902897E+04  0.13871440496E+04  0.15294330000E+03 0.  0.
    8880022    1    1    2    0    0  0.40504983266E+03 -0.16722781144E+03 -0.21855005732E+02  0.46465019332E+03  0.15294330000E+03 0.  0.
<mgrwt>
<rscale>  0 0.46413593E+03</rscale>
<asrwt>0</asrwt>
<pdfrwt beam="1">  1        2 0.24467996E+00 0.46413593E+03</pdfrwt>
<pdfrwt beam="2">  1       -2 0.40211458E-01 0.46413593E+03</pdfrwt>
<totfact> 0.70032284E+01</totfact>
</mgrwt>
</event>
<event>
 4    1  0.1033139E-008  0.8052391E+03  0.7818608E-02  0.9552465E-01
         -2   -1    0    0    0  501 -0.00000000000E+00  0.00000000000E+00  0.40375593663E+03  0.40375593664E+03  0.25500000000E-02 0.  1.
          2   -1    0    0  501    0  0.00000000000E+00 -0.00000000000E+00 -0.23431569737E+04  0.23431569737E+04  0.25500000000E-02 0. -1.
    8880022    1    1    2    0    0 -0.27516937485E+03  0.74114786757E+03 -0.17400898638E+04  0.19173739160E+04  0.15294330000E+03 0.  0.
    8880022    1    1    2    0    0  0.27516937485E+03 -0.74114786757E+03 -0.19931117331E+03  0.82953899443E+03  0.15294330000E+03 0.  0.
<mgrwt>
<rscale>  0 0.80523909E+03</rscale>
<asrwt>0</asrwt>
<pdfrwt beam="1">  1        2 0.36048568E+00 0.80523909E+03</pdfrwt>
<pdfrwt beam="2">  1       -2 0.62116299E-01 0.80523909E+03</pdfrwt>
<totfact> 0.10671268E+01</totfact>
</mgrwt>
</event>
<event>
 4    1  0.1033139E-008  0.9807784E+03  0.7818608E-02  0.9329882E-01
         -2   -1    0    0    0  501 -0.00000000000E+00  0.00000000000E+00  0.42851157093E+03  0.42851157094E+03  0.25500000000E-02 0.  1.
          2   -1    0    0  501    0  0.00000000000E+00 -0.00000000000E+00 -0.23814155978E+04  0.23814155978E+04  0.25500000000E-02 0. -1.
    8880022    1    1    2    0    0 -0.31444645013E+03 -0.91632860185E+03 -0.13129515162E+04  0.16388312950E+04  0.15294330000E+03 0.  0.
    8880022    1    1    2    0    0  0.31444645013E+03  0.91632860185E+03 -0.63995251067E+03  0.11710958737E+04  0.15294330000E+03 0.  0.
<mgrwt>
<rscale>  0 0.98077843E+03</rscale>
<asrwt>0</asrwt>
<pdfrwt beam="1">  1        2 0.36637162E+00 0.98077843E+03</pdfrwt>
<pdfrwt beam="2">  1       -2 0.65924859E-01 0.98077843E+03</pdfrwt>
<totfact> 0.87277337E+00</totfact>
</mgrwt>
</event>
<event>
 4    1  0.1033139E-008  0.8911324E+03  0.7818608E-02  0.9436735E-01
         -2   -1    0    0    0  501 -0.00000000000E+00  0.00000000000E+00  0.11089345230E+04  0.11089345230E+04  0.25500000000E-02 0.  1.
          2   -1    0    0  501    0  0.00000000000E+00 -0.00000000000E+00 -0.77419449114E+03  0.77419449115E+03  0.25500000000E-02 0. -1.
    8880022    1    1    2    0    0 -0.68124049439E+03 -0.55374779246E+03 -0.90536679699E+02  0.89571969513E+03  0.15294330000E+03 0.  0.
    8880022    1    1    2    0    0  0.68124049439E+03  0.55374779246E+03  0.42527671155E+03  0.98740931901E+03  0.15294330000E+03 0.  0.
<mgrwt>
<rscale>  0 0.89113236E+03</rscale>
<asrwt>0</asrwt>
<pdfrwt beam="1">  1        2 0.11910685E+00 0.89113236E+03</pdfrwt>
<pdfrwt beam="2">  1       -2 0.17060531E+00 0.89113236E+03</pdfrwt>
<totfact> 0.76086296E+00</totfact>
</mgrwt>
</event>
<event>
 4    1  0.1033139E-008  0.1020965E+04  0.7818608E-02  0.9285845E-01
          2   -1    0    0  501    0  0.00000000000E+00  0.00000000000E+00  0.15166542249E+04  0.15166542249E+04  0.25500000000E-02 0. -1.
         -2   -1    0    0    0  501 -0.00000000000E+00 -0.00000000000E+00 -0.70124919041E+03  0.70124919042E+03  0.25500000000E-02 0.  1.
    8880022    1    1    2    0    0  0.99173636933E+03  0.18824728349E+03  0.56420640550E+03  0.11664898572E+04  0.15294330000E+03 0.  0.
    8880022    1    1    2    0    0 -0.99173636933E+03 -0.18824728349E+03  0.25119862902E+03  0.10514135581E+04  0.15294330000E+03 0.  0.
<mgrwt>
<rscale>  0 0.10209651E+04</rscale>
<asrwt>0</asrwt>
<pdfrwt beam="1">  1        2 0.23333142E+00 0.10209651E+04</pdfrwt>
<pdfrwt beam="2">  1       -2 0.10788449E+00 0.10209651E+04</pdfrwt>
<totfact> 0.84929582E+00</totfact>
</mgrwt>
</event>
<event>
 4    1  0.1033139E-008  0.1198386E+04  0.7818608E-02  0.9114270E-01
          2   -1    0    0  501    0  0.00000000000E+00  0.00000000000E+00  0.12530062835E+04  0.12530062835E+04  0.25500000000E-02 0. -1.
         -2   -1    0    0    0  501 -0.00000000000E+00 -0.00000000000E+00 -0.23624095067E+04  0.23624095067E+04  0.25500000000E-02 0.  1.
    8880022    1    1    2    0    0  0.10688603258E+04  0.51988003268E+03 -0.18517743667E+04  0.22057192937E+04  0.15294330000E+03 0.  0.
    8880022    1    1    2    0    0 -0.10688603258E+04 -0.51988003268E+03  0.74237114356E+03  0.14096964965E+04  0.15294330000E+03 0.  0.
<mgrwt>
<rscale>  0 0.11983861E+04</rscale>
<asrwt>0</asrwt>
<pdfrwt beam="1">  1        2 0.19277020E+00 0.11983861E+04</pdfrwt>
<pdfrwt beam="2">  1       -2 0.36344762E+00 0.11983861E+04</pdfrwt>
<totfact> 0.22121092E-01</totfact>
</mgrwt>
</event>
<event>
 4    1  0.1033139E-008  0.9532298E+03  0.7818608E-02  0.9361383E-01
         -2   -1    0    0    0  501 -0.00000000000E+00  0.00000000000E+00  0.12502385801E+04  0.12502385801E+04  0.25500000000E-02 0.  1.
          2   -1    0    0  501    0  0.00000000000E+00 -0.00000000000E+00 -0.79604374978E+03  0.79604374978E+03  0.25500000000E-02 0. -1.
    8880022    1    1    2    0    0 -0.44792813531E+02 -0.93981324404E+03  0.52890047005E+03  0.10901296666E+04  0.15294330000E+03 0.  0.
    8880022    1    1    2    0    0  0.44792813531E+02  0.93981324404E+03 -0.74705639744E+02  0.95615266325E+03  0.15294330000E+03 0.  0.
<mgrwt>
<rscale>  0 0.95322976E+03</rscale>
<asrwt>0</asrwt>
<pdfrwt beam="1">  1        2 0.12246827E+00 0.95322976E+03</pdfrwt>
<pdfrwt beam="2">  1       -2 0.19234440E+00 0.95322976E+03</pdfrwt>
<totfact> 0.51687123E+00</totfact>
</mgrwt>
</event>
<event>
 4    1  0.1033139E-008  0.1788323E+04  0.7818608E-02  0.8712534E-01
          2   -1    0    0  501    0  0.00000000000E+00  0.00000000000E+00  0.18400686563E+04  0.18400686563E+04  0.25500000000E-02 0. -1.
         -2   -1    0    0    0  501 -0.00000000000E+00 -0.00000000000E+00 -0.19459286861E+04  0.19459286861E+04  0.25500000000E-02 0.  1.
    8880022    1    1    2    0    0 -0.16788040452E+04  0.59693021322E+03 -0.67167175309E+03  0.19102992694E+04  0.15294330000E+03 0.  0.
    8880022    1    1    2    0    0  0.16788040452E+04 -0.59693021322E+03  0.56581172325E+03  0.18756980730E+04  0.15294330000E+03 0.  0.
<mgrwt>
<rscale>  0 0.17883233E+04</rscale>
<asrwt>0</asrwt>
<pdfrwt beam="1">  1        2 0.28308748E+00 0.17883233E+04</pdfrwt>
<pdfrwt beam="2">  1       -2 0.29937364E+00 0.17883233E+04</pdfrwt>
<totfact> 0.23932161E-01</totfact>
</mgrwt>
</event>
<event>
 4    1  0.1033139E-008  0.8691901E+03  0.7818608E-02  0.9464937E-01
         -2   -1    0    0    0  501 -0.00000000000E+00  0.00000000000E+00  0.57193520712E+03  0.57193520712E+03  0.25500000000E-02 0.  1.
          2   -1    0    0  501    0  0.00000000000E+00 -0.00000000000E+00 -0.17706389427E+04  0.17706389427E+04  0.25500000000E-02 0. -1.
    8880022    1    1    2    0    0 -0.62891592213E+03  0.58014182842E+03 -0.11896342708E+04  0.14733367332E+04  0.15294330000E+03 0.  0.
    8880022    1    1    2    0    0  0.62891592213E+03 -0.58014182842E+03 -0.90694647705E+01  0.86923741659E+03  0.15294330000E+03 0.  0.
<mgrwt>
<rscale>  0 0.86919010E+03</rscale>
<asrwt>0</asrwt>
<pdfrwt beam="1">  1        2 0.27240599E+00 0.86919010E+03</pdfrwt>
<pdfrwt beam="2">  1       -2 0.87990033E-01 0.86919010E+03</pdfrwt>
<totfact> 0.10111463E+01</totfact>
</mgrwt>
</event>
<event>
 4    1  0.1033139E-008  0.8897145E+03  0.7818608E-02  0.9438531E-01
         -2   -1    0    0    0  501 -0.00000000000E+00  0.00000000000E+00  0.74062679604E+03  0.74062679604E+03  0.25500000000E-02 0.  1.
          2   -1    0    0  501    0  0.00000000000E+00 -0.00000000000E+00 -0.21816452478E+04  0.21816452478E+04  0.25500000000E-02 0. -1.
    8880022    1    1    2    0    0 -0.58027617024E+03  0.65687127106E+03  0.32304092622E+03  0.94654497702E+03  0.15294330000E+03 0.  0.
    8880022    1    1    2    0    0  0.58027617024E+03 -0.65687127106E+03 -0.17640593780E+04  0.19757270668E+04  0.15294330000E+03 0.  0.
<mgrwt>
<rscale>  0 0.88971453E+03</rscale>
<asrwt>0</asrwt>
<pdfrwt beam="1">  1        2 0.33563773E+00 0.88971453E+03</pdfrwt>
<pdfrwt beam="2">  1       -2 0.11394258E+00 0.88971453E+03</pdfrwt>
<totfact> 0.32455651E+00</totfact>
</mgrwt>
</event>
<event>
 4    1  0.1033139E-008  0.1148733E+04  0.7818608E-02  0.9158953E-01
         -2   -1    0    0    0  501 -0.00000000000E+00  0.00000000000E+00  0.59031032380E+03  0.59031032381E+03  0.25500000000E-02 0.  1.
          2   -1    0    0  501    0  0.00000000000E+00 -0.00000000000E+00 -0.31531258724E+04  0.31531258724E+04  0.25500000000E-02 0. -1.
    8880022    1    1    2    0    0 -0.43589252730E+03  0.10517576100E+04 -0.27163667134E+03  0.11804128514E+04  0.15294330000E+03 0.  0.
    8880022    1    1    2    0    0  0.43589252730E+03 -0.10517576100E+04 -0.22911788773E+04  0.25630233448E+04  0.15294330000E+03 0.  0.
<mgrwt>
<rscale>  0 0.11487332E+04</rscale>
<asrwt>0</asrwt>
<pdfrwt beam="1">  1        2 0.48509628E+00 0.11487332E+04</pdfrwt>
<pdfrwt beam="2">  1       -2 0.90816974E-01 0.11487332E+04</pdfrwt>
<totfact> 0.14419707E+00</totfact>
</mgrwt>
</event>
<event>
 4    1  0.1033139E-008  0.1998840E+04  0.7818608E-02  0.8607163E-01
         -2   -1    0    0    0  501 -0.00000000000E+00  0.00000000000E+00  0.31238020129E+04  0.31238020129E+04  0.25500000000E-02 0.  1.
          2   -1    0    0  501    0  0.00000000000E+00 -0.00000000000E+00 -0.19869074062E+04  0.19869074062E+04  0.25500000000E-02 0. -1.
    8880022    1    1    2    0    0  0.19899749298E+04 -0.10940679075E+03 -0.95682978455E+03  0.22160516593E+04  0.15294330000E+03 0.  0.
    8880022    1    1    2    0    0 -0.19899749298E+04  0.10940679075E+03  0.20937243912E+04  0.28946577598E+04  0.15294330000E+03 0.  0.
<mgrwt>
<rscale>  0 0.19988401E+04</rscale>
<asrwt>0</asrwt>
<pdfrwt beam="1">  1        2 0.30567807E+00 0.19988401E+04</pdfrwt>
<pdfrwt beam="2">  1       -2 0.48058492E+00 0.19988401E+04</pdfrwt>
<totfact> 0.13081127E-02</totfact>
</mgrwt>
</event>
<event>
 4    1  0.1033139E-008  0.1103557E+04  0.7818608E-02  0.9201732E-01
          2   -1    0    0  501    0  0.00000000000E+00  0.00000000000E+00  0.16716717135E+04  0.16716717135E+04  0.25500000000E-02 0. -1.
         -2   -1    0    0    0  501 -0.00000000000E+00 -0.00000000000E+00 -0.89364383406E+03  0.89364383406E+03  0.25500000000E-02 0.  1.
    8880022    1    1    2    0    0  0.68729734055E+03  0.84974646919E+03 -0.16235168258E+03  0.11154355284E+04  0.15294330000E+03 0.  0.
    8880022    1    1    2    0    0 -0.68729734055E+03 -0.84974646919E+03  0.94037956207E+03  0.14498800192E+04  0.15294330000E+03 0.  0.
<mgrwt>
<rscale>  0 0.11035571E+04</rscale>
<asrwt>0</asrwt>
<pdfrwt beam="1">  1        2 0.25718026E+00 0.11035571E+04</pdfrwt>
<pdfrwt beam="2">  1       -2 0.13748367E+00 0.11035571E+04</pdfrwt>
<totfact> 0.37630001E+00</totfact>
</mgrwt>
</event>
<event>
 4    1  0.1033139E-008  0.1923338E+03  0.7818608E-02  0.1156373E+00
         -2   -1    0    0    0  501 -0.00000000000E+00  0.00000000000E+00  0.72581263810E+03  0.72581263810E+03  0.25500000000E-02 0.  1.
          2   -1    0    0  501    0  0.00000000000E+00 -0.00000000000E+00 -0.14937008721E+04  0.14937008721E+04  0.25500000000E-02 0. -1.
    8880022    1    1    2    0    0  0.70342224871E+02 -0.93019403888E+02 -0.14746034897E+04  0.14870937236E+04  0.15294330000E+03 0.  0.
    8880022    1    1    2    0    0 -0.70342224871E+02  0.93019403888E+02  0.70671525569E+03  0.73241978655E+03  0.15294330000E+03 0.  0.
<mgrwt>
<rscale>  0 0.19233380E+03</rscale>
<asrwt>0</asrwt>
<pdfrwt beam="1">  1        2 0.22980013E+00 0.19233380E+03</pdfrwt>
<pdfrwt beam="2">  1       -2 0.11166348E+00 0.19233380E+03</pdfrwt>
<totfact> 0.96137872E+00</totfact>
</mgrwt>
</event>
<event>
 4    1  0.1033139E-008  0.7310823E+03  0.7818608E-02  0.9665506E-01
         -2   -1    0    0    0  501 -0.00000000000E+00  0.00000000000E+00  0.79040240028E+03  0.79040240028E+03  0.25500000000E-02 0.  1.
          2   -1    0    0  501    0  0.00000000000E+00 -0.00000000000E+00 -0.25243659026E+04  0.25243659026E+04  0.25500000000E-02 0. -1.
    8880022    1    1    2    0    0 -0.13958239443E+03  0.70114648764E+03 -0.22851110901E+04  0.23992111181E+04  0.15294330000E+03 0.  0.
    8880022    1    1    2    0    0  0.13958239443E+03 -0.70114648764E+03  0.55114758783E+03  0.91555718475E+03  0.15294330000E+03 0.  0.
<mgrwt>
<rscale>  0 0.73108228E+03</rscale>
<asrwt>0</asrwt>
<pdfrwt beam="1">  1        2 0.38836398E+00 0.73108228E+03</pdfrwt>
<pdfrwt beam="2">  1       -2 0.12160037E+00 0.73108228E+03</pdfrwt>
<totfact> 0.18274922E+00</totfact>
</mgrwt>
</event>
<event>
 4    1  0.1033139E-008  0.6944405E+03  0.7818608E-02  0.9726787E-01
          2   -1    0    0  501    0  0.00000000000E+00  0.00000000000E+00  0.11034235301E+04  0.11034235301E+04  0.25500000000E-02 0. -1.
         -2   -1    0    0    0  501 -0.00000000000E+00 -0.00000000000E+00 -0.12641090250E+04  0.12641090250E+04  0.25500000000E-02 0.  1.
    8880022    1    1    2    0    0  0.12974016937E+03 -0.66484847642E+03  0.87716612152E+03  0.11187797218E+04  0.15294330000E+03 0.  0.
    8880022    1    1    2    0    0 -0.12974016937E+03  0.66484847642E+03 -0.10378516164E+04  0.12487528333E+04  0.15294330000E+03 0.  0.
<mgrwt>
<rscale>  0 0.69444054E+03</rscale>
<asrwt>0</asrwt>
<pdfrwt beam="1">  1        2 0.16975747E+00 0.69444054E+03</pdfrwt>
<pdfrwt beam="2">  1       -2 0.19447831E+00 0.69444054E+03</pdfrwt>
<totfact> 0.32425233E+00</totfact>
</mgrwt>
</event>
<event>
 4    1  0.1033139E-008  0.7392556E+03  0.7818608E-02  0.9652359E-01
          2   -1    0    0  501    0  0.00000000000E+00  0.00000000000E+00  0.12274613969E+04  0.12274613969E+04  0.25500000000E-02 0. -1.
         -2   -1    0    0    0  501 -0.00000000000E+00 -0.00000000000E+00 -0.52101244400E+03  0.52101244401E+03  0.25500000000E-02 0.  1.
    8880022    1    1    2    0    0  0.59623377296E+03  0.40940494384E+03  0.68664967666E+03  0.10089531959E+04  0.15294330000E+03 0.  0.
    8880022    1    1    2    0    0 -0.59623377296E+03 -0.40940494384E+03  0.19799276251E+02  0.73952064502E+03  0.15294330000E+03 0.  0.
<mgrwt>
<rscale>  0 0.73925555E+03</rscale>
<asrwt>0</asrwt>
<pdfrwt beam="1">  1        2 0.18884021E+00 0.73925555E+03</pdfrwt>
<pdfrwt beam="2">  1       -2 0.80155761E-01 0.73925555E+03</pdfrwt>
<totfact> 0.25615958E+01</totfact>
</mgrwt>
</event>
<event>
 4    1  0.1033139E-008  0.1301224E+04  0.7818608E-02  0.9028595E-01
          2   -1    0    0  501    0  0.00000000000E+00  0.00000000000E+00  0.10439790294E+04  0.10439790294E+04  0.25500000000E-02 0. -1.
         -2   -1    0    0    0  501 -0.00000000000E+00 -0.00000000000E+00 -0.25945948378E+04  0.25945948378E+04  0.25500000000E-02 0.  1.
    8880022    1    1    2    0    0 -0.12679631286E+04 -0.24911973396E+03  0.33863963373E+03  0.13445666929E+04  0.15294330000E+03 0.  0.
    8880022    1    1    2    0    0  0.12679631286E+04  0.24911973396E+03 -0.18892554421E+04  0.22940071743E+04  0.15294330000E+03 0.  0.
<mgrwt>
<rscale>  0 0.13012236E+04</rscale>
<asrwt>0</asrwt>
<pdfrwt beam="1">  1        2 0.16061216E+00 0.13012236E+04</pdfrwt>
<pdfrwt beam="2">  1       -2 0.39916843E+00 0.13012236E+04</pdfrwt>
<totfact> 0.17250964E-01</totfact>
</mgrwt>
</event>
<event>
 4    1  0.1033139E-008  0.7959753E+03  0.7818608E-02  0.9565861E-01
         -2   -1    0    0    0  501 -0.00000000000E+00  0.00000000000E+00  0.17182029381E+04  0.17182029381E+04  0.25500000000E-02 0.  1.
          2   -1    0    0  501    0  0.00000000000E+00 -0.00000000000E+00 -0.88968358965E+03  0.88968358965E+03  0.25500000000E-02 0. -1.
    8880022    1    1    2    0    0  0.71590052600E+03  0.31252441920E+03  0.14120393621E+04  0.16209354980E+04  0.15294330000E+03 0.  0.
    8880022    1    1    2    0    0 -0.71590052600E+03 -0.31252441920E+03 -0.58352001363E+03  0.98695102971E+03  0.15294330000E+03 0.  0.
<mgrwt>
<rscale>  0 0.79597533E+03</rscale>
<asrwt>0</asrwt>
<pdfrwt beam="1">  1        2 0.13687440E+00 0.79597533E+03</pdfrwt>
<pdfrwt beam="2">  1       -2 0.26433891E+00 0.79597533E+03</pdfrwt>
<totfact> 0.16082171E+00</totfact>
</mgrwt>
</event>
<event>
 4    1  0.1158192E-008  0.1978215E+04  0.7818608E-02  0.8616874E-01
          2   -1    0    0  501    0  0.00000000000E+00  0.00000000000E+00  0.25175251693E+04  0.25175251693E+04  0.25500000000E-02 0. -1.
         -2   -1    0    0    0  501 -0.00000000000E+00 -0.00000000000E+00 -0.23529936699E+04  0.23529936699E+04  0.25500000000E-02 0.  1.
    8880022    1    1    2    0    0 -0.34332027597E+03 -0.19421829243E+04  0.15009562056E+04  0.24831843483E+04  0.15294330000E+03 0.  0.
    8880022    1    1    2    0    0  0.34332027597E+03  0.19421829243E+04 -0.13364247062E+04  0.23873344910E+04  0.15294330000E+03 0.  0.
<mgrwt>
<rscale>  0 0.19782151E+04</rscale>
<asrwt>0</asrwt>
<pdfrwt beam="1">  1        2 0.38731156E+00 0.19782151E+04</pdfrwt>
<pdfrwt beam="2">  1       -2 0.36199903E+00 0.19782151E+04</pdfrwt>
<totfact> 0.39328014E-02</totfact>
</mgrwt>
</event>
<event>
 4    1  0.1033139E-008  0.8897945E+03  0.7818608E-02  0.9438429E-01
         -2   -1    0    0    0  501 -0.00000000000E+00  0.00000000000E+00  0.34500792660E+03  0.34500792661E+03  0.25500000000E-02 0.  1.
          2   -1    0    0  501    0  0.00000000000E+00 -0.00000000000E+00 -0.35071743105E+04  0.35071743105E+04  0.25500000000E-02 0. -1.
    8880022    1    1    2    0    0 -0.28162518570E+03  0.83007820205E+03 -0.27135130424E+04  0.28556763212E+04  0.15294330000E+03 0.  0.
    8880022    1    1    2    0    0  0.28162518570E+03 -0.83007820205E+03 -0.44865334151E+03  0.99650591599E+03  0.15294330000E+03 0.  0.
<mgrwt>
<rscale>  0 0.88979448E+03</rscale>
<asrwt>0</asrwt>
<pdfrwt beam="1">  1        2 0.53956525E+00 0.88979448E+03</pdfrwt>
<pdfrwt beam="2">  1       -2 0.53078145E-01 0.88979448E+03</pdfrwt>
<totfact> 0.28426794E+00</totfact>
</mgrwt>
</event>
<event>
 4    1  0.1033139E-008  0.4690571E+03  0.7818608E-02  0.1022187E+00
         -2   -1    0    0    0  501 -0.00000000000E+00  0.00000000000E+00  0.15084395163E+04  0.15084395163E+04  0.25500000000E-02 0.  1.
          2   -1    0    0  501    0  0.00000000000E+00 -0.00000000000E+00 -0.97922631968E+03  0.97922631968E+03  0.25500000000E-02 0. -1.
    8880022    1    1    2    0    0  0.43174418934E+03  0.10109315837E+03  0.14120719904E+04  0.14879387860E+04  0.15294330000E+03 0.  0.
    8880022    1    1    2    0    0 -0.43174418934E+03 -0.10109315837E+03 -0.88285879380E+03  0.99972705000E+03  0.15294330000E+03 0.  0.
<mgrwt>
<rscale>  0 0.46905706E+03</rscale>
<asrwt>0</asrwt>
<pdfrwt beam="1">  1        2 0.15065020E+00 0.46905706E+03</pdfrwt>
<pdfrwt beam="2">  1       -2 0.23206762E+00 0.46905706E+03</pdfrwt>
<totfact> 0.23516278E+00</totfact>
</mgrwt>
</event>
<event>
 4    1  0.1033139E-008  0.1456064E+04  0.7818608E-02  0.8914207E-01
         -2   -1    0    0    0  501 -0.00000000000E+00  0.00000000000E+00  0.18948662958E+04  0.18948662958E+04  0.25500000000E-02 0.  1.
          2   -1    0    0  501    0  0.00000000000E+00 -0.00000000000E+00 -0.16079968988E+04  0.16079968988E+04  0.25500000000E-02 0. -1.
    8880022    1    1    2    0    0  0.13540186091E+04  0.51319146370E+03 -0.82252266976E+03  0.16723238525E+04  0.15294330000E+03 0.  0.
    8880022    1    1    2    0    0 -0.13540186091E+04 -0.51319146370E+03  0.11093920668E+04  0.18305393422E+04  0.15294330000E+03 0.  0.
<mgrwt>
<rscale>  0 0.14560644E+04</rscale>
<asrwt>0</asrwt>
<pdfrwt beam="1">  1        2 0.24738414E+00 0.14560644E+04</pdfrwt>
<pdfrwt beam="2">  1       -2 0.29151789E+00 0.14560644E+04</pdfrwt>
<totfact> 0.37334519E-01</totfact>
</mgrwt>
</event>
<event>
 4    1  0.1033139E-008  0.1370473E+04  0.7818608E-02  0.8975473E-01
         -2   -1    0    0    0  501 -0.00000000000E+00  0.00000000000E+00  0.16161163034E+04  0.16161163034E+04  0.25500000000E-02 0.  1.
          2   -1    0    0  501    0  0.00000000000E+00 -0.00000000000E+00 -0.19323836099E+04  0.19323836099E+04  0.25500000000E-02 0. -1.
    8880022    1    1    2    0    0  0.13439143144E+04  0.22068081346E+03 -0.12782793489E+04  0.18740852309E+04  0.15294330000E+03 0.  0.
    8880022    1    1    2    0    0 -0.13439143144E+04 -0.22068081346E+03  0.96201204239E+03  0.16744146824E+04  0.15294330000E+03 0.  0.
<mgrwt>
<rscale>  0 0.13704734E+04</rscale>
<asrwt>0</asrwt>
<pdfrwt beam="1">  1        2 0.29728978E+00 0.13704734E+04</pdfrwt>
<pdfrwt beam="2">  1       -2 0.24863328E+00 0.13704734E+04</pdfrwt>
<totfact> 0.45426440E-01</totfact>
</mgrwt>
</event>
<event>
 4    1  0.1033139E-008  0.1090344E+04  0.7818608E-02  0.9214655E-01
         -2   -1    0    0    0  501 -0.00000000000E+00  0.00000000000E+00  0.18199077382E+04  0.18199077382E+04  0.25500000000E-02 0.  1.
          2   -1    0    0  501    0  0.00000000000E+00 -0.00000000000E+00 -0.98771522775E+03  0.98771522776E+03  0.25500000000E-02 0. -1.
    8880022    1    1    2    0    0  0.84496680400E+03 -0.67192956217E+03 -0.40080606483E+03  0.11616778344E+04  0.15294330000E+03 0.  0.
    8880022    1    1    2    0    0 -0.84496680400E+03  0.67192956217E+03  0.12329985752E+04  0.16459451315E+04  0.15294330000E+03 0.  0.
<mgrwt>
<rscale>  0 0.10903439E+04</rscale>
<asrwt>0</asrwt>
<pdfrwt beam="1">  1        2 0.15195619E+00 0.10903439E+04</pdfrwt>
<pdfrwt beam="2">  1       -2 0.27998580E+00 0.10903439E+04</pdfrwt>
<totfact> 0.10688736E+00</totfact>
</mgrwt>
</event>
<event>
 4    1  0.1033139E-008  0.8437037E+03  0.7818608E-02  0.9498827E-01
          2   -1    0    0  501    0  0.00000000000E+00  0.00000000000E+00  0.39800709253E+04  0.39800709253E+04  0.25500000000E-02 0. -1.
         -2   -1    0    0    0  501 -0.00000000000E+00 -0.00000000000E+00 -0.32623380317E+03  0.32623380318E+03  0.25500000000E-02 0.  1.
    8880022    1    1    2    0    0  0.32408605428E+03 -0.76381443381E+03  0.32741403040E+04  0.33810990289E+04  0.15294330000E+03 0. -1.
    8880022    1    1    2    0    0 -0.32408605428E+03  0.76381443381E+03  0.37969681816E+03  0.92520569962E+03  0.15294330000E+03 0.  0.
<mgrwt>
<rscale>  0 0.84370369E+03</rscale>
<asrwt>0</asrwt>
<pdfrwt beam="1">  1        2 0.61231860E+00 0.84370369E+03</pdfrwt>
<pdfrwt beam="2">  1       -2 0.50189816E-01 0.84370369E+03</pdfrwt>
<totfact> 0.14487447E+00</totfact>
</mgrwt>
</event>
<event>
 4    1  0.1033139E-008  0.2111093E+04  0.7818608E-02  0.8556372E-01
         -2   -1    0    0    0  501 -0.00000000000E+00  0.00000000000E+00  0.17474789231E+04  0.17474789231E+04  0.25500000000E-02 0.  1.
          2   -1    0    0  501    0  0.00000000000E+00 -0.00000000000E+00 -0.25965994247E+04  0.25965994247E+04  0.25500000000E-02 0. -1.
    8880022    1    1    2    0    0 -0.42100438020E+03  0.20630267575E+04 -0.71438135348E+03  0.22286894045E+04  0.15294330000E+03 0.  0.
    8880022    1    1    2    0    0  0.42100438020E+03 -0.20630267575E+04 -0.13473914811E+03  0.21153889433E+04  0.15294330000E+03 0.  0.
<mgrwt>
<rscale>  0 0.21110935E+04</rscale>
<asrwt>0</asrwt>
<pdfrwt beam="1">  1        2 0.39947683E+00 0.21110935E+04</pdfrwt>
<pdfrwt beam="2">  1       -2 0.26884291E+00 0.21110935E+04</pdfrwt>
<totfact> 0.13238100E-01</totfact>
</mgrwt>
</event>
<event>
 4    1  0.1033139E-008  0.3994875E+03  0.7818608E-02  0.1043957E+00
         -2   -1    0    0    0  501 -0.00000000000E+00  0.00000000000E+00  0.30491707288E+04  0.30491707288E+04  0.25500000000E-02 0.  1.
          2   -1    0    0  501    0  0.00000000000E+00 -0.00000000000E+00 -0.29103931551E+03  0.29103931552E+03  0.25500000000E-02 0. -1.
    8880022    1    1    2    0    0  0.32825980858E+03 -0.16865381905E+03 -0.13343132933E+03  0.42118189095E+03  0.15294330000E+03 0.  0.
    8880022    1    1    2    0    0 -0.32825980858E+03  0.16865381905E+03  0.28915627426E+04  0.29190281534E+04  0.15294330000E+03 0.  0.
<mgrwt>
<rscale>  0 0.39948750E+03</rscale>
<asrwt>0</asrwt>
<pdfrwt beam="1">  1        2 0.44775277E-01 0.39948750E+03</pdfrwt>
<pdfrwt beam="2">  1       -2 0.46910321E+00 0.39948750E+03</pdfrwt>
<totfact> 0.34331167E-01</totfact>
</mgrwt>
</event>
<event>
 4    1  0.1033139E-008  0.8777168E+03  0.7818608E-02  0.9453873E-01
         -2   -1    0    0    0  501 -0.00000000000E+00  0.00000000000E+00  0.12181132271E+04  0.12181132271E+04  0.25500000000E-02 0.  1.
          2   -1    0    0  501    0  0.00000000000E+00 -0.00000000000E+00 -0.30053998792E+04  0.30053998792E+04  0.25500000000E-02 0. -1.
    8880022    1    1    2    0    0  0.86329798511E+03  0.41372539567E+02  0.98280960025E+03  0.13176879226E+04  0.15294330000E+03 0.  0.
    8880022    1    1    2    0    0 -0.86329798511E+03 -0.41372539567E+02 -0.27700962523E+04  0.29058251837E+04  0.15294330000E+03 0.  0.
<mgrwt>
<rscale>  0 0.87771678E+03</rscale>
<asrwt>0</asrwt>
<pdfrwt beam="1">  1        2 0.46236921E+00 0.87771678E+03</pdfrwt>
<pdfrwt beam="2">  1       -2 0.18740204E+00 0.87771678E+03</pdfrwt>
<totfact> 0.29061962E-01</totfact>
</mgrwt>
</event>
<event>
 4    1  0.1033139E-008  0.7888217E+03  0.7818608E-02  0.9576340E-01
          2   -1    0    0  501    0  0.00000000000E+00  0.00000000000E+00  0.72192161656E+03  0.72192161657E+03  0.25500000000E-02 0. -1.
         -2   -1    0    0    0  501 -0.00000000000E+00 -0.00000000000E+00 -0.96623759578E+03  0.96623759579E+03  0.25500000000E-02 0.  1.
    8880022    1    1    2    0    0 -0.42782616377E+03 -0.64483551436E+03 -0.39950100094E+03  0.88421760317E+03  0.15294330000E+03 0.  0.
    8880022    1    1    2    0    0  0.42782616377E+03  0.64483551436E+03  0.15518502172E+03  0.80394160918E+03  0.15294330000E+03 0.  0.
<mgrwt>
<rscale>  0 0.78882173E+03</rscale>
<asrwt>0</asrwt>
<pdfrwt beam="1">  1        2 0.11106486E+00 0.78882173E+03</pdfrwt>
<pdfrwt beam="2">  1       -2 0.14865194E+00 0.78882173E+03</pdfrwt>
<totfact> 0.12225304E+01</totfact>
</mgrwt>
</event>
<event>
 4    1  0.1033139E-008  0.3579869E+03  0.7818608E-02  0.1059384E+00
          2   -1    0    0  501    0  0.00000000000E+00  0.00000000000E+00  0.15214734483E+04  0.15214734483E+04  0.25500000000E-02 0. -1.
         -2   -1    0    0    0  501 -0.00000000000E+00 -0.00000000000E+00 -0.23896439933E+03  0.23896439934E+03  0.25500000000E-02 0.  1.
    8880022    1    1    2    0    0 -0.10049076572E+03  0.30767606971E+03  0.13495536460E+04  0.13962269351E+04  0.15294330000E+03 0. -1.
    8880022    1    1    2    0    0  0.10049076572E+03 -0.30767606971E+03 -0.67044596961E+02  0.36421091261E+03  0.15294330000E+03 0.  0.
<mgrwt>
<rscale>  0 0.35798689E+03</rscale>
<asrwt>0</asrwt>
<pdfrwt beam="1">  1        2 0.23407284E+00 0.35798689E+03</pdfrwt>
<pdfrwt beam="2">  1       -2 0.36763754E-01 0.35798689E+03</pdfrwt>
<totfact> 0.92373356E+01</totfact>
</mgrwt>
</event>
<event>
 4    1  0.1033139E-008  0.3639412E+03  0.7818608E-02  0.1057034E+00
          2   -1    0    0  501    0  0.00000000000E+00  0.00000000000E+00  0.12281831859E+04  0.12281831859E+04  0.25500000000E-02 0. -1.
         -2   -1    0    0    0  501 -0.00000000000E+00 -0.00000000000E+00 -0.42791620266E+03  0.42791620266E+03  0.25500000000E-02 0.  1.
    8880022    1    1    2    0    0 -0.17695291412E+03  0.27883541845E+03 -0.31601069056E+03  0.48199163267E+03  0.15294330000E+03 0.  0.
    8880022    1    1    2    0    0  0.17695291412E+03 -0.27883541845E+03  0.11162776738E+04  0.11741077559E+04  0.15294330000E+03 0. -1.
<mgrwt>
<rscale>  0 0.36394117E+03</rscale>
<asrwt>0</asrwt>
<pdfrwt beam="1">  1        2 0.18895126E+00 0.36394117E+03</pdfrwt>
<pdfrwt beam="2">  1       -2 0.65833263E-01 0.36394117E+03</pdfrwt>
<totfact> 0.41626116E+01</totfact>
</mgrwt>
</event>
<event>
 4    1  0.1033139E-008  0.5002863E+03  0.7818608E-02  0.1013704E+00
          2   -1    0    0  501    0  0.00000000000E+00  0.00000000000E+00  0.89892412873E+03  0.89892412873E+03  0.25500000000E-02 0. -1.
         -2   -1    0    0    0  501 -0.00000000000E+00 -0.00000000000E+00 -0.60058609803E+03  0.60058609804E+03  0.25500000000E-02 0.  1.
    8880022    1    1    2    0    0 -0.15515130848E+03  0.45035852509E+03  0.69828713373E+03  0.85900599753E+03  0.15294330000E+03 0.  0.
    8880022    1    1    2    0    0  0.15515130848E+03 -0.45035852509E+03 -0.39994910303E+03  0.64050422924E+03  0.15294330000E+03 0.  0.
<mgrwt>
<rscale>  0 0.50028630E+03</rscale>
<asrwt>0</asrwt>
<pdfrwt beam="1">  1        2 0.13829602E+00 0.50028630E+03</pdfrwt>
<pdfrwt beam="2">  1       -2 0.92397861E-01 0.50028630E+03</pdfrwt>
<totfact> 0.30495811E+01</totfact>
</mgrwt>
</event>
<event>
 4    1  0.1033139E-008  0.4892147E+03  0.7818608E-02  0.1016633E+00
          2   -1    0    0  501    0  0.00000000000E+00  0.00000000000E+00  0.30175761867E+03  0.30175761868E+03  0.25500000000E-02 0. -1.
         -2   -1    0    0    0  501 -0.00000000000E+00 -0.00000000000E+00 -0.13135003541E+04  0.13135003541E+04  0.25500000000E-02 0.  1.
    8880022    1    1    2    0    0 -0.37504574444E+03 -0.27437216393E+03 -0.10142131430E+04  0.11260370097E+04  0.15294330000E+03 0.  0.
    8880022    1    1    2    0    0  0.37504574444E+03  0.27437216393E+03  0.24704075883E+01  0.48922096306E+03  0.15294330000E+03 0.  0.
<mgrwt>
<rscale>  0 0.48921473E+03</rscale>
<asrwt>0</asrwt>
<pdfrwt beam="1">  1        2 0.46424250E-01 0.48921473E+03</pdfrwt>
<pdfrwt beam="2">  1       -2 0.20207697E+00 0.48921473E+03</pdfrwt>
<totfact> 0.14734831E+01</totfact>
</mgrwt>
</event>
<event>
 4    1  0.1033139E-008  0.7709709E+03  0.7818608E-02  0.9603013E-01
         -2   -1    0    0    0  501 -0.00000000000E+00  0.00000000000E+00  0.46899209509E+03  0.46899209510E+03  0.25500000000E-02 0.  1.
          2   -1    0    0  501    0  0.00000000000E+00 -0.00000000000E+00 -0.19531704684E+04  0.19531704684E+04  0.25500000000E-02 0. -1.
    8880022    1    1    2    0    0 -0.16776359335E+03  0.73679020970E+03 -0.24467359884E+02  0.77135902216E+03  0.15294330000E+03 0.  0.
    8880022    1    1    2    0    0  0.16776359335E+03 -0.73679020970E+03 -0.14597110134E+04  0.16508035413E+04  0.15294330000E+03 0.  0.
<mgrwt>
<rscale>  0 0.77097087E+03</rscale>
<asrwt>0</asrwt>
<pdfrwt beam="1">  1        2 0.30048776E+00 0.77097087E+03</pdfrwt>
<pdfrwt beam="2">  1       -2 0.72152631E-01 0.77097087E+03</pdfrwt>
<totfact> 0.12720548E+01</totfact>
</mgrwt>
</event>
<event>
 4    1  0.1033139E-008  0.1336103E+04  0.7818608E-02  0.9001415E-01
          2   -1    0    0  501    0  0.00000000000E+00  0.00000000000E+00  0.41208868438E+04  0.41208868438E+04  0.25500000000E-02 0. -1.
         -2   -1    0    0    0  501 -0.00000000000E+00 -0.00000000000E+00 -0.66936022302E+03  0.66936022303E+03  0.25500000000E-02 0.  1.
    8880022    1    1    2    0    0 -0.40920707374E+03 -0.12626673768E+04  0.30310463449E+03  0.13700523369E+04  0.15294330000E+03 0.  0.
    8880022    1    1    2    0    0  0.40920707374E+03  0.12626673768E+04  0.31484219862E+04  0.34201947298E+04  0.15294330000E+03 0.  0.
<mgrwt>
<rscale>  0 0.13361029E+04</rscale>
<asrwt>0</asrwt>
<pdfrwt beam="1">  1        2 0.63398261E+00 0.13361029E+04</pdfrwt>
<pdfrwt beam="2">  1       -2 0.10297849E+00 0.13361029E+04</pdfrwt>
<totfact> 0.20822039E-01</totfact>
</mgrwt>
</event>
<event>
 4    1  0.1033139E-008  0.1126172E+04  0.7818608E-02  0.9180052E-01
         -2   -1    0    0    0  501 -0.00000000000E+00  0.00000000000E+00  0.61722622111E+03  0.61722622111E+03  0.25500000000E-02 0.  1.
          2   -1    0    0  501    0  0.00000000000E+00 -0.00000000000E+00 -0.33988193928E+04  0.33988193928E+04  0.25500000000E-02 0. -1.
    8880022    1    1    2    0    0 -0.27050453356E+03 -0.10824501703E+04 -0.26535279108E+04  0.28826156699E+04  0.15294330000E+03 0.  0.
    8880022    1    1    2    0    0  0.27050453356E+03  0.10824501703E+04 -0.12806526084E+03  0.11334299440E+04  0.15294330000E+03 0.  0.
<mgrwt>
<rscale>  0 0.11261717E+04</rscale>
<asrwt>0</asrwt>
<pdfrwt beam="1">  1        2 0.52289528E+00 0.11261717E+04</pdfrwt>
<pdfrwt beam="2">  1       -2 0.94957882E-01 0.11261717E+04</pdfrwt>
<totfact> 0.90000657E-01</totfact>
</mgrwt>
</event>
<event>
 4    1  0.1033139E-008  0.5528359E+03  0.7818608E-02  0.1000840E+00
          2   -1    0    0  501    0  0.00000000000E+00  0.00000000000E+00  0.68621596971E+03  0.68621596972E+03  0.25500000000E-02 0. -1.
         -2   -1    0    0    0  501 -0.00000000000E+00 -0.00000000000E+00 -0.10668934940E+04  0.10668934940E+04  0.25500000000E-02 0.  1.
    8880022    1    1    2    0    0 -0.39248771430E+03  0.35803531658E+03  0.47868792354E+03  0.73127947800E+03  0.15294330000E+03 0.  0.
    8880022    1    1    2    0    0  0.39248771430E+03 -0.35803531658E+03 -0.85936544784E+03  0.10218299857E+04  0.15294330000E+03 0.  0.
<mgrwt>
<rscale>  0 0.55283591E+03</rscale>
<asrwt>0</asrwt>
<pdfrwt beam="1">  1        2 0.10557169E+00 0.55283591E+03</pdfrwt>
<pdfrwt beam="2">  1       -2 0.16413746E+00 0.55283591E+03</pdfrwt>
<totfact> 0.10286019E+01</totfact>
</mgrwt>
</event>
<event>
 4    1  0.1033139E-008  0.2309527E+03  0.7818608E-02  0.1125971E+00
         -2   -1    0    0    0  501 -0.00000000000E+00  0.00000000000E+00  0.39014232531E+03  0.39014232532E+03  0.25500000000E-02 0.  1.
          2   -1    0    0  501    0  0.00000000000E+00 -0.00000000000E+00 -0.99550181560E+03  0.99550181561E+03  0.25500000000E-02 0. -1.
    8880022    1    1    2    0    0  0.46106897783E+02  0.16679821766E+03  0.34081177460E+03  0.41169383061E+03  0.15294330000E+03 0.  1.
    8880022    1    1    2    0    0 -0.46106897783E+02 -0.16679821766E+03 -0.94617126490E+03  0.97395031032E+03  0.15294330000E+03 0.  0.
<mgrwt>
<rscale>  0 0.23095269E+03</rscale>
<asrwt>0</asrwt>
<pdfrwt beam="1">  1        2 0.15315412E+00 0.23095269E+03</pdfrwt>
<pdfrwt beam="2">  1       -2 0.60021897E-01 0.23095269E+03</pdfrwt>
<totfact> 0.71489831E+01</totfact>
</mgrwt>
</event>
<event>
 4    1  0.1033139E-008  0.4729256E+03  0.7818608E-02  0.1021098E+00
          2   -1    0    0  501    0  0.00000000000E+00  0.00000000000E+00  0.88598173651E+03  0.88598173652E+03  0.25500000000E-02 0. -1.
         -2   -1    0    0    0  501 -0.00000000000E+00 -0.00000000000E+00 -0.28759336461E+03  0.28759336462E+03  0.25500000000E-02 0.  1.
    8880022    1    1    2    0    0 -0.44642461679E+03 -0.31177599424E+02  0.50434116037E+03  0.69138892112E+03  0.15294330000E+03 0. -1.
    8880022    1    1    2    0    0  0.44642461679E+03  0.31177599424E+02  0.94047211537E+02  0.48218618002E+03  0.15294330000E+03 0.  0.
<mgrwt>
<rscale>  0 0.47292561E+03</rscale>
<asrwt>0</asrwt>
<pdfrwt beam="1">  1        2 0.13630488E+00 0.47292561E+03</pdfrwt>
<pdfrwt beam="2">  1       -2 0.44245133E-01 0.47292561E+03</pdfrwt>
<totfact> 0.14994624E+02</totfact>
</mgrwt>
</event>
<event>
 4    1  0.1033139E-008  0.7211308E+03  0.7818608E-02  0.9681763E-01
          2   -1    0    0  501    0  0.00000000000E+00  0.00000000000E+00  0.86411392751E+03  0.86411392752E+03  0.25500000000E-02 0. -1.
         -2   -1    0    0    0  501 -0.00000000000E+00 -0.00000000000E+00 -0.98692929999E+03  0.98692929999E+03  0.25500000000E-02 0.  1.
    8880022    1    1    2    0    0 -0.69047946314E+03  0.14098280778E+03  0.51674553967E+03  0.88716156752E+03  0.15294330000E+03 0.  0.
    8880022    1    1    2    0    0  0.69047946314E+03 -0.14098280778E+03 -0.63956091214E+03  0.96388165999E+03  0.15294330000E+03 0.  0.
<mgrwt>
<rscale>  0 0.72113084E+03</rscale>
<asrwt>0</asrwt>
<pdfrwt beam="1">  1        2 0.13294060E+00 0.72113084E+03</pdfrwt>
<pdfrwt beam="2">  1       -2 0.15183528E+00 0.72113084E+03</pdfrwt>
<totfact> 0.91854564E+00</totfact>
</mgrwt>
</event>
<event>
 4    1  0.1033139E-008  0.1184672E+04  0.7818608E-02  0.9126380E-01
         -2   -1    0    0    0  501 -0.00000000000E+00  0.00000000000E+00  0.11534782446E+04  0.11534782446E+04  0.25500000000E-02 0.  1.
          2   -1    0    0  501    0  0.00000000000E+00 -0.00000000000E+00 -0.23829956228E+04  0.23829956228E+04  0.25500000000E-02 0. -1.
    8880022    1    1    2    0    0  0.51491116813E+03 -0.10558990270E+04  0.62227461575E+03  0.13381605347E+04  0.15294330000E+03 0.  0.
    8880022    1    1    2    0    0 -0.51491116813E+03  0.10558990270E+04 -0.18517919940E+04  0.21983133326E+04  0.15294330000E+03 0.  0.
<mgrwt>
<rscale>  0 0.11846721E+04</rscale>
<asrwt>0</asrwt>
<pdfrwt beam="1">  1        2 0.36661471E+00 0.11846721E+04</pdfrwt>
<pdfrwt beam="2">  1       -2 0.17745819E+00 0.11846721E+04</pdfrwt>
<totfact> 0.75007402E-01</totfact>
</mgrwt>
</event>
<event>
 4    1  0.1033139E-008  0.7895226E+03  0.7818608E-02  0.9575308E-01
          2   -1    0    0  501    0  0.00000000000E+00  0.00000000000E+00  0.32363316878E+04  0.32363316878E+04  0.25500000000E-02 0. -1.
         -2   -1    0    0    0  501 -0.00000000000E+00 -0.00000000000E+00 -0.21179054550E+03  0.21179054551E+03  0.25500000000E-02 0.  1.
    8880022    1    1    2    0    0  0.74136811866E+03 -0.22433824854E+03  0.99341875729E+03  0.12689471295E+04  0.15294330000E+03 0.  0.
    8880022    1    1    2    0    0 -0.74136811866E+03  0.22433824854E+03  0.20311223850E+04  0.21791751038E+04  0.15294330000E+03 0.  0.
<mgrwt>
<rscale>  0 0.78952263E+03</rscale>
<asrwt>0</asrwt>
<pdfrwt beam="1">  1        2 0.49789717E+00 0.78952263E+03</pdfrwt>
<pdfrwt beam="2">  1       -2 0.32583161E-01 0.78952263E+03</pdfrwt>
<totfact> 0.11447550E+01</totfact>
</mgrwt>
</event>
<event>
 4    1  0.1033139E-008  0.1027521E+04  0.7818608E-02  0.9278865E-01
         -2   -1    0    0    0  501 -0.00000000000E+00  0.00000000000E+00  0.16814616680E+04  0.16814616680E+04  0.25500000000E-02 0.  1.
          2   -1    0    0  501    0  0.00000000000E+00 -0.00000000000E+00 -0.96496525238E+03  0.96496525238E+03  0.25500000000E-02 0. -1.
    8880022    1    1    2    0    0  0.72391328472E+03  0.71299130928E+03  0.11402858289E+04  0.15349431506E+04  0.15294330000E+03 0.  0.
    8880022    1    1    2    0    0 -0.72391328472E+03 -0.71299130928E+03 -0.42378941322E+03  0.11114837699E+04  0.15294330000E+03 0.  0.
<mgrwt>
<rscale>  0 0.10275207E+04</rscale>
<asrwt>0</asrwt>
<pdfrwt beam="1">  1        2 0.14845619E+00 0.10275207E+04</pdfrwt>
<pdfrwt beam="2">  1       -2 0.25868641E+00 0.10275207E+04</pdfrwt>
<totfact> 0.15002834E+00</totfact>
</mgrwt>
</event>
<event>
 4    1  0.1033139E-008  0.5341851E+03  0.7818608E-02  0.1005222E+00
         -2   -1    0    0    0  501 -0.00000000000E+00  0.00000000000E+00  0.56893939847E+03  0.56893939848E+03  0.25500000000E-02 0.  1.
          2   -1    0    0  501    0  0.00000000000E+00 -0.00000000000E+00 -0.86000325079E+03  0.86000325079E+03  0.25500000000E-02 0. -1.
    8880022    1    1    2    0    0  0.10296116921E+03  0.50135923108E+03 -0.60679501028E+03  0.80842681702E+03  0.15294330000E+03 0.  0.
    8880022    1    1    2    0    0 -0.10296116921E+03 -0.50135923108E+03  0.31573115796E+03  0.62051583225E+03  0.15294330000E+03 0.  0.
<mgrwt>
<rscale>  0 0.53418511E+03</rscale>
<asrwt>0</asrwt>
<pdfrwt beam="1">  1        2 0.13230819E+00 0.53418511E+03</pdfrwt>
<pdfrwt beam="2">  1       -2 0.87529138E-01 0.53418511E+03</pdfrwt>
<totfact> 0.36512018E+01</totfact>
</mgrwt>
</event>
<event>
 4    1  0.1033139E-008  0.8690149E+03  0.7818608E-02  0.9465165E-01
         -2   -1    0    0    0  501 -0.00000000000E+00  0.00000000000E+00  0.33872678424E+03  0.33872678425E+03  0.25500000000E-02 0.  1.
          2   -1    0    0  501    0  0.00000000000E+00 -0.00000000000E+00 -0.23442348384E+04  0.23442348384E+04  0.25500000000E-02 0. -1.
    8880022    1    1    2    0    0  0.66940066818E+03  0.53263301788E+03 -0.70595884341E+03  0.11196270486E+04  0.15294330000E+03 0.  0.
    8880022    1    1    2    0    0 -0.66940066818E+03 -0.53263301788E+03 -0.12995492107E+04  0.15633345740E+04  0.15294330000E+03 0.  0.
<mgrwt>
<rscale>  0 0.86901487E+03</rscale>
<asrwt>0</asrwt>
<pdfrwt beam="1">  1        2 0.36065150E+00 0.86901487E+03</pdfrwt>
<pdfrwt beam="2">  1       -2 0.52111815E-01 0.86901487E+03</pdfrwt>
<totfact> 0.15251857E+01</totfact>
</mgrwt>
</event>
<event>
 4    1  0.1033139E-008  0.3629684E+03  0.7818608E-02  0.1057415E+00
          2   -1    0    0  501    0  0.00000000000E+00  0.00000000000E+00  0.20240416954E+03  0.20240416956E+03  0.25500000000E-02 0. -1.
         -2   -1    0    0    0  501 -0.00000000000E+00 -0.00000000000E+00 -0.20754712811E+04  0.20754712811E+04  0.25500000000E-02 0.  1.
    8880022    1    1    2    0    0  0.32191006270E+03 -0.68762949541E+02  0.70552823554E+01  0.36303699773E+03  0.15294330000E+03 0.  0.
    8880022    1    1    2    0    0 -0.32191006270E+03  0.68762949541E+02 -0.18801223939E+04  0.19148384529E+04  0.15294330000E+03 0.  1.
<mgrwt>
<rscale>  0 0.36296843E+03</rscale>
<asrwt>0</asrwt>
<pdfrwt beam="1">  1        2 0.31139104E-01 0.36296843E+03</pdfrwt>
<pdfrwt beam="2">  1       -2 0.31930326E+00 0.36296843E+03</pdfrwt>
<totfact> 0.46284704E+00</totfact>
</mgrwt>
</event>
<event>
 4    1  0.1033139E-008  0.5719781E+03  0.7818608E-02  0.9965311E-01
         -2   -1    0    0    0  501 -0.00000000000E+00  0.00000000000E+00  0.44417725701E+03  0.44417725702E+03  0.25500000000E-02 0.  1.
          2   -1    0    0  501    0  0.00000000000E+00 -0.00000000000E+00 -0.13665884930E+04  0.13665884930E+04  0.25500000000E-02 0. -1.
    8880022    1    1    2    0    0 -0.48169838462E+03  0.26783196604E+03  0.15354190914E+03  0.59222805291E+03  0.15294330000E+03 0.  0.
    8880022    1    1    2    0    0  0.48169838462E+03 -0.26783196604E+03 -0.10759531451E+04  0.12185376971E+04  0.15294330000E+03 0.  0.
<mgrwt>
<rscale>  0 0.57197810E+03</rscale>
<asrwt>0</asrwt>
<pdfrwt beam="1">  1        2 0.21024438E+00 0.57197810E+03</pdfrwt>
<pdfrwt beam="2">  1       -2 0.68334963E-01 0.57197810E+03</pdfrwt>
<totfact> 0.30941403E+01</totfact>
</mgrwt>
</event>
<event>
 4    1  0.1033139E-008  0.6898344E+03  0.7818608E-02  0.9734776E-01
          2   -1    0    0  501    0  0.00000000000E+00  0.00000000000E+00  0.17885756423E+04  0.17885756423E+04  0.25500000000E-02 0. -1.
         -2   -1    0    0    0  501 -0.00000000000E+00 -0.00000000000E+00 -0.33638255514E+03  0.33638255515E+03  0.25500000000E-02 0.  1.
    8880022    1    1    2    0    0  0.20781764936E+03 -0.63975907287E+03  0.24030976189E+03  0.73049317682E+03  0.15294330000E+03 0.  0.
    8880022    1    1    2    0    0 -0.20781764936E+03  0.63975907287E+03  0.12118833253E+04  0.13944650207E+04  0.15294330000E+03 0.  0.
<mgrwt>
<rscale>  0 0.68983440E+03</rscale>
<asrwt>0</asrwt>
<pdfrwt beam="1">  1        2 0.27516548E+00 0.68983440E+03</pdfrwt>
<pdfrwt beam="2">  1       -2 0.51751162E-01 0.68983440E+03</pdfrwt>
<totfact> 0.31993148E+01</totfact>
</mgrwt>
</event>
<event>
 4    1  0.1033139E-008  0.2922108E+03  0.7818608E-02  0.1089200E+00
         -2   -1    0    0    0  501 -0.00000000000E+00  0.00000000000E+00  0.10504287436E+03  0.10504287439E+03  0.25500000000E-02 0.  1.
          2   -1    0    0  501    0  0.00000000000E+00 -0.00000000000E+00 -0.15702456380E+04  0.15702456380E+04  0.25500000000E-02 0. -1.
    8880022    1    1    2    0    0  0.11606029976E+03 -0.22028505721E+03 -0.13143413276E+04  0.13464324261E+04  0.15294330000E+03 0.  0.
    8880022    1    1    2    0    0 -0.11606029976E+03  0.22028505721E+03 -0.15086143608E+03  0.32885608633E+03  0.15294330000E+03 0.  0.
<mgrwt>
<rscale>  0 0.29221080E+03</rscale>
<asrwt>0</asrwt>
<pdfrwt beam="1">  1        2 0.24157624E+00 0.29221080E+03</pdfrwt>
<pdfrwt beam="2">  1       -2 0.16160443E-01 0.29221080E+03</pdfrwt>
<totfact> 0.37887137E+02</totfact>
</mgrwt>
</event>
<event>
 4    1  0.1033139E-008  0.6941723E+03  0.7818608E-02  0.9727250E-01
          2   -1    0    0  501    0  0.00000000000E+00  0.00000000000E+00  0.18866590957E+04  0.18866590957E+04  0.25500000000E-02 0. -1.
         -2   -1    0    0    0  501 -0.00000000000E+00 -0.00000000000E+00 -0.11059581766E+04  0.11059581766E+04  0.25500000000E-02 0.  1.
    8880022    1    1    2    0    0  0.35746386350E+03 -0.57506796803E+03  0.17025527687E+04  0.18386302415E+04  0.15294330000E+03 0.  0.
    8880022    1    1    2    0    0 -0.35746386350E+03  0.57506796803E+03 -0.92185184962E+03  0.11539870308E+04  0.15294330000E+03 0.  0.
<mgrwt>
<rscale>  0 0.69417234E+03</rscale>
<asrwt>0</asrwt>
<pdfrwt beam="1">  1        2 0.29025524E+00 0.69417234E+03</pdfrwt>
<pdfrwt beam="2">  1       -2 0.17014741E+00 0.69417234E+03</pdfrwt>
<totfact> 0.17216275E+00</totfact>
</mgrwt>
</event>
<event>
 4    1  0.1033139E-008  0.5212085E+03  0.7818608E-02  0.1008387E+00
          2   -1    0    0  501    0  0.00000000000E+00  0.00000000000E+00  0.14147216036E+04  0.14147216036E+04  0.25500000000E-02 0. -1.
         -2   -1    0    0    0  501 -0.00000000000E+00 -0.00000000000E+00 -0.61670646033E+03  0.61670646033E+03  0.25500000000E-02 0.  1.
    8880022    1    1    2    0    0 -0.42359906337E+03 -0.26235561689E+03 -0.44387129521E+03  0.68460208583E+03  0.15294330000E+03 0.  0.
    8880022    1    1    2    0    0  0.42359906337E+03  0.26235561689E+03  0.12418864385E+04  0.13468259781E+04  0.15294330000E+03 0. -1.
<mgrwt>
<rscale>  0 0.52120849E+03</rscale>
<asrwt>0</asrwt>
<pdfrwt beam="1">  1        2 0.21764948E+00 0.52120849E+03</pdfrwt>
<pdfrwt beam="2">  1       -2 0.94877917E-01 0.52120849E+03</pdfrwt>
<totfact> 0.14052161E+01</totfact>
</mgrwt>
</event>
<event>
 4    1  0.1033139E-008  0.6996598E+03  0.7818608E-02  0.9717814E-01
          2   -1    0    0  501    0  0.00000000000E+00  0.00000000000E+00  0.46237023433E+04  0.46237023433E+04  0.25500000000E-02 0. -1.
         -2   -1    0    0    0  501 -0.00000000000E+00 -0.00000000000E+00 -0.11593313034E+03  0.11593313037E+03  0.25500000000E-02 0.  1.
    8880022    1    1    2    0    0  0.67283539031E+03 -0.11586532503E+03  0.29519872246E+04  0.30337686898E+04  0.15294330000E+03 0.  0.
    8880022    1    1    2    0    0 -0.67283539031E+03  0.11586532503E+03  0.15557819884E+04  0.17058667839E+04  0.15294330000E+03 0.  0.
<mgrwt>
<rscale>  0 0.69965984E+03</rscale>
<asrwt>0</asrwt>
<pdfrwt beam="1">  1        2 0.71133869E+00 0.69965984E+03</pdfrwt>
<pdfrwt beam="2">  1       -2 0.17835870E-01 0.69965984E+03</pdfrwt>
<totfact> 0.27815039E+00</totfact>
</mgrwt>
</event>
<event>
 4    1  0.1033139E-008  0.5889908E+03  0.7818608E-02  0.9928514E-01
          2   -1    0    0  501    0  0.00000000000E+00  0.00000000000E+00  0.20138220048E+04  0.20138220048E+04  0.25500000000E-02 0. -1.
         -2   -1    0    0    0  501 -0.00000000000E+00 -0.00000000000E+00 -0.23220238878E+03  0.23220238880E+03  0.25500000000E-02 0.  1.
    8880022    1    1    2    0    0 -0.16776914678E+03 -0.54348139522E+03  0.14613702079E+04  0.15755992673E+04  0.15294330000E+03 0.  0.
    8880022    1    1    2    0    0  0.16776914678E+03  0.54348139522E+03  0.32024940814E+03  0.67042512631E+03  0.15294330000E+03 0.  0.
<mgrwt>
<rscale>  0 0.58899080E+03</rscale>
<asrwt>0</asrwt>
<pdfrwt beam="1">  1        2 0.30981876E+00 0.58899080E+03</pdfrwt>
<pdfrwt beam="2">  1       -2 0.35723446E-01 0.58899080E+03</pdfrwt>
<totfact> 0.50906650E+01</totfact>
</mgrwt>
</event>
<event>
 4    1  0.1033139E-008  0.5215299E+03  0.7818608E-02  0.1008307E+00
          2   -1    0    0  501    0  0.00000000000E+00  0.00000000000E+00  0.14401462017E+04  0.14401462017E+04  0.25500000000E-02 0. -1.
         -2   -1    0    0    0  501 -0.00000000000E+00 -0.00000000000E+00 -0.33659211016E+04  0.33659211016E+04  0.25500000000E-02 0.  1.
    8880022    1    1    2    0    0  0.24900869026E+03 -0.43196809055E+03 -0.32975295844E+04  0.33385168521E+04  0.15294330000E+03 0.  0.
    8880022    1    1    2    0    0 -0.24900869026E+03  0.43196809055E+03  0.13717546845E+04  0.14675504511E+04  0.15294330000E+03 0. -1.
<mgrwt>
<rscale>  0 0.52152988E+03</rscale>
<asrwt>0</asrwt>
<pdfrwt beam="1">  1        2 0.22156096E+00 0.52152988E+03</pdfrwt>
<pdfrwt beam="2">  1       -2 0.51783401E+00 0.52152988E+03</pdfrwt>
<totfact> 0.20232007E-02</totfact>
</mgrwt>
</event>
<event>
 4    1  0.1033139E-008  0.5597242E+03  0.7818608E-02  0.9992679E-01
          2   -1    0    0  501    0  0.00000000000E+00  0.00000000000E+00  0.17885425044E+04  0.17885425044E+04  0.25500000000E-02 0. -1.
         -2   -1    0    0    0  501 -0.00000000000E+00 -0.00000000000E+00 -0.22737292833E+03  0.22737292834E+03  0.25500000000E-02 0.  1.
    8880022    1    1    2    0    0 -0.53839077165E+03 -0.59118707288E+01  0.12635751072E+04  0.13819961207E+04  0.15294330000E+03 0.  0.
    8880022    1    1    2    0    0  0.53839077165E+03  0.59118707288E+01  0.29759446890E+03  0.63391931202E+03  0.15294330000E+03 0.  0.
<mgrwt>
<rscale>  0 0.55972424E+03</rscale>
<asrwt>0</asrwt>
<pdfrwt beam="1">  1        2 0.27516038E+00 0.55972424E+03</pdfrwt>
<pdfrwt beam="2">  1       -2 0.34980451E-01 0.55972424E+03</pdfrwt>
<totfact> 0.70428552E+01</totfact>
</mgrwt>
</event>
<event>
 4    1  0.1033139E-008  0.8802483E+03  0.7818608E-02  0.9450614E-01
         -2   -1    0    0    0  501 -0.00000000000E+00  0.00000000000E+00  0.91908347677E+03  0.91908347677E+03  0.25500000000E-02 0.  1.
          2   -1    0    0  501    0  0.00000000000E+00 -0.00000000000E+00 -0.15526603077E+04  0.15526603077E+04  0.25500000000E-02 0. -1.
    8880022    1    1    2    0    0  0.20547417750E+03 -0.84215542105E+03  0.51870676534E+03  0.10217111883E+04  0.15294330000E+03 0.  0.
    8880022    1    1    2    0    0 -0.20547417750E+03  0.84215542105E+03 -0.11522835963E+04  0.14500325962E+04  0.15294330000E+03 0.  0.
<mgrwt>
<rscale>  0 0.88024829E+03</rscale>
<asrwt>0</asrwt>
<pdfrwt beam="1">  1        2 0.23887082E+00 0.88024829E+03</pdfrwt>
<pdfrwt beam="2">  1       -2 0.14139746E+00 0.88024829E+03</pdfrwt>
<totfact> 0.41826758E+00</totfact>
</mgrwt>
</event>
<event>
 4    1  0.1033139E-008  0.9205027E+03  0.7818608E-02  0.9400309E-01
          2   -1    0    0  501    0  0.00000000000E+00  0.00000000000E+00  0.44975400225E+03  0.44975400226E+03  0.25500000000E-02 0. -1.
         -2   -1    0    0    0  501 -0.00000000000E+00 -0.00000000000E+00 -0.19749484699E+04  0.19749484699E+04  0.25500000000E-02 0.  1.
    8880022    1    1    2    0    0  0.90193618671E+03 -0.10219934211E+03 -0.10227977994E+04  0.13760234671E+04  0.15294330000E+03 0.  0.
    8880022    1    1    2    0    0 -0.90193618671E+03  0.10219934211E+03 -0.50239666820E+03  0.10486790051E+04  0.15294330000E+03 0.  0.
<mgrwt>
<rscale>  0 0.92050271E+03</rscale>
<asrwt>0</asrwt>
<pdfrwt beam="1">  1        2 0.69192924E-01 0.92050271E+03</pdfrwt>
<pdfrwt beam="2">  1       -2 0.30383822E+00 0.92050271E+03</pdfrwt>
<totfact> 0.21327144E+00</totfact>
</mgrwt>
</event>
<event>
 4    1  0.1033139E-008  0.1642734E+04  0.7818608E-02  0.8794717E-01
          2   -1    0    0  501    0  0.00000000000E+00  0.00000000000E+00  0.16807387738E+04  0.16807387738E+04  0.25500000000E-02 0. -1.
         -2   -1    0    0    0  501 -0.00000000000E+00 -0.00000000000E+00 -0.17115144560E+04  0.17115144560E+04  0.25500000000E-02 0.  1.
    8880022    1    1    2    0    0 -0.16344250547E+04 -0.61943033066E+02  0.40657129330E+03  0.16922984572E+04  0.15294330000E+03 0.  0.
    8880022    1    1    2    0    0  0.16344250547E+04  0.61943033066E+02 -0.43734697552E+03  0.16999547726E+04  0.15294330000E+03 0.  0.
<mgrwt>
<rscale>  0 0.16427337E+04</rscale>
<asrwt>0</asrwt>
<pdfrwt beam="1">  1        2 0.25857520E+00 0.16427337E+04</pdfrwt>
<pdfrwt beam="2">  1       -2 0.26330992E+00 0.16427337E+04</pdfrwt>
<totfact> 0.49555546E-01</totfact>
</mgrwt>
</event>
<event>
 4    1  0.1033139E-008  0.1065761E+04  0.7818608E-02  0.9239221E-01
          2   -1    0    0  501    0  0.00000000000E+00  0.00000000000E+00  0.39706084111E+03  0.39706084112E+03  0.25500000000E-02 0. -1.
         -2   -1    0    0    0  501 -0.00000000000E+00 -0.00000000000E+00 -0.45995192860E+04  0.45995192860E+04  0.25500000000E-02 0.  1.
    8880022    1    1    2    0    0  0.10547294506E+04 -0.11073691929E+01 -0.56512147370E+03  0.12063205931E+04  0.15294330000E+03 0.  0.
    8880022    1    1    2    0    0 -0.10547294506E+04  0.11073691929E+01 -0.36373369712E+04  0.37902595340E+04  0.15294330000E+03 0.  0.
<mgrwt>
<rscale>  0 0.10657613E+04</rscale>
<asrwt>0</asrwt>
<pdfrwt beam="1">  1        2 0.61086287E-01 0.10657613E+04</pdfrwt>
<pdfrwt beam="2">  1       -2 0.70761831E+00 0.10657613E+04</pdfrwt>
<totfact> 0.17246883E-02</totfact>
</mgrwt>
</event>
<event>
 4    1  0.1038343E-008  0.1002226E+04  0.7818608E-02  0.9306106E-01
          2   -1    0    0  501    0  0.00000000000E+00  0.00000000000E+00  0.34829416028E+04  0.34829416028E+04  0.25500000000E-02 0. -1.
         -2   -1    0    0    0  501 -0.00000000000E+00 -0.00000000000E+00 -0.82011922419E+03  0.82011922420E+03  0.25500000000E-02 0.  1.
    8880022    1    1    2    0    0  0.36592845700E+03  0.92041411702E+03  0.30638298872E+04  0.32235866691E+04  0.15294330000E+03 0.  0.
    8880022    1    1    2    0    0 -0.36592845700E+03 -0.92041411702E+03 -0.40100750864E+03  0.10794741578E+04  0.15294330000E+03 0.  0.
<mgrwt>
<rscale>  0 0.10022262E+04</rscale>
<asrwt>0</asrwt>
<pdfrwt beam="1">  1        2 0.53583718E+00 0.10022262E+04</pdfrwt>
<pdfrwt beam="2">  1       -2 0.12617219E+00 0.10022262E+04</pdfrwt>
<totfact> 0.40336504E-01</totfact>
</mgrwt>
</event>
<event>
 4    1  0.1033139E-008  0.2154479E+03  0.7818608E-02  0.1137323E+00
         -2   -1    0    0    0  501 -0.00000000000E+00  0.00000000000E+00  0.30204041961E+03  0.30204041962E+03  0.25500000000E-02 0.  1.
          2   -1    0    0  501    0  0.00000000000E+00 -0.00000000000E+00 -0.35672247735E+04  0.35672247735E+04  0.25500000000E-02 0. -1.
    8880022    1    1    2    0    0 -0.98571872450E+02  0.11536773506E+03  0.25990840123E+03  0.33759466580E+03  0.15294330000E+03 0.  0.
    8880022    1    1    2    0    0  0.98571872450E+02 -0.11536773506E+03 -0.35250927551E+04  0.35316705273E+04  0.15294330000E+03 0. -1.
<mgrwt>
<rscale>  0 0.21544786E+03</rscale>
<asrwt>0</asrwt>
<pdfrwt beam="1">  1        2 0.54880378E+00 0.21544786E+03</pdfrwt>
<pdfrwt beam="2">  1       -2 0.46467759E-01 0.21544786E+03</pdfrwt>
<totfact> 0.42969543E+00</totfact>
</mgrwt>
</event>
<event>
 4    1  0.1033139E-008  0.1097650E+04  0.7818608E-02  0.9207485E-01
         -2   -1    0    0    0  501 -0.00000000000E+00  0.00000000000E+00  0.62587702246E+03  0.62587702246E+03  0.25500000000E-02 0.  1.
          2   -1    0    0  501    0  0.00000000000E+00 -0.00000000000E+00 -0.32062699442E+04  0.32062699442E+04  0.25500000000E-02 0. -1.
    8880022    1    1    2    0    0  0.10636896561E+04  0.22362669383E+03 -0.78967577247E+02  0.11004872166E+04  0.15294330000E+03 0.  0.
    8880022    1    1    2    0    0 -0.10636896561E+04 -0.22362669383E+03 -0.25014253445E+04  0.27316597500E+04  0.15294330000E+03 0.  0.
<mgrwt>
<rscale>  0 0.10976503E+04</rscale>
<asrwt>0</asrwt>
<pdfrwt beam="1">  1        2 0.49327229E+00 0.10976503E+04</pdfrwt>
<pdfrwt beam="2">  1       -2 0.96288774E-01 0.10976503E+04</pdfrwt>
<totfact> 0.11710924E+00</totfact>
</mgrwt>
</event>
<event>
 4    1  0.1033139E-008  0.6911610E+03  0.7818608E-02  0.9732469E-01
          2   -1    0    0  501    0  0.00000000000E+00  0.00000000000E+00  0.40631189757E+04  0.40631189757E+04  0.25500000000E-02 0. -1.
         -2   -1    0    0    0  501 -0.00000000000E+00 -0.00000000000E+00 -0.19695833688E+03  0.19695833690E+03  0.25500000000E-02 0.  1.
    8880022    1    1    2    0    0 -0.65835684710E+03 -0.14449262987E+03  0.58076834474E+03  0.90277094630E+03  0.15294330000E+03 0.  0.
    8880022    1    1    2    0    0  0.65835684710E+03  0.14449262987E+03  0.32853922941E+04  0.33573063663E+04  0.15294330000E+03 0.  0.
<mgrwt>
<rscale>  0 0.69116099E+03</rscale>
<asrwt>0</asrwt>
<pdfrwt beam="1">  1        2 0.62509519E+00 0.69116099E+03</pdfrwt>
<pdfrwt beam="2">  1       -2 0.30301285E-01 0.69116099E+03</pdfrwt>
<totfact> 0.34383420E+00</totfact>
</mgrwt>
</event>
<event>
 4    1  0.1033139E-008  0.1245809E+04  0.7818608E-02  0.9073679E-01
          2   -1    0    0  501    0  0.00000000000E+00  0.00000000000E+00  0.25053758542E+04  0.25053758542E+04  0.25500000000E-02 0. -1.
         -2   -1    0    0    0  501 -0.00000000000E+00 -0.00000000000E+00 -0.14948752536E+04  0.14948752536E+04  0.25500000000E-02 0.  1.
    8880022    1    1    2    0    0  0.11598339489E+04 -0.42829185443E+03  0.20358297358E+04  0.23867641416E+04  0.15294330000E+03 0.  0.
    8880022    1    1    2    0    0 -0.11598339489E+04  0.42829185443E+03 -0.10253291352E+04  0.16134869662E+04  0.15294330000E+03 0.  0.
<mgrwt>
<rscale>  0 0.12458091E+04</rscale>
<asrwt>0</asrwt>
<pdfrwt beam="1">  1        2 0.38544243E+00 0.12458091E+04</pdfrwt>
<pdfrwt beam="2">  1       -2 0.22998081E+00 0.12458091E+04</pdfrwt>
<totfact> 0.28666679E-01</totfact>
</mgrwt>
</event>
<event>
 4    1  0.1033139E-008  0.1041772E+04  0.7818608E-02  0.9263881E-01
         -2   -1    0    0    0  501 -0.00000000000E+00  0.00000000000E+00  0.37844211696E+03  0.37844211697E+03  0.25500000000E-02 0.  1.
          2   -1    0    0  501    0  0.00000000000E+00 -0.00000000000E+00 -0.30484437698E+04  0.30484437698E+04  0.25500000000E-02 0. -1.
    8880022    1    1    2    0    0 -0.79844106005E+03  0.65145106734E+03 -0.17521271073E+04  0.20384400095E+04  0.15294330000E+03 0.  0.
    8880022    1    1    2    0    0  0.79844106005E+03 -0.65145106734E+03 -0.91787454558E+03  0.13884458772E+04  0.15294330000E+03 0.  0.
<mgrwt>
<rscale>  0 0.10417717E+04</rscale>
<asrwt>0</asrwt>
<pdfrwt beam="1">  1        2 0.46899133E+00 0.10417717E+04</pdfrwt>
<pdfrwt beam="2">  1       -2 0.58221866E-01 0.10417717E+04</pdfrwt>
<totfact> 0.45593861E+00</totfact>
</mgrwt>
</event>
<event>
 4    1  0.1033139E-008  0.1615022E+04  0.7818608E-02  0.8811372E-01
          2   -1    0    0  501    0  0.00000000000E+00  0.00000000000E+00  0.40769859898E+04  0.40769859898E+04  0.25500000000E-02 0. -1.
         -2   -1    0    0    0  501 -0.00000000000E+00 -0.00000000000E+00 -0.95754829052E+03  0.95754829052E+03  0.25500000000E-02 0.  1.
    8880022    1    1    2    0    0  0.40420486144E+03 -0.15561246045E+04  0.10955470349E+03  0.16187338388E+04  0.15294330000E+03 0.  0.
    8880022    1    1    2    0    0 -0.40420486144E+03  0.15561246045E+04  0.30098829958E+04  0.34158004416E+04  0.15294330000E+03 0.  0.
<mgrwt>
<rscale>  0 0.16150223E+04</rscale>
<asrwt>0</asrwt>
<pdfrwt beam="1">  1        2 0.62722861E+00 0.16150223E+04</pdfrwt>
<pdfrwt beam="2">  1       -2 0.14731512E+00 0.16150223E+04</pdfrwt>
<totfact> 0.88131842E-02</totfact>
</mgrwt>
</event>
<event>
 4    1  0.1033139E-008  0.3019967E+03  0.7818608E-02  0.1084247E+00
          2   -1    0    0  501    0  0.00000000000E+00  0.00000000000E+00  0.90931729476E+03  0.90931729477E+03  0.25500000000E-02 0. -1.
         -2   -1    0    0    0  501 -0.00000000000E+00 -0.00000000000E+00 -0.12535139739E+04  0.12535139739E+04  0.25500000000E-02 0.  1.
    8880022    1    1    2    0    0 -0.25622485751E+03  0.46467220092E+02 -0.12093485179E+04  0.12464854074E+04  0.15294330000E+03 0.  1.
    8880022    1    1    2    0    0  0.25622485751E+03 -0.46467220092E+02  0.86515183881E+03  0.91634586121E+03  0.15294330000E+03 0.  0.
<mgrwt>
<rscale>  0 0.30199674E+03</rscale>
<asrwt>0</asrwt>
<pdfrwt beam="1">  1        2 0.13989497E+00 0.30199674E+03</pdfrwt>
<pdfrwt beam="2">  1       -2 0.19284830E+00 0.30199674E+03</pdfrwt>
<totfact> 0.48227894E+00</totfact>
</mgrwt>
</event>
<event>
 4    1  0.1033139E-008  0.7396829E+03  0.7818608E-02  0.9651677E-01
         -2   -1    0    0    0  501 -0.00000000000E+00  0.00000000000E+00  0.11219302228E+04  0.11219302228E+04  0.25500000000E-02 0.  1.
          2   -1    0    0  501    0  0.00000000000E+00 -0.00000000000E+00 -0.58493644205E+03  0.58493644205E+03  0.25500000000E-02 0. -1.
    8880022    1    1    2    0    0  0.42075355172E+03 -0.58881709755E+03 -0.79518646509E+02  0.74394488627E+03  0.15294330000E+03 0.  0.
    8880022    1    1    2    0    0 -0.42075355172E+03  0.58881709755E+03  0.61651242721E+03  0.96292177854E+03  0.15294330000E+03 0.  0.
<mgrwt>
<rscale>  0 0.73968289E+03</rscale>
<asrwt>0</asrwt>
<pdfrwt beam="1">  1        2 0.89990222E-01 0.73968289E+03</pdfrwt>
<pdfrwt beam="2">  1       -2 0.17260465E+00 0.73968289E+03</pdfrwt>
<totfact> 0.10629236E+01</totfact>
</mgrwt>
</event>
<event>
 4    1  0.1033139E-008  0.7907387E+03  0.7818608E-02  0.9573520E-01
          2   -1    0    0  501    0  0.00000000000E+00  0.00000000000E+00  0.26872423959E+04  0.26872423959E+04  0.25500000000E-02 0. -1.
         -2   -1    0    0    0  501 -0.00000000000E+00 -0.00000000000E+00 -0.29107651536E+03  0.29107651537E+03  0.25500000000E-02 0.  1.
    8880022    1    1    2    0    0  0.63234703964E+03 -0.44945889661E+03  0.18650906443E+04  0.20257914115E+04  0.15294330000E+03 0.  0.
    8880022    1    1    2    0    0 -0.63234703964E+03  0.44945889661E+03  0.53107523618E+03  0.95252749975E+03  0.15294330000E+03 0.  0.
<mgrwt>
<rscale>  0 0.79073873E+03</rscale>
<asrwt>0</asrwt>
<pdfrwt beam="1">  1        2 0.41342191E+00 0.79073873E+03</pdfrwt>
<pdfrwt beam="2">  1       -2 0.44781002E-01 0.79073873E+03</pdfrwt>
<totfact> 0.13365028E+01</totfact>
</mgrwt>
</event>
<event>
 4    1  0.1033139E-008  0.1127032E+04  0.7818608E-02  0.9179238E-01
          2   -1    0    0  501    0  0.00000000000E+00  0.00000000000E+00  0.14473375190E+04  0.14473375190E+04  0.25500000000E-02 0. -1.
         -2   -1    0    0    0  501 -0.00000000000E+00 -0.00000000000E+00 -0.99155368830E+03  0.99155368830E+03  0.25500000000E-02 0.  1.
    8880022    1    1    2    0    0 -0.11129122806E+04 -0.90752606128E+02 -0.18548362317E+03  0.11421933318E+04  0.15294330000E+03 0.  0.
    8880022    1    1    2    0    0  0.11129122806E+04  0.90752606128E+02  0.64126745386E+03  0.12966978755E+04  0.15294330000E+03 0.  0.
<mgrwt>
<rscale>  0 0.11270321E+04</rscale>
<asrwt>0</asrwt>
<pdfrwt beam="1">  1        2 0.22266731E+00 0.11270321E+04</pdfrwt>
<pdfrwt beam="2">  1       -2 0.15254672E+00 0.11270321E+04</pdfrwt>
<totfact> 0.38133043E+00</totfact>
</mgrwt>
</event>
<event>
 4    1  0.1458673E-008  0.1286802E+04  0.7818608E-02  0.9040098E-01
          2   -1    0    0  501    0  0.00000000000E+00  0.00000000000E+00  0.26231750773E+04  0.26231750773E+04  0.25500000000E-02 0. -1.
         -2   -1    0    0    0  501 -0.00000000000E+00 -0.00000000000E+00 -0.15801499591E+04  0.15801499591E+04  0.25500000000E-02 0.  1.
    8880022    1    1    2    0    0 -0.11020459627E+04 -0.64649944070E+03 -0.11071302793E+04  0.16975264177E+04  0.15294330000E+03 0.  0.
    8880022    1    1    2    0    0  0.11020459627E+04  0.64649944070E+03  0.21501553975E+04  0.25057986186E+04  0.15294330000E+03 0.  0.
<mgrwt>
<rscale>  0 0.12868016E+04</rscale>
<asrwt>0</asrwt>
<pdfrwt beam="1">  1        2 0.40356540E+00 0.12868016E+04</pdfrwt>
<pdfrwt beam="2">  1       -2 0.24309999E+00 0.12868016E+04</pdfrwt>
<totfact> 0.20184466E-01</totfact>
</mgrwt>
</event>
<event>
 4    1  0.1033139E-008  0.4153555E+03  0.7818608E-02  0.1038589E+00
         -2   -1    0    0    0  501 -0.00000000000E+00  0.00000000000E+00  0.43246992897E+03  0.43246992898E+03  0.25500000000E-02 0.  1.
          2   -1    0    0  501    0  0.00000000000E+00 -0.00000000000E+00 -0.91435114733E+03  0.91435114734E+03  0.25500000000E-02 0. -1.
    8880022    1    1    2    0    0 -0.35769357201E+03 -0.14554668409E+03 -0.74654336750E+03  0.85431093946E+03  0.15294330000E+03 0. -1.
    8880022    1    1    2    0    0  0.35769357201E+03  0.14554668409E+03  0.26466214914E+03  0.49251013686E+03  0.15294330000E+03 0.  0.
<mgrwt>
<rscale>  0 0.41535549E+03</rscale>
<asrwt>0</asrwt>
<pdfrwt beam="1">  1        2 0.14066941E+00 0.41535549E+03</pdfrwt>
<pdfrwt beam="2">  1       -2 0.66533835E-01 0.41535549E+03</pdfrwt>
<totfact> 0.62550292E+01</totfact>
</mgrwt>
</event>
<event>
 4    1  0.1033139E-008  0.1011534E+04  0.7818608E-02  0.9295984E-01
         -2   -1    0    0    0  501 -0.00000000000E+00  0.00000000000E+00  0.36021345454E+03  0.36021345455E+03  0.25500000000E-02 0.  1.
          2   -1    0    0  501    0  0.00000000000E+00 -0.00000000000E+00 -0.41652794549E+04  0.41652794549E+04  0.25500000000E-02 0. -1.
    8880022    1    1    2    0    0 -0.96798406512E+03  0.25063340594E+03 -0.31786148131E+04  0.33356849428E+04  0.15294330000E+03 0.  0.
    8880022    1    1    2    0    0  0.96798406512E+03 -0.25063340594E+03 -0.62645118728E+03  0.11898079667E+04  0.15294330000E+03 0.  0.
<mgrwt>
<rscale>  0 0.10115344E+04</rscale>
<asrwt>0</asrwt>
<pdfrwt beam="1">  1        2 0.64081219E+00 0.10115344E+04</pdfrwt>
<pdfrwt beam="2">  1       -2 0.55417457E-01 0.10115344E+04</pdfrwt>
<totfact> 0.80742663E-01</totfact>
</mgrwt>
</event>
<event>
 4    1  0.1033139E-008  0.3766131E+03  0.7818608E-02  0.1052193E+00
         -2   -1    0    0    0  501 -0.00000000000E+00  0.00000000000E+00  0.27449147813E+03  0.27449147814E+03  0.25500000000E-02 0.  1.
          2   -1    0    0  501    0  0.00000000000E+00 -0.00000000000E+00 -0.21242533505E+04  0.21242533505E+04  0.25500000000E-02 0. -1.
    8880022    1    1    2    0    0  0.13276098752E+03 -0.31752211374E+03  0.11846857878E+03  0.39480657250E+03  0.15294330000E+03 0.  0.
    8880022    1    1    2    0    0 -0.13276098752E+03  0.31752211374E+03 -0.19682304512E+04  0.20039382562E+04  0.15294330000E+03 0.  0.
<mgrwt>
<rscale>  0 0.37661310E+03</rscale>
<asrwt>0</asrwt>
<pdfrwt beam="1">  1        2 0.32680820E+00 0.37661310E+03</pdfrwt>
<pdfrwt beam="2">  1       -2 0.42229460E-01 0.37661310E+03</pdfrwt>
<totfact> 0.33583267E+01</totfact>
</mgrwt>
</event>
<event>
 4    1  0.1033139E-008  0.3706778E+03  0.7818608E-02  0.1054434E+00
          2   -1    0    0  501    0  0.00000000000E+00  0.00000000000E+00  0.24285146306E+03  0.24285146307E+03  0.25500000000E-02 0. -1.
         -2   -1    0    0    0  501 -0.00000000000E+00 -0.00000000000E+00 -0.93334160554E+03  0.93334160554E+03  0.25500000000E-02 0.  1.
    8880022    1    1    2    0    0 -0.10986900392E+03 -0.31927912532E+03  0.23808747472E+02  0.37144160693E+03  0.15294330000E+03 0.  0.
    8880022    1    1    2    0    0  0.10986900392E+03  0.31927912532E+03 -0.71429888996E+03  0.80475146169E+03  0.15294330000E+03 0.  1.
<mgrwt>
<rscale>  0 0.37067777E+03</rscale>
<asrwt>0</asrwt>
<pdfrwt beam="1">  1        2 0.37361764E-01 0.37067777E+03</pdfrwt>
<pdfrwt beam="2">  1       -2 0.14359101E+00 0.37067777E+03</pdfrwt>
<totfact> 0.48652670E+01</totfact>
</mgrwt>
</event>
<event>
 4    1  0.1033139E-008  0.7599845E+03  0.7818608E-02  0.9619815E-01
          2   -1    0    0  501    0  0.00000000000E+00  0.00000000000E+00  0.15596413932E+04  0.15596413932E+04  0.25500000000E-02 0. -1.
         -2   -1    0    0    0  501 -0.00000000000E+00 -0.00000000000E+00 -0.53244084932E+03  0.53244084933E+03  0.25500000000E-02 0.  1.
    8880022    1    1    2    0    0  0.60268184609E+03  0.43698898709E+03 -0.63596496539E+02  0.76264077378E+03  0.15294330000E+03 0.  0.
    8880022    1    1    2    0    0 -0.60268184609E+03 -0.43698898709E+03  0.10907970404E+04  0.13294414688E+04  0.15294330000E+03 0.  0.
<mgrwt>
<rscale>  0 0.75998450E+03</rscale>
<asrwt>0</asrwt>
<pdfrwt beam="1">  1        2 0.23994483E+00 0.75998450E+03</pdfrwt>
<pdfrwt beam="2">  1       -2 0.81913976E-01 0.75998450E+03</pdfrwt>
<totfact> 0.15766323E+01</totfact>
</mgrwt>
</event>
<event>
 4    1  0.1033139E-008  0.5799319E+03  0.7818608E-02  0.9947938E-01
          2   -1    0    0  501    0  0.00000000000E+00  0.00000000000E+00  0.45013539673E+04  0.45013539673E+04  0.25500000000E-02 0. -1.
         -2   -1    0    0    0  501 -0.00000000000E+00 -0.00000000000E+00 -0.64667243550E+03  0.64667243551E+03  0.25500000000E-02 0.  1.
    8880022    1    1    2    0    0  0.55784099462E+03 -0.41746779533E+02 -0.49341096613E+03  0.76142984141E+03  0.15294330000E+03 0.  0.
    8880022    1    1    2    0    0 -0.55784099462E+03  0.41746779533E+02  0.43480924979E+04  0.43865965614E+04  0.15294330000E+03 0. -1.
<mgrwt>
<rscale>  0 0.57993191E+03</rscale>
<asrwt>0</asrwt>
<pdfrwt beam="1">  1        2 0.69251603E+00 0.57993191E+03</pdfrwt>
<pdfrwt beam="2">  1       -2 0.99488062E-01 0.57993191E+03</pdfrwt>
<totfact> 0.12472780E-01</totfact>
</mgrwt>
</event>
<event>
 4    1  0.1033139E-008  0.6062608E+03  0.7818608E-02  0.9892501E-01
          2   -1    0    0  501    0  0.00000000000E+00  0.00000000000E+00  0.14761962167E+04  0.14761962167E+04  0.25500000000E-02 0. -1.
         -2   -1    0    0    0  501 -0.00000000000E+00 -0.00000000000E+00 -0.66217787477E+03  0.66217787477E+03  0.25500000000E-02 0.  1.
    8880022    1    1    2    0    0  0.35865943282E+03  0.46424555234E+03 -0.43757365804E+03  0.74767832712E+03  0.15294330000E+03 0.  0.
    8880022    1    1    2    0    0 -0.35865943282E+03 -0.46424555234E+03  0.12515920000E+04  0.13906957644E+04  0.15294330000E+03 0.  0.
<mgrwt>
<rscale>  0 0.60626081E+03</rscale>
<asrwt>0</asrwt>
<pdfrwt beam="1">  1        2 0.22710711E+00 0.60626081E+03</pdfrwt>
<pdfrwt beam="2">  1       -2 0.10187352E+00 0.60626081E+03</pdfrwt>
<totfact> 0.10827702E+01</totfact>
</mgrwt>
</event>
<event>
 4    1  0.1033139E-008  0.8222254E+03  0.7818608E-02  0.9528392E-01
          2   -1    0    0  501    0  0.00000000000E+00  0.00000000000E+00  0.55978503932E+03  0.55978503933E+03  0.25500000000E-02 0. -1.
         -2   -1    0    0    0  501 -0.00000000000E+00 -0.00000000000E+00 -0.14012779733E+04  0.14012779733E+04  0.25500000000E-02 0.  1.
    8880022    1    1    2    0    0  0.80207360998E+03 -0.96648640158E+02 -0.78518372683E+03  0.11369116823E+04  0.15294330000E+03 0.  0.
    8880022    1    1    2    0    0 -0.80207360998E+03  0.96648640158E+02 -0.56309207167E+02  0.82415133034E+03  0.15294330000E+03 0.  0.
<mgrwt>
<rscale>  0 0.82222545E+03</rscale>
<asrwt>0</asrwt>
<pdfrwt beam="1">  1        2 0.86120776E-01 0.82222545E+03</pdfrwt>
<pdfrwt beam="2">  1       -2 0.21558123E+00 0.82222545E+03</pdfrwt>
<totfact> 0.57633040E+00</totfact>
</mgrwt>
</event>
<event>
 4    1  0.1033139E-008  0.1456205E+04  0.7818608E-02  0.8914110E-01
         -2   -1    0    0    0  501 -0.00000000000E+00  0.00000000000E+00  0.64855910405E+03  0.64855910405E+03  0.25500000000E-02 0.  1.
          2   -1    0    0  501    0  0.00000000000E+00 -0.00000000000E+00 -0.36296989607E+04  0.36296989607E+04  0.25500000000E-02 0. -1.
    8880022    1    1    2    0    0  0.46565487881E+03  0.13712427680E+04 -0.21643356188E+04  0.26086167826E+04  0.15294330000E+03 0.  0.
    8880022    1    1    2    0    0 -0.46565487881E+03 -0.13712427680E+04 -0.81680423782E+03  0.16696412821E+04  0.15294330000E+03 0.  0.
<mgrwt>
<rscale>  0 0.14562049E+04</rscale>
<asrwt>0</asrwt>
<pdfrwt beam="1">  1        2 0.55841521E+00 0.14562049E+04</pdfrwt>
<pdfrwt beam="2">  1       -2 0.99778326E-01 0.14562049E+04</pdfrwt>
<totfact> 0.52877010E-01</totfact>
</mgrwt>
</event>
<event>
 4    1  0.1033139E-008  0.5874490E+03  0.7818608E-02  0.9931793E-01
          2   -1    0    0  501    0  0.00000000000E+00  0.00000000000E+00  0.23260176064E+04  0.23260176064E+04  0.25500000000E-02 0. -1.
         -2   -1    0    0    0  501 -0.00000000000E+00 -0.00000000000E+00 -0.35686558457E+03  0.35686558458E+03  0.25500000000E-02 0.  1.
    8880022    1    1    2    0    0 -0.32057069568E+03 -0.46790926845E+03 -0.40779686164E+02  0.58886270917E+03  0.15294330000E+03 0.  0.
    8880022    1    1    2    0    0  0.32057069568E+03  0.46790926845E+03  0.20099317080E+04  0.20940204818E+04  0.15294330000E+03 0.  0.
<mgrwt>
<rscale>  0 0.58744898E+03</rscale>
<asrwt>0</asrwt>
<pdfrwt beam="1">  1        2 0.35784886E+00 0.58744898E+03</pdfrwt>
<pdfrwt beam="2">  1       -2 0.54902399E-01 0.58744898E+03</pdfrwt>
<totfact> 0.14670312E+01</totfact>
</mgrwt>
</event>
<event>
 4    1  0.1033139E-008  0.1034249E+04  0.7818608E-02  0.9271758E-01
          2   -1    0    0  501    0  0.00000000000E+00  0.00000000000E+00  0.97685332906E+03  0.97685332907E+03  0.25500000000E-02 0. -1.
         -2   -1    0    0    0  501 -0.00000000000E+00 -0.00000000000E+00 -0.17531580778E+04  0.17531580778E+04  0.25500000000E-02 0.  1.
    8880022    1    1    2    0    0  0.10209460197E+04 -0.62845168449E+02 -0.12244928366E+04  0.16028270805E+04  0.15294330000E+03 0.  0.
    8880022    1    1    2    0    0 -0.10209460197E+04  0.62845168449E+02  0.44818808784E+03  0.11271843263E+04  0.15294330000E+03 0.  0.
<mgrwt>
<rscale>  0 0.10342495E+04</rscale>
<asrwt>0</asrwt>
<pdfrwt beam="1">  1        2 0.15028513E+00 0.10342495E+04</pdfrwt>
<pdfrwt beam="2">  1       -2 0.26971663E+00 0.10342495E+04</pdfrwt>
<totfact> 0.12623474E+00</totfact>
</mgrwt>
</event>
<event>
 4    1  0.1033139E-008  0.6829493E+03  0.7818608E-02  0.9746844E-01
         -2   -1    0    0    0  501 -0.00000000000E+00  0.00000000000E+00  0.99437349368E+03  0.99437349368E+03  0.25500000000E-02 0.  1.
          2   -1    0    0  501    0  0.00000000000E+00 -0.00000000000E+00 -0.64336413425E+03  0.64336413426E+03  0.25500000000E-02 0. -1.
    8880022    1    1    2    0    0  0.54117777717E+03 -0.38749795808E+03 -0.25072251972E+03  0.72751734613E+03  0.15294330000E+03 0.  0.
    8880022    1    1    2    0    0 -0.54117777717E+03  0.38749795808E+03  0.60173187915E+03  0.91022028181E+03  0.15294330000E+03 0.  0.
<mgrwt>
<rscale>  0 0.68294927E+03</rscale>
<asrwt>0</asrwt>
<pdfrwt beam="1">  1        2 0.98979098E-01 0.68294927E+03</pdfrwt>
<pdfrwt beam="2">  1       -2 0.15298054E+00 0.68294927E+03</pdfrwt>
<totfact> 0.13235929E+01</totfact>
</mgrwt>
</event>
<event>
 4    1  0.1033139E-008  0.1018514E+04  0.7818608E-02  0.9288469E-01
         -2   -1    0    0    0  501 -0.00000000000E+00  0.00000000000E+00  0.10573947509E+04  0.10573947509E+04  0.25500000000E-02 0.  1.
          2   -1    0    0  501    0  0.00000000000E+00 -0.00000000000E+00 -0.10896187599E+04  0.10896187599E+04  0.25500000000E-02 0. -1.
    8880022    1    1    2    0    0 -0.79753713305E+03  0.61474716965E+03 -0.35495091291E+03  0.10785923070E+04  0.15294330000E+03 0.  0.
    8880022    1    1    2    0    0  0.79753713305E+03 -0.61474716965E+03  0.32272690387E+03  0.10684212038E+04  0.15294330000E+03 0.  0.
<mgrwt>
<rscale>  0 0.10185142E+04</rscale>
<asrwt>0</asrwt>
<pdfrwt beam="1">  1        2 0.16763366E+00 0.10185142E+04</pdfrwt>
<pdfrwt beam="2">  1       -2 0.16267612E+00 0.10185142E+04</pdfrwt>
<totfact> 0.52653918E+00</totfact>
</mgrwt>
</event>
<event>
 4    1  0.1033139E-008  0.7025443E+03  0.7818608E-02  0.9712891E-01
          2   -1    0    0  501    0  0.00000000000E+00  0.00000000000E+00  0.12227733208E+04  0.12227733208E+04  0.25500000000E-02 0. -1.
         -2   -1    0    0    0  501 -0.00000000000E+00 -0.00000000000E+00 -0.88900644421E+03  0.88900644421E+03  0.25500000000E-02 0.  1.
    8880022    1    1    2    0    0 -0.55404086329E+03 -0.40399947506E+03  0.94706919443E+03  0.11791982726E+04  0.15294330000E+03 0.  0.
    8880022    1    1    2    0    0  0.55404086329E+03  0.40399947506E+03 -0.61330231779E+03  0.93258149246E+03  0.15294330000E+03 0.  0.
<mgrwt>
<rscale>  0 0.70254431E+03</rscale>
<asrwt>0</asrwt>
<pdfrwt beam="1">  1        2 0.18811897E+00 0.70254431E+03</pdfrwt>
<pdfrwt beam="2">  1       -2 0.13677022E+00 0.70254431E+03</pdfrwt>
<totfact> 0.71975607E+00</totfact>
</mgrwt>
</event>
<event>
 4    1  0.1033139E-008  0.1152638E+04  0.7818608E-02  0.9155354E-01
          2   -1    0    0  501    0  0.00000000000E+00  0.00000000000E+00  0.10012183818E+04  0.10012183818E+04  0.25500000000E-02 0. -1.
         -2   -1    0    0    0  501 -0.00000000000E+00 -0.00000000000E+00 -0.13821924971E+04  0.13821924971E+04  0.25500000000E-02 0.  1.
    8880022    1    1    2    0    0 -0.10812355332E+04 -0.36893278670E+03 -0.42871647655E+03  0.12297850014E+04  0.15294330000E+03 0.  0.
    8880022    1    1    2    0    0  0.10812355332E+04  0.36893278670E+03  0.47742361224E+02  0.11536258776E+04  0.15294330000E+03 0.  0.
<mgrwt>
<rscale>  0 0.11526376E+04</rscale>
<asrwt>0</asrwt>
<pdfrwt beam="1">  1        2 0.15403360E+00 0.11526376E+04</pdfrwt>
<pdfrwt beam="2">  1       -2 0.21264500E+00 0.11526376E+04</pdfrwt>
<totfact> 0.27052714E+00</totfact>
</mgrwt>
</event>
<event>
 4    1  0.1033139E-008  0.1039391E+04  0.7818608E-02  0.9266367E-01
          2   -1    0    0  501    0  0.00000000000E+00  0.00000000000E+00  0.27190538535E+04  0.27190538535E+04  0.25500000000E-02 0. -1.
         -2   -1    0    0    0  501 -0.00000000000E+00 -0.00000000000E+00 -0.54252493502E+03  0.54252493503E+03  0.25500000000E-02 0.  1.
    8880022    1    1    2    0    0  0.10018647935E+04 -0.23066912092E+03  0.19319479461E+04  0.21937994045E+04  0.15294330000E+03 0.  0.
    8880022    1    1    2    0    0 -0.10018647935E+04  0.23066912092E+03  0.24458097244E+03  0.10677793840E+04  0.15294330000E+03 0.  0.
<mgrwt>
<rscale>  0 0.10393907E+04</rscale>
<asrwt>0</asrwt>
<pdfrwt beam="1">  1        2 0.41831597E+00 0.10393907E+04</pdfrwt>
<pdfrwt beam="2">  1       -2 0.83465375E-01 0.10393907E+04</pdfrwt>
<totfact> 0.32774801E+00</totfact>
</mgrwt>
</event>
<event>
 4    1  0.1033139E-008  0.8713396E+03  0.7818608E-02  0.9462135E-01
          2   -1    0    0  501    0  0.00000000000E+00  0.00000000000E+00  0.24583095550E+04  0.24583095550E+04  0.25500000000E-02 0. -1.
         -2   -1    0    0    0  501 -0.00000000000E+00 -0.00000000000E+00 -0.44216802921E+03  0.44216802922E+03  0.25500000000E-02 0.  1.
    8880022    1    1    2    0    0  0.64860751905E+03  0.56138155935E+03  0.21172608784E+03  0.89669423899E+03  0.15294330000E+03 0.  0.
    8880022    1    1    2    0    0 -0.64860751905E+03 -0.56138155935E+03  0.18044154380E+04  0.20037833452E+04  0.15294330000E+03 0.  0.
<mgrwt>
<rscale>  0 0.87133956E+03</rscale>
<asrwt>0</asrwt>
<pdfrwt beam="1">  1        2 0.37820148E+00 0.87133956E+03</pdfrwt>
<pdfrwt beam="2">  1       -2 0.68025849E-01 0.87133956E+03</pdfrwt>
<totfact> 0.74856529E+00</totfact>
</mgrwt>
</event>
<event>
 4    1  0.1033139E-008  0.5431934E+03  0.7818608E-02  0.1003082E+00
          2   -1    0    0  501    0  0.00000000000E+00  0.00000000000E+00  0.40878563260E+03  0.40878563261E+03  0.25500000000E-02 0. -1.
         -2   -1    0    0    0  501 -0.00000000000E+00 -0.00000000000E+00 -0.10271183075E+04  0.10271183075E+04  0.25500000000E-02 0.  1.
    8880022    1    1    2    0    0  0.28142302302E+03 -0.43871226264E+03 -0.70060691262E+03  0.88651512469E+03  0.15294330000E+03 0.  0.
    8880022    1    1    2    0    0 -0.28142302302E+03  0.43871226264E+03  0.82274237750E+02  0.54938881540E+03  0.15294330000E+03 0.  0.
<mgrwt>
<rscale>  0 0.54319335E+03</rscale>
<asrwt>0</asrwt>
<pdfrwt beam="1">  1        2 0.62890097E-01 0.54319335E+03</pdfrwt>
<pdfrwt beam="2">  1       -2 0.15801820E+00 0.54319335E+03</pdfrwt>
<totfact> 0.20908793E+01</totfact>
</mgrwt>
</event>
<event>
 4    1  0.1033139E-008  0.1735837E+04  0.7818608E-02  0.8741185E-01
         -2   -1    0    0    0  501 -0.00000000000E+00  0.00000000000E+00  0.16213100727E+04  0.16213100727E+04  0.25500000000E-02 0.  1.
          2   -1    0    0  501    0  0.00000000000E+00 -0.00000000000E+00 -0.22879970935E+04  0.22879970935E+04  0.25500000000E-02 0. -1.
    8880022    1    1    2    0    0  0.30797493617E+03  0.17014377517E+04  0.51358215978E+03  0.18102202275E+04  0.15294330000E+03 0.  0.
    8880022    1    1    2    0    0 -0.30797493617E+03 -0.17014377517E+04 -0.11802691806E+04  0.20990869386E+04  0.15294330000E+03 0.  0.
<mgrwt>
<rscale>  0 0.17358372E+04</rscale>
<asrwt>0</asrwt>
<pdfrwt beam="1">  1        2 0.35199955E+00 0.17358372E+04</pdfrwt>
<pdfrwt beam="2">  1       -2 0.24943232E+00 0.17358372E+04</pdfrwt>
<totfact> 0.27262258E-01</totfact>
</mgrwt>
</event>
<event>
 4    1  0.1033139E-008  0.8113672E+03  0.7818608E-02  0.9543708E-01
          2   -1    0    0  501    0  0.00000000000E+00  0.00000000000E+00  0.25244739110E+04  0.25244739110E+04  0.25500000000E-02 0. -1.
         -2   -1    0    0    0  501 -0.00000000000E+00 -0.00000000000E+00 -0.74078419947E+03  0.74078419948E+03  0.25500000000E-02 0.  1.
    8880022    1    1    2    0    0 -0.78620784961E+03  0.12962369262E+03  0.22060615340E+04  0.23505370087E+04  0.15294330000E+03 0.  0.
    8880022    1    1    2    0    0  0.78620784961E+03 -0.12962369262E+03 -0.42237182252E+03  0.91472110173E+03  0.15294330000E+03 0.  0.
<mgrwt>
<rscale>  0 0.81136720E+03</rscale>
<asrwt>0</asrwt>
<pdfrwt beam="1">  1        2 0.38838060E+00 0.81136720E+03</pdfrwt>
<pdfrwt beam="2">  1       -2 0.11396680E+00 0.81136720E+03</pdfrwt>
<totfact> 0.21107010E+00</totfact>
</mgrwt>
</event>
<event>
 4    1  0.1374361E-008  0.1611270E+04  0.7818608E-02  0.8813654E-01
         -2   -1    0    0    0  501 -0.00000000000E+00  0.00000000000E+00  0.17791439382E+04  0.17791439382E+04  0.25500000000E-02 0.  1.
          2   -1    0    0  501    0  0.00000000000E+00 -0.00000000000E+00 -0.28242674154E+04  0.28242674154E+04  0.25500000000E-02 0. -1.
    8880022    1    1    2    0    0  0.15133536750E+04  0.53156428460E+03  0.10776156949E+04  0.19384135713E+04  0.15294330000E+03 0.  0.
    8880022    1    1    2    0    0 -0.15133536750E+04 -0.53156428460E+03 -0.21227391720E+04  0.26649977823E+04  0.15294330000E+03 0.  0.
<mgrwt>
<rscale>  0 0.16112702E+04</rscale>
<asrwt>0</asrwt>
<pdfrwt beam="1">  1        2 0.43450268E+00 0.16112702E+04</pdfrwt>
<pdfrwt beam="2">  1       -2 0.27371445E+00 0.16112702E+04</pdfrwt>
<totfact> 0.95212454E-02</totfact>
</mgrwt>
</event>
<event>
 4    1  0.1033139E-008  0.6653085E+03  0.7818608E-02  0.9778470E-01
         -2   -1    0    0    0  501 -0.00000000000E+00  0.00000000000E+00  0.34190341329E+03  0.34190341330E+03  0.25500000000E-02 0.  1.
          2   -1    0    0  501    0  0.00000000000E+00 -0.00000000000E+00 -0.20305351358E+04  0.20305351359E+04  0.25500000000E-02 0. -1.
    8880022    1    1    2    0    0 -0.25559943708E+03  0.59490564119E+03 -0.15584391579E+04  0.16945111555E+04  0.15294330000E+03 0. -1.
    8880022    1    1    2    0    0  0.25559943708E+03 -0.59490564119E+03 -0.13019256464E+03  0.67792739365E+03  0.15294330000E+03 0.  0.
<mgrwt>
<rscale>  0 0.66530854E+03</rscale>
<asrwt>0</asrwt>
<pdfrwt beam="1">  1        2 0.31239001E+00 0.66530854E+03</pdfrwt>
<pdfrwt beam="2">  1       -2 0.52600526E-01 0.66530854E+03</pdfrwt>
<totfact> 0.22941162E+01</totfact>
</mgrwt>
</event>
<event>
 4    1  0.1033139E-008  0.9971685E+03  0.7818608E-02  0.9311656E-01
          2   -1    0    0  501    0  0.00000000000E+00  0.00000000000E+00  0.11603290759E+04  0.11603290759E+04  0.25500000000E-02 0. -1.
         -2   -1    0    0    0  501 -0.00000000000E+00 -0.00000000000E+00 -0.21025847472E+04  0.21025847472E+04  0.25500000000E-02 0.  1.
    8880022    1    1    2    0    0  0.56970682552E+03 -0.80398229011E+03  0.78459575763E+03  0.12688323553E+04  0.15294330000E+03 0.  0.
    8880022    1    1    2    0    0 -0.56970682552E+03  0.80398229011E+03 -0.17268514289E+04  0.19940814678E+04  0.15294330000E+03 0.  0.
<mgrwt>
<rscale>  0 0.99716851E+03</rscale>
<asrwt>0</asrwt>
<pdfrwt beam="1">  1        2 0.17851217E+00 0.99716851E+03</pdfrwt>
<pdfrwt beam="2">  1       -2 0.32347458E+00 0.99716851E+03</pdfrwt>
<totfact> 0.45963940E-01</totfact>
</mgrwt>
</event>
<event>
 4    1  0.1033139E-008  0.1047096E+04  0.7818608E-02  0.9258347E-01
         -2   -1    0    0    0  501 -0.00000000000E+00  0.00000000000E+00  0.10608087350E+04  0.10608087351E+04  0.25500000000E-02 0.  1.
          2   -1    0    0  501    0  0.00000000000E+00 -0.00000000000E+00 -0.26870220750E+04  0.26870220750E+04  0.25500000000E-02 0. -1.
    8880022    1    1    2    0    0 -0.48319463982E+03 -0.91626526939E+03 -0.22830863276E+04  0.25117511692E+04  0.15294330000E+03 0.  0.
    8880022    1    1    2    0    0  0.48319463982E+03  0.91626526939E+03  0.65687298756E+03  0.12360796409E+04  0.15294330000E+03 0.  0.
<mgrwt>
<rscale>  0 0.10470963E+04</rscale>
<asrwt>0</asrwt>
<pdfrwt beam="1">  1        2 0.41338801E+00 0.10470963E+04</pdfrwt>
<pdfrwt beam="2">  1       -2 0.16320134E+00 0.10470963E+04</pdfrwt>
<totfact> 0.64601643E-01</totfact>
</mgrwt>
</event>
<event>
 4    1  0.1033139E-008  0.2879906E+03  0.7818608E-02  0.1091403E+00
         -2   -1    0    0    0  501 -0.00000000000E+00  0.00000000000E+00  0.47318569248E+03  0.47318569249E+03  0.25500000000E-02 0.  1.
          2   -1    0    0  501    0  0.00000000000E+00 -0.00000000000E+00 -0.10584421198E+04  0.10584421198E+04  0.25500000000E-02 0. -1.
    8880022    1    1    2    0    0 -0.12525260336E+03 -0.20942474537E+03  0.40690869519E+03  0.49851106092E+03  0.15294330000E+03 0.  0.
    8880022    1    1    2    0    0  0.12525260336E+03  0.20942474537E+03 -0.99216512248E+03  0.10331167513E+04  0.15294330000E+03 0.  0.
<mgrwt>
<rscale>  0 0.28799061E+03</rscale>
<asrwt>0</asrwt>
<pdfrwt beam="1">  1        2 0.16283725E+00 0.28799061E+03</pdfrwt>
<pdfrwt beam="2">  1       -2 0.72797799E-01 0.28799061E+03</pdfrwt>
<totfact> 0.42869040E+01</totfact>
</mgrwt>
</event>
<event>
 4    1  0.1033139E-008  0.2144621E+03  0.7818608E-02  0.1138080E+00
          2   -1    0    0  501    0  0.00000000000E+00  0.00000000000E+00  0.27383976871E+04  0.27383976871E+04  0.25500000000E-02 0. -1.
         -2   -1    0    0    0  501 -0.00000000000E+00 -0.00000000000E+00 -0.42907665134E+02  0.42907665209E+02  0.25500000000E-02 0.  1.
    8880022    1    1    2    0    0 -0.10420698914E+03  0.10836629361E+03  0.26289700225E+03  0.33927693258E+03  0.15294330000E+03 0.  1.
    8880022    1    1    2    0    0  0.10420698914E+03 -0.10836629361E+03  0.24325930197E+04  0.24420284197E+04  0.15294330000E+03 0.  0.
<mgrwt>
<rscale>  0 0.21446213E+03</rscale>
<asrwt>0</asrwt>
<pdfrwt beam="1">  1        2 0.42129205E+00 0.21446213E+03</pdfrwt>
<pdfrwt beam="2">  1       -2 0.66011777E-02 0.21446213E+03</pdfrwt>
<totfact> 0.38335022E+02</totfact>
</mgrwt>
</event>
<event>
 4    1  0.1033139E-008  0.5794029E+03  0.7818608E-02  0.9949085E-01
         -2   -1    0    0    0  501 -0.00000000000E+00  0.00000000000E+00  0.47070737683E+03  0.47070737684E+03  0.25500000000E-02 0.  1.
          2   -1    0    0  501    0  0.00000000000E+00 -0.00000000000E+00 -0.91213706700E+03  0.91213706701E+03  0.25500000000E-02 0. -1.
    8880022    1    1    2    0    0 -0.52753786784E+03 -0.18444479932E+03 -0.54361845761E+03  0.79449906637E+03  0.15294330000E+03 0.  0.
    8880022    1    1    2    0    0  0.52753786784E+03  0.18444479932E+03  0.10218876743E+03  0.58834537748E+03  0.15294330000E+03 0.  0.
<mgrwt>
<rscale>  0 0.57940292E+03</rscale>
<asrwt>0</asrwt>
<pdfrwt beam="1">  1        2 0.14032878E+00 0.57940292E+03</pdfrwt>
<pdfrwt beam="2">  1       -2 0.72416520E-01 0.57940292E+03</pdfrwt>
<totfact> 0.51192106E+01</totfact>
</mgrwt>
</event>
<event>
 4    1  0.1033139E-008  0.3805599E+03  0.7818608E-02  0.1050727E+00
         -2   -1    0    0    0  501 -0.00000000000E+00  0.00000000000E+00  0.42698910240E+03  0.42698910240E+03  0.25500000000E-02 0.  1.
          2   -1    0    0  501    0  0.00000000000E+00 -0.00000000000E+00 -0.15145525778E+04  0.15145525778E+04  0.25500000000E-02 0. -1.
    8880022    1    1    2    0    0  0.34705516796E+03  0.31415026037E+02 -0.13989714340E+04  0.14498092701E+04  0.15294330000E+03 0. -1.
    8880022    1    1    2    0    0 -0.34705516796E+03 -0.31415026037E+02  0.31140795859E+03  0.49173241012E+03  0.15294330000E+03 0.  0.
<mgrwt>
<rscale>  0 0.38055991E+03</rscale>
<asrwt>0</asrwt>
<pdfrwt beam="1">  1        2 0.23300809E+00 0.38055991E+03</pdfrwt>
<pdfrwt beam="2">  1       -2 0.65690632E-01 0.38055991E+03</pdfrwt>
<totfact> 0.28894498E+01</totfact>
</mgrwt>
</event>
<event>
 4    1  0.1033139E-008  0.4314127E+03  0.7818608E-02  0.1033415E+00
         -2   -1    0    0    0  501 -0.00000000000E+00  0.00000000000E+00  0.33483650412E+03  0.33483650413E+03  0.25500000000E-02 0.  1.
          2   -1    0    0  501    0  0.00000000000E+00 -0.00000000000E+00 -0.91068403311E+03  0.91068403311E+03  0.25500000000E-02 0. -1.
    8880022    1    1    2    0    0 -0.34544089392E+02 -0.40191040014E+03  0.10081087454E+03  0.44303470439E+03  0.15294330000E+03 0.  1.
    8880022    1    1    2    0    0  0.34544089392E+02  0.40191040014E+03 -0.67665840352E+03  0.80248583285E+03  0.15294330000E+03 0.  0.
<mgrwt>
<rscale>  0 0.43141270E+03</rscale>
<asrwt>0</asrwt>
<pdfrwt beam="1">  1        2 0.14010523E+00 0.43141270E+03</pdfrwt>
<pdfrwt beam="2">  1       -2 0.51513309E-01 0.43141270E+03</pdfrwt>
<totfact> 0.10697859E+02</totfact>
</mgrwt>
</event>
<event>
 4    1  0.1033139E-008  0.6958962E+03  0.7818608E-02  0.9724276E-01
         -2   -1    0    0    0  501 -0.00000000000E+00  0.00000000000E+00  0.10117726482E+04  0.10117726482E+04  0.25500000000E-02 0.  1.
          2   -1    0    0  501    0  0.00000000000E+00 -0.00000000000E+00 -0.12126711554E+04  0.12126711554E+04  0.25500000000E-02 0. -1.
    8880022    1    1    2    0    0  0.22094267183E+03 -0.64192231955E+03 -0.96577200919E+03  0.11903726960E+04  0.15294330000E+03 0.  0.
    8880022    1    1    2    0    0 -0.22094267183E+03  0.64192231955E+03  0.76487350194E+03  0.10340711076E+04  0.15294330000E+03 0.  0.
<mgrwt>
<rscale>  0 0.69589624E+03</rscale>
<asrwt>0</asrwt>
<pdfrwt beam="1">  1        2 0.18656479E+00 0.69589624E+03</pdfrwt>
<pdfrwt beam="2">  1       -2 0.15565733E+00 0.69589624E+03</pdfrwt>
<totfact> 0.52040370E+00</totfact>
</mgrwt>
</event>
<event>
 4    1  0.1033139E-008  0.7813281E+03  0.7818608E-02  0.9587444E-01
          2   -1    0    0  501    0  0.00000000000E+00  0.00000000000E+00  0.78336804007E+03  0.78336804007E+03  0.25500000000E-02 0. -1.
         -2   -1    0    0    0  501 -0.00000000000E+00 -0.00000000000E+00 -0.13466677363E+04  0.13466677363E+04  0.25500000000E-02 0.  1.
    8880022    1    1    2    0    0  0.63357976130E+03  0.43088121355E+03 -0.97294179422E+03  0.12478338519E+04  0.15294330000E+03 0.  0.
    8880022    1    1    2    0    0 -0.63357976130E+03 -0.43088121355E+03  0.40964209794E+03  0.88220192447E+03  0.15294330000E+03 0.  0.
<mgrwt>
<rscale>  0 0.78132809E+03</rscale>
<asrwt>0</asrwt>
<pdfrwt beam="1">  1        2 0.12051816E+00 0.78132809E+03</pdfrwt>
<pdfrwt beam="2">  1       -2 0.20717965E+00 0.78132809E+03</pdfrwt>
<totfact> 0.43084584E+00</totfact>
</mgrwt>
</event>
<event>
 4    1  0.1033139E-008  0.8874284E+03  0.7818608E-02  0.9441434E-01
          2   -1    0    0  501    0  0.00000000000E+00  0.00000000000E+00  0.23066967892E+04  0.23066967892E+04  0.25500000000E-02 0. -1.
         -2   -1    0    0    0  501 -0.00000000000E+00 -0.00000000000E+00 -0.65022942722E+03  0.65022942722E+03  0.25500000000E-02 0.  1.
    8880022    1    1    2    0    0 -0.44269789990E+03  0.75376127013E+03  0.18471289695E+04  0.20492473170E+04  0.15294330000E+03 0.  0.
    8880022    1    1    2    0    0  0.44269789990E+03 -0.75376127013E+03 -0.19066160756E+03  0.90767889947E+03  0.15294330000E+03 0.  0.
<mgrwt>
<rscale>  0 0.88742838E+03</rscale>
<asrwt>0</asrwt>
<pdfrwt beam="1">  1        2 0.35487644E+00 0.88742838E+03</pdfrwt>
<pdfrwt beam="2">  1       -2 0.10003529E+00 0.88742838E+03</pdfrwt>
<totfact> 0.37875141E+00</totfact>
</mgrwt>
</event>
<event>
 4    1  0.1033139E-008  0.2419282E+04  0.7818608E-02  0.8432320E-01
          2   -1    0    0  501    0  0.00000000000E+00  0.00000000000E+00  0.35396308738E+04  0.35396308738E+04  0.25500000000E-02 0. -1.
         -2   -1    0    0    0  501 -0.00000000000E+00 -0.00000000000E+00 -0.21675134342E+04  0.21675134342E+04  0.25500000000E-02 0.  1.
    8880022    1    1    2    0    0  0.12347311263E+03  0.24112832554E+04 -0.70350332029E+03  0.25194922349E+04  0.15294330000E+03 0.  0.
    8880022    1    1    2    0    0 -0.12347311263E+03 -0.24112832554E+04  0.20756207599E+04  0.31876520730E+04  0.15294330000E+03 0.  0.
<mgrwt>
<rscale>  0 0.24192818E+04</rscale>
<asrwt>0</asrwt>
<pdfrwt beam="1">  1        2 0.54455860E+00 0.24192818E+04</pdfrwt>
<pdfrwt beam="2">  1       -2 0.33346361E+00 0.24192818E+04</pdfrwt>
<totfact> 0.12704266E-02</totfact>
</mgrwt>
</event>
<event>
 4    1  0.1033139E-008  0.1677580E+04  0.7818608E-02  0.8774255E-01
          2   -1    0    0  501    0  0.00000000000E+00  0.00000000000E+00  0.26218409932E+04  0.26218409932E+04  0.25500000000E-02 0. -1.
         -2   -1    0    0    0  501 -0.00000000000E+00 -0.00000000000E+00 -0.13916120687E+04  0.13916120687E+04  0.25500000000E-02 0.  1.
    8880022    1    1    2    0    0 -0.66566149231E+03 -0.15322463027E+04  0.15747131355E+04  0.23008687635E+04  0.15294330000E+03 0.  0.
    8880022    1    1    2    0    0  0.66566149231E+03  0.15322463027E+04 -0.34448421101E+03  0.17125842984E+04  0.15294330000E+03 0.  0.
<mgrwt>
<rscale>  0 0.16775803E+04</rscale>
<asrwt>0</asrwt>
<pdfrwt beam="1">  1        2 0.40336015E+00 0.16775803E+04</pdfrwt>
<pdfrwt beam="2">  1       -2 0.21409417E+00 0.16775803E+04</pdfrwt>
<totfact> 0.29330017E-01</totfact>
</mgrwt>
</event>
<event>
 4    1  0.1033139E-008  0.5638555E+03  0.7818608E-02  0.9983368E-01
         -2   -1    0    0    0  501 -0.00000000000E+00  0.00000000000E+00  0.19521964223E+03  0.19521964225E+03  0.25500000000E-02 0.  1.
          2   -1    0    0  501    0  0.00000000000E+00 -0.00000000000E+00 -0.17782839381E+04  0.17782839381E+04  0.25500000000E-02 0. -1.
    8880022    1    1    2    0    0 -0.37494119821E+03  0.39237797624E+03 -0.10778229791E+04  0.12164026494E+04  0.15294330000E+03 0.  0.
    8880022    1    1    2    0    0  0.37494119821E+03 -0.39237797624E+03 -0.50524131680E+03  0.75710093090E+03  0.15294330000E+03 0.  0.
<mgrwt>
<rscale>  0 0.56385551E+03</rscale>
<asrwt>0</asrwt>
<pdfrwt beam="1">  1        2 0.27358213E+00 0.56385551E+03</pdfrwt>
<pdfrwt beam="2">  1       -2 0.30033792E-01 0.56385551E+03</pdfrwt>
<totfact> 0.94828484E+01</totfact>
</mgrwt>
</event>
<event>
 4    1  0.1033139E-008  0.6002963E+03  0.7818608E-02  0.9904792E-01
          2   -1    0    0  501    0  0.00000000000E+00  0.00000000000E+00  0.15082085495E+04  0.15082085495E+04  0.25500000000E-02 0. -1.
         -2   -1    0    0    0  501 -0.00000000000E+00 -0.00000000000E+00 -0.68707729202E+03  0.68707729202E+03  0.25500000000E-02 0.  1.
    8880022    1    1    2    0    0 -0.33402286099E+02 -0.57952415548E+03  0.12970455069E+04  0.14292244958E+04  0.15294330000E+03 0.  0.
    8880022    1    1    2    0    0  0.33402286099E+02  0.57952415548E+03 -0.47591424944E+03  0.76606134567E+03  0.15294330000E+03 0.  0.
<mgrwt>
<rscale>  0 0.60029627E+03</rscale>
<asrwt>0</asrwt>
<pdfrwt beam="1">  1        2 0.23203208E+00 0.60029627E+03</pdfrwt>
<pdfrwt beam="2">  1       -2 0.10570420E+00 0.60029627E+03</pdfrwt>
<totfact> 0.95280830E+00</totfact>
</mgrwt>
</event>
<event>
 4    1  0.1033139E-008  0.4769697E+03  0.7818608E-02  0.1019971E+00
          2   -1    0    0  501    0  0.00000000000E+00  0.00000000000E+00  0.32335818350E+04  0.32335818350E+04  0.25500000000E-02 0. -1.
         -2   -1    0    0    0  501 -0.00000000000E+00 -0.00000000000E+00 -0.24870356208E+03  0.24870356209E+03  0.25500000000E-02 0.  1.
    8880022    1    1    2    0    0 -0.37175168718E+03  0.25672768032E+03  0.29668809346E+04  0.30049762981E+04  0.15294330000E+03 0. -1.
    8880022    1    1    2    0    0  0.37175168718E+03 -0.25672768032E+03  0.17997338257E+02  0.47730909897E+03  0.15294330000E+03 0.  0.
<mgrwt>
<rscale>  0 0.47696968E+03</rscale>
<asrwt>0</asrwt>
<pdfrwt beam="1">  1        2 0.49747414E+00 0.47696968E+03</pdfrwt>
<pdfrwt beam="2">  1       -2 0.38262086E-01 0.47696968E+03</pdfrwt>
<totfact> 0.90911669E+00</totfact>
</mgrwt>
</event>
<event>
 4    1  0.1033139E-008  0.7812978E+03  0.7818608E-02  0.9587489E-01
          2   -1    0    0  501    0  0.00000000000E+00  0.00000000000E+00  0.27704068464E+04  0.27704068464E+04  0.25500000000E-02 0. -1.
         -2   -1    0    0    0  501 -0.00000000000E+00 -0.00000000000E+00 -0.13647426669E+04  0.13647426669E+04  0.25500000000E-02 0.  1.
    8880022    1    1    2    0    0  0.20776042506E+03 -0.73747553720E+03  0.25961590766E+04  0.27111746838E+04  0.15294330000E+03 0.  0.
    8880022    1    1    2    0    0 -0.20776042506E+03  0.73747553720E+03 -0.11904948970E+04  0.14239748295E+04  0.15294330000E+03 0.  0.
<mgrwt>
<rscale>  0 0.78129778E+03</rscale>
<asrwt>0</asrwt>
<pdfrwt beam="1">  1        2 0.42621644E+00 0.78129778E+03</pdfrwt>
<pdfrwt beam="2">  1       -2 0.20996041E+00 0.78129778E+03</pdfrwt>
<totfact> 0.29291372E-01</totfact>
</mgrwt>
</event>
<event>
 4    1  0.1033139E-008  0.1196753E+04  0.7818608E-02  0.9115704E-01
         -2   -1    0    0    0  501 -0.00000000000E+00  0.00000000000E+00  0.98870428760E+03  0.98870428760E+03  0.25500000000E-02 0.  1.
          2   -1    0    0  501    0  0.00000000000E+00 -0.00000000000E+00 -0.32628565240E+04  0.32628565240E+04  0.25500000000E-02 0. -1.
    8880022    1    1    2    0    0  0.99284176139E+03  0.65045421096E+03 -0.27222290598E+04  0.29736758651E+04  0.15294330000E+03 0.  0.
    8880022    1    1    2    0    0 -0.99284176139E+03 -0.65045421096E+03  0.44807682341E+03  0.12778849465E+04  0.15294330000E+03 0.  0.
<mgrwt>
<rscale>  0 0.11967527E+04</rscale>
<asrwt>0</asrwt>
<pdfrwt beam="1">  1        2 0.50197792E+00 0.11967527E+04</pdfrwt>
<pdfrwt beam="2">  1       -2 0.15210835E+00 0.11967527E+04</pdfrwt>
<totfact> 0.33700949E-01</totfact>
</mgrwt>
</event>
<event>
 4    1  0.1033139E-008  0.7234071E+03  0.7818608E-02  0.9678020E-01
         -2   -1    0    0    0  501 -0.00000000000E+00  0.00000000000E+00  0.56398835842E+03  0.56398835842E+03  0.25500000000E-02 0.  1.
          2   -1    0    0  501    0  0.00000000000E+00 -0.00000000000E+00 -0.98238110969E+03  0.98238110970E+03  0.25500000000E-02 0. -1.
    8880022    1    1    2    0    0  0.48982519383E+03 -0.50989942195E+03 -0.39129880175E+03  0.82245519409E+03  0.15294330000E+03 0.  0.
    8880022    1    1    2    0    0 -0.48982519383E+03  0.50989942195E+03 -0.27093949522E+02  0.72391427402E+03  0.15294330000E+03 0.  0.
<mgrwt>
<rscale>  0 0.72340707E+03</rscale>
<asrwt>0</asrwt>
<pdfrwt beam="1">  1        2 0.15113555E+00 0.72340707E+03</pdfrwt>
<pdfrwt beam="2">  1       -2 0.86767440E-01 0.72340707E+03</pdfrwt>
<totfact> 0.30276833E+01</totfact>
</mgrwt>
</event>
<event>
 4    1  0.1033139E-008  0.5616742E+03  0.7818608E-02  0.9988273E-01
         -2   -1    0    0    0  501 -0.00000000000E+00  0.00000000000E+00  0.17347171882E+03  0.17347171884E+03  0.25500000000E-02 0.  1.
          2   -1    0    0  501    0  0.00000000000E+00 -0.00000000000E+00 -0.22644571441E+04  0.22644571441E+04  0.25500000000E-02 0. -1.
    8880022    1    1    2    0    0 -0.38776967241E+03 -0.37645847807E+03 -0.15863720823E+04  0.16828708629E+04  0.15294330000E+03 0.  0.
    8880022    1    1    2    0    0  0.38776967241E+03  0.37645847807E+03 -0.50461334296E+03  0.75505800007E+03  0.15294330000E+03 0.  0.
<mgrwt>
<rscale>  0 0.56167425E+03</rscale>
<asrwt>0</asrwt>
<pdfrwt beam="1">  1        2 0.34837800E+00 0.56167425E+03</pdfrwt>
<pdfrwt beam="2">  1       -2 0.26687958E-01 0.56167425E+03</pdfrwt>
<totfact> 0.64178058E+01</totfact>
</mgrwt>
</event>
<event>
 4    1  0.1033139E-008  0.7428235E+03  0.7818608E-02  0.9646677E-01
          2   -1    0    0  501    0  0.00000000000E+00  0.00000000000E+00  0.11535014331E+04  0.11535014331E+04  0.25500000000E-02 0. -1.
         -2   -1    0    0    0  501 -0.00000000000E+00 -0.00000000000E+00 -0.52921851241E+03  0.52921851242E+03  0.25500000000E-02 0.  1.
    8880022    1    1    2    0    0  0.72653466144E+03  0.23291971405E+02  0.51313489271E+02  0.74459375327E+03  0.15294330000E+03 0.  0.
    8880022    1    1    2    0    0 -0.72653466144E+03 -0.23291971405E+02  0.57296943139E+03  0.93812619222E+03  0.15294330000E+03 0.  0.
<mgrwt>
<rscale>  0 0.74282352E+03</rscale>
<asrwt>0</asrwt>
<pdfrwt beam="1">  1        2 0.17746176E+00 0.74282352E+03</pdfrwt>
<pdfrwt beam="2">  1       -2 0.81418233E-01 0.74282352E+03</pdfrwt>
<totfact> 0.27349152E+01</totfact>
</mgrwt>
</event>
<event>
 4    1  0.1033139E-008  0.1287175E+04  0.7818608E-02  0.9039797E-01
          2   -1    0    0  501    0  0.00000000000E+00  0.00000000000E+00  0.67944004990E+03  0.67944004990E+03  0.25500000000E-02 0. -1.
         -2   -1    0    0    0  501 -0.00000000000E+00 -0.00000000000E+00 -0.37468173741E+04  0.37468173741E+04  0.25500000000E-02 0.  1.
    8880022    1    1    2    0    0 -0.80390050668E+03  0.99356584465E+03 -0.22592143768E+03  0.13068516600E+04  0.15294330000E+03 0.  0.
    8880022    1    1    2    0    0  0.80390050668E+03 -0.99356584465E+03 -0.28414558866E+04  0.31194057640E+04  0.15294330000E+03 0.  0.
<mgrwt>
<rscale>  0 0.12871755E+04</rscale>
<asrwt>0</asrwt>
<pdfrwt beam="1">  1        2 0.10452924E+00 0.12871755E+04</pdfrwt>
<pdfrwt beam="2">  1       -2 0.57643343E+00 0.12871755E+04</pdfrwt>
<totfact> 0.25738444E-02</totfact>
</mgrwt>
</event>
<event>
 4    1  0.1033139E-008  0.1354821E+04  0.7818608E-02  0.8987187E-01
         -2   -1    0    0    0  501 -0.00000000000E+00  0.00000000000E+00  0.21907036847E+04  0.21907036847E+04  0.25500000000E-02 0.  1.
          2   -1    0    0  501    0  0.00000000000E+00 -0.00000000000E+00 -0.24434602261E+04  0.24434602261E+04  0.25500000000E-02 0. -1.
    8880022    1    1    2    0    0 -0.72543356734E+03  0.11339725764E+04 -0.20046361769E+04  0.24195258873E+04  0.15294330000E+03 0.  0.
    8880022    1    1    2    0    0  0.72543356734E+03 -0.11339725764E+04  0.17518796355E+04  0.22146380234E+04  0.15294330000E+03 0.  0.
<mgrwt>
<rscale>  0 0.13548208E+04</rscale>
<asrwt>0</asrwt>
<pdfrwt beam="1">  1        2 0.37591696E+00 0.13548208E+04</pdfrwt>
<pdfrwt beam="2">  1       -2 0.33703134E+00 0.13548208E+04</pdfrwt>
<totfact> 0.67570293E-02</totfact>
</mgrwt>
</event>
<event>
 4    1  0.1033139E-008  0.6731773E+03  0.7818608E-02  0.9764235E-01
         -2   -1    0    0    0  501 -0.00000000000E+00  0.00000000000E+00  0.67857001301E+03  0.67857001301E+03  0.25500000000E-02 0.  1.
          2   -1    0    0  501    0  0.00000000000E+00 -0.00000000000E+00 -0.26762026809E+04  0.26762026809E+04  0.25500000000E-02 0. -1.
    8880022    1    1    2    0    0  0.39145887794E+03 -0.52586681863E+03  0.45428546899E+03  0.81212246885E+03  0.15294330000E+03 0.  0.
    8880022    1    1    2    0    0 -0.39145887794E+03  0.52586681863E+03 -0.24519181369E+04  0.25426502251E+04  0.15294330000E+03 0.  0.
<mgrwt>
<rscale>  0 0.67317726E+03</rscale>
<asrwt>0</asrwt>
<pdfrwt beam="1">  1        2 0.41172348E+00 0.67317726E+03</pdfrwt>
<pdfrwt beam="2">  1       -2 0.10439539E+00 0.67317726E+03</pdfrwt>
<totfact> 0.21955763E+00</totfact>
</mgrwt>
</event>
<event>
 4    1  0.1033139E-008  0.2117146E+03  0.7818608E-02  0.1140215E+00
          2   -1    0    0  501    0  0.00000000000E+00  0.00000000000E+00  0.21451132000E+04  0.21451132000E+04  0.25500000000E-02 0. -1.
         -2   -1    0    0    0  501 -0.00000000000E+00 -0.00000000000E+00 -0.66329660044E+02  0.66329660093E+02  0.25500000000E-02 0.  1.
    8880022    1    1    2    0    0 -0.23944207990E+02  0.14442337789E+03  0.12426056163E+03  0.24548681710E+03  0.15294330000E+03 0.  0.
    8880022    1    1    2    0    0  0.23944207990E+02 -0.14442337789E+03  0.19545229783E+04  0.19659560430E+04  0.15294330000E+03 0. -1.
<mgrwt>
<rscale>  0 0.21171464E+03</rscale>
<asrwt>0</asrwt>
<pdfrwt beam="1">  1        2 0.33001740E+00 0.21171464E+03</pdfrwt>
<pdfrwt beam="2">  1       -2 0.10204564E-01 0.21171464E+03</pdfrwt>
<totfact> 0.40632536E+02</totfact>
</mgrwt>
</event>
<event>
 4    1  0.1033139E-008  0.6586113E+03  0.7818608E-02  0.9790754E-01
          2   -1    0    0  501    0  0.00000000000E+00  0.00000000000E+00  0.24332738537E+04  0.24332738537E+04  0.25500000000E-02 0. -1.
         -2   -1    0    0    0  501 -0.00000000000E+00 -0.00000000000E+00 -0.31510554469E+03  0.31510554470E+03  0.25500000000E-02 0.  1.
    8880022    1    1    2    0    0  0.32736001682E+03  0.55064743725E+03  0.19646608442E+04  0.20721151191E+04  0.15294330000E+03 0.  0.
    8880022    1    1    2    0    0 -0.32736001682E+03 -0.55064743725E+03  0.15350746478E+03  0.67626427934E+03  0.15294330000E+03 0.  0.
<mgrwt>
<rscale>  0 0.65861129E+03</rscale>
<asrwt>0</asrwt>
<pdfrwt beam="1">  1        2 0.37434982E+00 0.65861129E+03</pdfrwt>
<pdfrwt beam="2">  1       -2 0.48477776E-01 0.65861129E+03</pdfrwt>
<totfact> 0.16269458E+01</totfact>
</mgrwt>
</event>
<event>
 4    1  0.1033139E-008  0.7953988E+03  0.7818608E-02  0.9566701E-01
          2   -1    0    0  501    0  0.00000000000E+00  0.00000000000E+00  0.25749937479E+04  0.25749937479E+04  0.25500000000E-02 0. -1.
         -2   -1    0    0    0  501 -0.00000000000E+00 -0.00000000000E+00 -0.28285801256E+03  0.28285801257E+03  0.25500000000E-02 0.  1.
    8880022    1    1    2    0    0  0.30900871786E+03  0.71678538012E+03  0.16640198067E+04  0.18443484592E+04  0.15294330000E+03 0.  0.
    8880022    1    1    2    0    0 -0.30900871786E+03 -0.71678538012E+03  0.62811592867E+03  0.10135033013E+04  0.15294330000E+03 0.  0.
<mgrwt>
<rscale>  0 0.79539884E+03</rscale>
<asrwt>0</asrwt>
<pdfrwt beam="1">  1        2 0.39615287E+00 0.79539884E+03</pdfrwt>
<pdfrwt beam="2">  1       -2 0.43516619E-01 0.79539884E+03</pdfrwt>
<totfact> 0.16414108E+01</totfact>
</mgrwt>
</event>
<event>
 4    1  0.1033139E-008  0.2331586E+03  0.7818608E-02  0.1124436E+00
          2   -1    0    0  501    0  0.00000000000E+00  0.00000000000E+00  0.89297176002E+02  0.89297176039E+02  0.25500000000E-02 0. -1.
         -2   -1    0    0    0  501 -0.00000000000E+00 -0.00000000000E+00 -0.27787815311E+04  0.27787815311E+04  0.25500000000E-02 0.  1.
    8880022    1    1    2    0    0  0.16387376306E+03 -0.64161347403E+02 -0.26119948267E+04  0.26223805819E+04  0.15294330000E+03 0.  0.
    8880022    1    1    2    0    0 -0.16387376306E+03  0.64161347403E+02 -0.77489528435E+02  0.24569812525E+03  0.15294330000E+03 0. -1.
<mgrwt>
<rscale>  0 0.23315862E+03</rscale>
<asrwt>0</asrwt>
<pdfrwt beam="1">  1        2 0.13738029E-01 0.23315862E+03</pdfrwt>
<pdfrwt beam="2">  1       -2 0.42750478E+00 0.23315862E+03</pdfrwt>
<totfact> 0.26416784E+00</totfact>
</mgrwt>
</event>
<event>
 4    1  0.1033139E-008  0.1040595E+04  0.7818608E-02  0.9265108E-01
         -2   -1    0    0    0  501 -0.00000000000E+00  0.00000000000E+00  0.48808939360E+03  0.48808939360E+03  0.25500000000E-02 0.  1.
          2   -1    0    0  501    0  0.00000000000E+00 -0.00000000000E+00 -0.42662993354E+04  0.42662993354E+04  0.25500000000E-02 0. -1.
    8880022    1    1    2    0    0  0.38409168163E+03  0.95494546698E+03 -0.24215657283E+03  0.10684000766E+04  0.15294330000E+03 0.  0.
    8880022    1    1    2    0    0 -0.38409168163E+03 -0.95494546698E+03 -0.35360533690E+04  0.36859886524E+04  0.15294330000E+03 0.  0.
<mgrwt>
<rscale>  0 0.10405955E+04</rscale>
<asrwt>0</asrwt>
<pdfrwt beam="1">  1        2 0.65635372E+00 0.10405955E+04</pdfrwt>
<pdfrwt beam="2">  1       -2 0.75090679E-01 0.10405955E+04</pdfrwt>
<totfact> 0.34177008E-01</totfact>
</mgrwt>
</event>
<event>
 4    1  0.1033139E-008  0.1094509E+04  0.7818608E-02  0.9210561E-01
          2   -1    0    0  501    0  0.00000000000E+00  0.00000000000E+00  0.13349470167E+04  0.13349470167E+04  0.25500000000E-02 0. -1.
         -2   -1    0    0    0  501 -0.00000000000E+00 -0.00000000000E+00 -0.91268429211E+03  0.91268429211E+03  0.25500000000E-02 0.  1.
    8880022    1    1    2    0    0  0.84341763087E+03 -0.68059095668E+03  0.35667811624E+03  0.11511595380E+04  0.15294330000E+03 0.  0.
    8880022    1    1    2    0    0 -0.84341763087E+03  0.68059095668E+03  0.65584608401E+02  0.10964717708E+04  0.15294330000E+03 0.  0.
<mgrwt>
<rscale>  0 0.10945086E+04</rscale>
<asrwt>0</asrwt>
<pdfrwt beam="1">  1        2 0.20537646E+00 0.10945086E+04</pdfrwt>
<pdfrwt beam="2">  1       -2 0.14041297E+00 0.10945086E+04</pdfrwt>
<totfact> 0.55251843E+00</totfact>
</mgrwt>
</event>
<event>
 4    1  0.1033139E-008  0.1232505E+04  0.7818608E-02  0.9084871E-01
          2   -1    0    0  501    0  0.00000000000E+00  0.00000000000E+00  0.16258938685E+04  0.16258938685E+04  0.25500000000E-02 0. -1.
         -2   -1    0    0    0  501 -0.00000000000E+00 -0.00000000000E+00 -0.10864058756E+04  0.10864058756E+04  0.25500000000E-02 0.  1.
    8880022    1    1    2    0    0 -0.72099761740E+03  0.98784636758E+03  0.77718697148E+03  0.14570824451E+04  0.15294330000E+03 0.  0.
    8880022    1    1    2    0    0  0.72099761740E+03 -0.98784636758E+03 -0.23769897858E+03  0.12552172990E+04  0.15294330000E+03 0.  0.
<mgrwt>
<rscale>  0 0.12325054E+04</rscale>
<asrwt>0</asrwt>
<pdfrwt beam="1">  1        2 0.25013752E+00 0.12325054E+04</pdfrwt>
<pdfrwt beam="2">  1       -2 0.16713937E+00 0.12325054E+04</pdfrwt>
<totfact> 0.23319635E+00</totfact>
</mgrwt>
</event>
<event>
 4    1  0.1033139E-008  0.8795965E+03  0.7818608E-02  0.9451452E-01
         -2   -1    0    0    0  501 -0.00000000000E+00  0.00000000000E+00  0.33193804930E+03  0.33193804931E+03  0.25500000000E-02 0.  1.
          2   -1    0    0  501    0  0.00000000000E+00 -0.00000000000E+00 -0.26208134862E+04  0.26208134862E+04  0.25500000000E-02 0. -1.
    8880022    1    1    2    0    0 -0.56961249031E+03 -0.65256417957E+03 -0.65333991147E+03  0.10956929727E+04  0.15294330000E+03 0. -1.
    8880022    1    1    2    0    0  0.56961249031E+03  0.65256417957E+03 -0.16355355254E+04  0.18570585628E+04  0.15294330000E+03 0.  0.
<mgrwt>
<rscale>  0 0.87959653E+03</rscale>
<asrwt>0</asrwt>
<pdfrwt beam="1">  1        2 0.40320206E+00 0.87959653E+03</pdfrwt>
<pdfrwt beam="2">  1       -2 0.51067394E-01 0.87959653E+03</pdfrwt>
<totfact> 0.11052017E+01</totfact>
</mgrwt>
</event>
<event>
 4    1  0.1033139E-008  0.8433786E+03  0.7818608E-02  0.9499267E-01
          2   -1    0    0  501    0  0.00000000000E+00  0.00000000000E+00  0.35613180941E+04  0.35613180941E+04  0.25500000000E-02 0. -1.
         -2   -1    0    0    0  501 -0.00000000000E+00 -0.00000000000E+00 -0.76737554968E+03  0.76737554969E+03  0.25500000000E-02 0.  1.
    8880022    1    1    2    0    0 -0.50447774347E+03  0.65832967944E+03 -0.46452884654E+03  0.96284706095E+03  0.15294330000E+03 0.  0.
    8880022    1    1    2    0    0  0.50447774347E+03 -0.65832967944E+03  0.32584713910E+04  0.33658465828E+04  0.15294330000E+03 0. -1.
<mgrwt>
<rscale>  0 0.84337857E+03</rscale>
<asrwt>0</asrwt>
<pdfrwt beam="1">  1        2 0.54789509E+00 0.84337857E+03</pdfrwt>
<pdfrwt beam="2">  1       -2 0.11805778E+00 0.84337857E+03</pdfrwt>
<totfact> 0.43446602E-01</totfact>
</mgrwt>
</event>
<event>
 4    1  0.1033139E-008  0.1225177E+04  0.7818608E-02  0.9091101E-01
         -2   -1    0    0    0  501 -0.00000000000E+00  0.00000000000E+00  0.16633893501E+04  0.16633893501E+04  0.25500000000E-02 0.  1.
          2   -1    0    0  501    0  0.00000000000E+00 -0.00000000000E+00 -0.13445687664E+04  0.13445687664E+04  0.25500000000E-02 0. -1.
    8880022    1    1    2    0    0  0.11676409246E+04 -0.33805404791E+03  0.10218721356E+04  0.15953934257E+04  0.15294330000E+03 0.  0.
    8880022    1    1    2    0    0 -0.11676409246E+04  0.33805404791E+03 -0.70305155187E+03  0.14125646908E+04  0.15294330000E+03 0.  0.
<mgrwt>
<rscale>  0 0.12251765E+04</rscale>
<asrwt>0</asrwt>
<pdfrwt beam="1">  1        2 0.20685673E+00 0.12251765E+04</pdfrwt>
<pdfrwt beam="2">  1       -2 0.25590605E+00 0.12251765E+04</pdfrwt>
<totfact> 0.89251617E-01</totfact>
</mgrwt>
</event>
<event>
 4    1  0.1033139E-008  0.1422856E+04  0.7818608E-02  0.8937438E-01
          2   -1    0    0  501    0  0.00000000000E+00  0.00000000000E+00  0.16192049197E+04  0.16192049197E+04  0.25500000000E-02 0. -1.
         -2   -1    0    0    0  501 -0.00000000000E+00 -0.00000000000E+00 -0.16443709285E+04  0.16443709285E+04  0.25500000000E-02 0.  1.
    8880022    1    1    2    0    0 -0.13661620074E+04 -0.36705532444E+03  0.78622332055E+03  0.16256281877E+04  0.15294330000E+03 0.  0.
    8880022    1    1    2    0    0  0.13661620074E+04  0.36705532444E+03 -0.81138932940E+03  0.16379476605E+04  0.15294330000E+03 0.  0.
<mgrwt>
<rscale>  0 0.14228562E+04</rscale>
<asrwt>0</asrwt>
<pdfrwt beam="1">  1        2 0.24910845E+00 0.14228562E+04</pdfrwt>
<pdfrwt beam="2">  1       -2 0.25298014E+00 0.14228562E+04</pdfrwt>
<totfact> 0.63471249E-01</totfact>
</mgrwt>
</event>
<event>
 4    1  0.1033139E-008  0.7575136E+03  0.7818608E-02  0.9623636E-01
          2   -1    0    0  501    0  0.00000000000E+00  0.00000000000E+00  0.31799022859E+04  0.31799022859E+04  0.25500000000E-02 0. -1.
         -2   -1    0    0    0  501 -0.00000000000E+00 -0.00000000000E+00 -0.75360478129E+03  0.75360478129E+03  0.25500000000E-02 0.  1.
    8880022    1    1    2    0    0  0.41183354380E+03 -0.61711292680E+03  0.29283396600E+04  0.30247314013E+04  0.15294330000E+03 0.  0.
    8880022    1    1    2    0    0 -0.41183354380E+03  0.61711292680E+03 -0.50204215540E+03  0.90877566596E+03  0.15294330000E+03 0.  0.
<mgrwt>
<rscale>  0 0.75751362E+03</rscale>
<asrwt>0</asrwt>
<pdfrwt beam="1">  1        2 0.48921573E+00 0.75751362E+03</pdfrwt>
<pdfrwt beam="2">  1       -2 0.11593920E+00 0.75751362E+03</pdfrwt>
<totfact> 0.82925078E-01</totfact>
</mgrwt>
</event>
<event>
 4    1  0.1033139E-008  0.8934143E+03  0.7818608E-02  0.9433852E-01
         -2   -1    0    0    0  501 -0.00000000000E+00  0.00000000000E+00  0.18011934720E+04  0.18011934720E+04  0.25500000000E-02 0.  1.
          2   -1    0    0  501    0  0.00000000000E+00 -0.00000000000E+00 -0.77042392690E+03  0.77042392690E+03  0.25500000000E-02 0. -1.
    8880022    1    1    2    0    0 -0.84040264540E+03 -0.26176475753E+03  0.13534364640E+04  0.16217210950E+04  0.15294330000E+03 0.  0.
    8880022    1    1    2    0    0  0.84040264540E+03  0.26176475753E+03 -0.32266691892E+03  0.94989630395E+03  0.15294330000E+03 0. -1.
<mgrwt>
<rscale>  0 0.89341426E+03</rscale>
<asrwt>0</asrwt>
<pdfrwt beam="1">  1        2 0.11852676E+00 0.89341426E+03</pdfrwt>
<pdfrwt beam="2">  1       -2 0.27710669E+00 0.89341426E+03</pdfrwt>
<totfact> 0.16125087E+00</totfact>
</mgrwt>
</event>
<event>
 4    1  0.1033139E-008  0.5326036E+03  0.7818608E-02  0.1005603E+00
          2   -1    0    0  501    0  0.00000000000E+00  0.00000000000E+00  0.12355428562E+04  0.12355428562E+04  0.25500000000E-02 0. -1.
         -2   -1    0    0    0  501 -0.00000000000E+00 -0.00000000000E+00 -0.58532150453E+03  0.58532150453E+03  0.25500000000E-02 0.  1.
    8880022    1    1    2    0    0 -0.31757008113E+03 -0.39927955605E+03 -0.38465071276E+03  0.65698001808E+03  0.15294330000E+03 0.  0.
    8880022    1    1    2    0    0  0.31757008113E+03  0.39927955605E+03  0.10348720644E+04  0.11638843426E+04  0.15294330000E+03 0.  0.
<mgrwt>
<rscale>  0 0.53260358E+03</rscale>
<asrwt>0</asrwt>
<pdfrwt beam="1">  1        2 0.19008352E+00 0.53260358E+03</pdfrwt>
<pdfrwt beam="2">  1       -2 0.90049463E-01 0.53260358E+03</pdfrwt>
<totfact> 0.19992166E+01</totfact>
</mgrwt>
</event>
<event>
 4    1  0.1033139E-008  0.4184114E+03  0.7818608E-02  0.1037585E+00
         -2   -1    0    0    0  501 -0.00000000000E+00  0.00000000000E+00  0.50779672820E+03  0.50779672821E+03  0.25500000000E-02 0.  1.
          2   -1    0    0  501    0  0.00000000000E+00 -0.00000000000E+00 -0.15775013470E+04  0.15775013470E+04  0.25500000000E-02 0. -1.
    8880022    1    1    2    0    0  0.38371133358E+03  0.66649038219E+02 -0.14565515123E+04  0.15154571729E+04  0.15294330000E+03 0.  0.
    8880022    1    1    2    0    0 -0.38371133358E+03 -0.66649038219E+02  0.38684689358E+03  0.56984090227E+03  0.15294330000E+03 0.  0.
<mgrwt>
<rscale>  0 0.41841144E+03</rscale>
<asrwt>0</asrwt>
<pdfrwt beam="1">  1        2 0.24269251E+00 0.41841144E+03</pdfrwt>
<pdfrwt beam="2">  1       -2 0.78122575E-01 0.41841144E+03</pdfrwt>
<totfact> 0.18164657E+01</totfact>
</mgrwt>
</event>
<event>
 4    1  0.1033139E-008  0.5111103E+03  0.7818608E-02  0.1010919E+00
          2   -1    0    0  501    0  0.00000000000E+00  0.00000000000E+00  0.75504791190E+03  0.75504791190E+03  0.25500000000E-02 0. -1.
         -2   -1    0    0    0  501 -0.00000000000E+00 -0.00000000000E+00 -0.69574986496E+03  0.69574986497E+03  0.25500000000E-02 0.  1.
    8880022    1    1    2    0    0  0.37456428925E+03  0.31231982913E+03 -0.48467837228E+03  0.70437693035E+03  0.15294330000E+03 0.  1.
    8880022    1    1    2    0    0 -0.37456428925E+03 -0.31231982913E+03  0.54397641921E+03  0.74642084652E+03  0.15294330000E+03 0.  0.
<mgrwt>
<rscale>  0 0.51111030E+03</rscale>
<asrwt>0</asrwt>
<pdfrwt beam="1">  1        2 0.11616122E+00 0.51111030E+03</pdfrwt>
<pdfrwt beam="2">  1       -2 0.10703844E+00 0.51111030E+03</pdfrwt>
<totfact> 0.27146346E+01</totfact>
</mgrwt>
</event>
<event>
 4    1  0.1033139E-008  0.2796071E+04  0.7818608E-02  0.8304489E-01
          2   -1    0    0  501    0  0.00000000000E+00  0.00000000000E+00  0.37758386718E+04  0.37758386718E+04  0.25500000000E-02 0. -1.
         -2   -1    0    0    0  501 -0.00000000000E+00 -0.00000000000E+00 -0.21686034845E+04  0.21686034845E+04  0.25500000000E-02 0.  1.
    8880022    1    1    2    0    0 -0.21546357041E+04 -0.17754334461E+04  0.14356700830E+04  0.31431129759E+04  0.15294330000E+03 0.  0.
    8880022    1    1    2    0    0  0.21546357041E+04  0.17754334461E+04  0.17156510428E+03  0.28013291804E+04  0.15294330000E+03 0.  0.
<mgrwt>
<rscale>  0 0.27960706E+04</rscale>
<asrwt>0</asrwt>
<pdfrwt beam="1">  1        2 0.58089825E+00 0.27960706E+04</pdfrwt>
<pdfrwt beam="2">  1       -2 0.33363131E+00 0.27960706E+04</pdfrwt>
<totfact> 0.82099292E-03</totfact>
</mgrwt>
</event>
<event>
 4    1  0.1033139E-008  0.1225934E+04  0.7818608E-02  0.9090454E-01
         -2   -1    0    0    0  501 -0.00000000000E+00  0.00000000000E+00  0.10726567690E+04  0.10726567690E+04  0.25500000000E-02 0.  1.
          2   -1    0    0  501    0  0.00000000000E+00 -0.00000000000E+00 -0.42634507386E+04  0.42634507386E+04  0.25500000000E-02 0. -1.
    8880022    1    1    2    0    0  0.30546421336E+03 -0.11773763365E+04  0.59072436802E+03  0.13608344335E+04  0.15294330000E+03 0.  0.
    8880022    1    1    2    0    0 -0.30546421336E+03  0.11773763365E+04 -0.37815183376E+04  0.39752730741E+04  0.15294330000E+03 0.  0.
<mgrwt>
<rscale>  0 0.12259344E+04</rscale>
<asrwt>0</asrwt>
<pdfrwt beam="1">  1        2 0.65591549E+00 0.12259344E+04</pdfrwt>
<pdfrwt beam="2">  1       -2 0.16502412E+00 0.12259344E+04</pdfrwt>
<totfact> 0.47794560E-02</totfact>
</mgrwt>
</event>
<event>
 4    1  0.1033139E-008  0.3443688E+03  0.7818608E-02  0.1064950E+00
         -2   -1    0    0    0  501 -0.00000000000E+00  0.00000000000E+00  0.10359474619E+04  0.10359474619E+04  0.25500000000E-02 0.  1.
          2   -1    0    0  501    0  0.00000000000E+00 -0.00000000000E+00 -0.20979078560E+04  0.20979078560E+04  0.25500000000E-02 0. -1.
    8880022    1    1    2    0    0 -0.30624533311E+03  0.37576350974E+02  0.99259719500E+03  0.10506374402E+04  0.15294330000E+03 0.  0.
    8880022    1    1    2    0    0  0.30624533311E+03 -0.37576350974E+02 -0.20545575890E+04  0.20832178777E+04  0.15294330000E+03 0.  0.
<mgrwt>
<rscale>  0 0.34436875E+03</rscale>
<asrwt>0</asrwt>
<pdfrwt beam="1">  1        2 0.32275505E+00 0.34436875E+03</pdfrwt>
<pdfrwt beam="2">  1       -2 0.15937653E+00 0.34436875E+03</pdfrwt>
<totfact> 0.17540295E+00</totfact>
</mgrwt>
</event>
<event>
 4    1  0.1033139E-008  0.7264390E+03  0.7818608E-02  0.9673057E-01
         -2   -1    0    0    0  501 -0.00000000000E+00  0.00000000000E+00  0.87905527024E+03  0.87905527024E+03  0.25500000000E-02 0.  1.
          2   -1    0    0  501    0  0.00000000000E+00 -0.00000000000E+00 -0.32736603471E+04  0.32736603471E+04  0.25500000000E-02 0. -1.
    8880022    1    1    2    0    0  0.31529430475E+03  0.63632651110E+03  0.67904202944E+03  0.99439009352E+03  0.15294330000E+03 0.  0.
    8880022    1    1    2    0    0 -0.31529430475E+03 -0.63632651110E+03 -0.30736471063E+04  0.31583255238E+04  0.15294330000E+03 0.  0.
<mgrwt>
<rscale>  0 0.72643897E+03</rscale>
<asrwt>0</asrwt>
<pdfrwt beam="1">  1        2 0.50364005E+00 0.72643897E+03</pdfrwt>
<pdfrwt beam="2">  1       -2 0.13523927E+00 0.72643897E+03</pdfrwt>
<totfact> 0.49476029E-01</totfact>
</mgrwt>
</event>
<event>
 4    1  0.1033139E-008  0.7156558E+03  0.7818608E-02  0.9690827E-01
          2   -1    0    0  501    0  0.00000000000E+00  0.00000000000E+00  0.14449762863E+04  0.14449762863E+04  0.25500000000E-02 0. -1.
         -2   -1    0    0    0  501 -0.00000000000E+00 -0.00000000000E+00 -0.14440510395E+04  0.14440510395E+04  0.25500000000E-02 0.  1.
    8880022    1    1    2    0    0 -0.49574632882E+03 -0.49295760718E+03 -0.12543108190E+04  0.14441118062E+04  0.15294330000E+03 0.  0.
    8880022    1    1    2    0    0  0.49574632882E+03  0.49295760718E+03  0.12552360658E+04  0.14449155197E+04  0.15294330000E+03 0.  0.
<mgrwt>
<rscale>  0 0.71565584E+03</rscale>
<asrwt>0</asrwt>
<pdfrwt beam="1">  1        2 0.22230404E+00 0.71565584E+03</pdfrwt>
<pdfrwt beam="2">  1       -2 0.22216170E+00 0.71565584E+03</pdfrwt>
<totfact> 0.13611463E+00</totfact>
</mgrwt>
</event>
<event>
 4    1  0.1033139E-008  0.4691964E+03  0.7818608E-02  0.1022147E+00
         -2   -1    0    0    0  501 -0.00000000000E+00  0.00000000000E+00  0.52272157450E+03  0.52272157451E+03  0.25500000000E-02 0.  1.
          2   -1    0    0  501    0  0.00000000000E+00 -0.00000000000E+00 -0.24585013406E+04  0.24585013406E+04  0.25500000000E-02 0. -1.
    8880022    1    1    2    0    0  0.22654240686E+03 -0.38135567218E+03  0.38905427728E+03  0.60951496659E+03  0.15294330000E+03 0.  0.
    8880022    1    1    2    0    0 -0.22654240686E+03  0.38135567218E+03 -0.23248340433E+04  0.23717079485E+04  0.15294330000E+03 0.  0.
<mgrwt>
<rscale>  0 0.46919640E+03</rscale>
<asrwt>0</asrwt>
<pdfrwt beam="1">  1        2 0.37823097E+00 0.46919640E+03</pdfrwt>
<pdfrwt beam="2">  1       -2 0.80418705E-01 0.46919640E+03</pdfrwt>
<totfact> 0.56144097E+00</totfact>
</mgrwt>
</event>
<event>
 4    1  0.1033139E-008  0.4088117E+03  0.7818608E-02  0.1040771E+00
          2   -1    0    0  501    0  0.00000000000E+00  0.00000000000E+00  0.57964935352E+03  0.57964935353E+03  0.25500000000E-02 0. -1.
         -2   -1    0    0    0  501 -0.00000000000E+00 -0.00000000000E+00 -0.32348346205E+03  0.32348346206E+03  0.25500000000E-02 0.  1.
    8880022    1    1    2    0    0 -0.45430142648E+01  0.37909718181E+03 -0.20789783893E+02  0.40933993253E+03  0.15294330000E+03 0.  0.
    8880022    1    1    2    0    0  0.45430142648E+01 -0.37909718181E+03  0.27695567536E+03  0.49379288306E+03  0.15294330000E+03 0.  0.
<mgrwt>
<rscale>  0 0.40881165E+03</rscale>
<asrwt>0</asrwt>
<pdfrwt beam="1">  1        2 0.89176823E-01 0.40881165E+03</pdfrwt>
<pdfrwt beam="2">  1       -2 0.49766687E-01 0.40881165E+03</pdfrwt>
<totfact> 0.20323096E+02</totfact>
</mgrwt>
</event>
<event>
 4    1  0.1033139E-008  0.4402797E+03  0.7818608E-02  0.1030661E+00
          2   -1    0    0  501    0  0.00000000000E+00  0.00000000000E+00  0.16157324749E+04  0.16157324749E+04  0.25500000000E-02 0. -1.
         -2   -1    0    0    0  501 -0.00000000000E+00 -0.00000000000E+00 -0.75146883598E+03  0.75146883598E+03  0.25500000000E-02 0.  1.
    8880022    1    1    2    0    0  0.16985971780E+03  0.37630077948E+03  0.15171437999E+04  0.15797378146E+04  0.15294330000E+03 0.  0.
    8880022    1    1    2    0    0 -0.16985971780E+03 -0.37630077948E+03 -0.65288016096E+03  0.78746349627E+03  0.15294330000E+03 0.  1.
<mgrwt>
<rscale>  0 0.44027974E+03</rscale>
<asrwt>0</asrwt>
<pdfrwt beam="1">  1        2 0.24857423E+00 0.44027974E+03</pdfrwt>
<pdfrwt beam="2">  1       -2 0.11561059E+00 0.44027974E+03</pdfrwt>
<totfact> 0.69382042E+00</totfact>
</mgrwt>
</event>
<event>
 4    1  0.1033139E-008  0.8559622E+03  0.7818608E-02  0.9482369E-01
          2   -1    0    0  501    0  0.00000000000E+00  0.00000000000E+00  0.16761376959E+04  0.16761376959E+04  0.25500000000E-02 0. -1.
         -2   -1    0    0    0  501 -0.00000000000E+00 -0.00000000000E+00 -0.91598310520E+03  0.91598310520E+03  0.25500000000E-02 0.  1.
    8880022    1    1    2    0    0  0.68926019640E+03  0.48394213619E+03  0.13171812105E+04  0.15708716064E+04  0.15294330000E+03 0.  0.
    8880022    1    1    2    0    0 -0.68926019640E+03 -0.48394213619E+03 -0.55702661979E+03  0.10212491947E+04  0.15294330000E+03 0.  0.
<mgrwt>
<rscale>  0 0.85596219E+03</rscale>
<asrwt>0</asrwt>
<pdfrwt beam="1">  1        2 0.25786734E+00 0.85596219E+03</pdfrwt>
<pdfrwt beam="2">  1       -2 0.14092048E+00 0.85596219E+03</pdfrwt>
<totfact> 0.36174257E+00</totfact>
</mgrwt>
</event>
<event>
 4    1  0.1033139E-008  0.1421801E+04  0.7818608E-02  0.8938188E-01
          2   -1    0    0  501    0  0.00000000000E+00  0.00000000000E+00  0.18036240576E+04  0.18036240576E+04  0.25500000000E-02 0. -1.
         -2   -1    0    0    0  501 -0.00000000000E+00 -0.00000000000E+00 -0.13425358446E+04  0.13425358446E+04  0.25500000000E-02 0.  1.
    8880022    1    1    2    0    0  0.11242039509E+04  0.85690782584E+03  0.86983345166E+03  0.16667715596E+04  0.15294330000E+03 0.  0.
    8880022    1    1    2    0    0 -0.11242039509E+04 -0.85690782584E+03 -0.40874523869E+03  0.14793883426E+04  0.15294330000E+03 0.  0.
<mgrwt>
<rscale>  0 0.14218007E+04</rscale>
<asrwt>0</asrwt>
<pdfrwt beam="1">  1        2 0.27748062E+00 0.14218007E+04</pdfrwt>
<pdfrwt beam="2">  1       -2 0.20654398E+00 0.14218007E+04</pdfrwt>
<totfact> 0.98049962E-01</totfact>
</mgrwt>
</event>
<event>
 4    1  0.1033139E-008  0.1020539E+04  0.7818608E-02  0.9286301E-01
          2   -1    0    0  501    0  0.00000000000E+00  0.00000000000E+00  0.21282523395E+04  0.21282523395E+04  0.25500000000E-02 0. -1.
         -2   -1    0    0    0  501 -0.00000000000E+00 -0.00000000000E+00 -0.74908427190E+03  0.74908427191E+03  0.25500000000E-02 0.  1.
    8880022    1    1    2    0    0  0.77378145869E+03  0.64758754652E+03  0.15367036620E+04  0.18447105936E+04  0.15294330000E+03 0.  0.
    8880022    1    1    2    0    0 -0.77378145869E+03 -0.64758754652E+03 -0.15753559441E+03  0.10326260178E+04  0.15294330000E+03 0.  0.
<mgrwt>
<rscale>  0 0.10205386E+04</rscale>
<asrwt>0</asrwt>
<pdfrwt beam="1">  1        2 0.32742344E+00 0.10205386E+04</pdfrwt>
<pdfrwt beam="2">  1       -2 0.11524373E+00 0.10205386E+04</pdfrwt>
<totfact> 0.33185479E+00</totfact>
</mgrwt>
</event>
<event>
 4    1  0.1033139E-008  0.6173756E+03  0.7818608E-02  0.9869999E-01
          2   -1    0    0  501    0  0.00000000000E+00  0.00000000000E+00  0.29208451368E+03  0.29208451370E+03  0.25500000000E-02 0. -1.
         -2   -1    0    0    0  501 -0.00000000000E+00 -0.00000000000E+00 -0.15520793694E+04  0.15520793694E+04  0.25500000000E-02 0.  1.
    8880022    1    1    2    0    0 -0.17412987544E+02  0.59787771390E+03 -0.99794330406E+03  0.11734749525E+04  0.15294330000E+03 0.  0.
    8880022    1    1    2    0    0  0.17412987544E+02 -0.59787771390E+03 -0.26205155162E+03  0.67068893060E+03  0.15294330000E+03 0.  0.
<mgrwt>
<rscale>  0 0.61737560E+03</rscale>
<asrwt>0</asrwt>
<pdfrwt beam="1">  1        2 0.44936080E-01 0.61737560E+03</pdfrwt>
<pdfrwt beam="2">  1       -2 0.23878144E+00 0.61737560E+03</pdfrwt>
<totfact> 0.88744301E+00</totfact>
</mgrwt>
</event>
<event>
 4    1  0.1033139E-008  0.6571298E+03  0.7818608E-02  0.9793492E-01
          2   -1    0    0  501    0  0.00000000000E+00  0.00000000000E+00  0.12141082251E+04  0.12141082251E+04  0.25500000000E-02 0. -1.
         -2   -1    0    0    0  501 -0.00000000000E+00 -0.00000000000E+00 -0.62325852247E+03  0.62325852247E+03  0.25500000000E-02 0.  1.
    8880022    1    1    2    0    0  0.50041214671E+03  0.39751179761E+03 -0.30653427633E+03  0.72510886176E+03  0.15294330000E+03 0.  0.
    8880022    1    1    2    0    0 -0.50041214671E+03 -0.39751179761E+03  0.89738397894E+03  0.11122578858E+04  0.15294330000E+03 0.  0.
<mgrwt>
<rscale>  0 0.65712982E+03</rscale>
<asrwt>0</asrwt>
<pdfrwt beam="1">  1        2 0.18678588E+00 0.65712982E+03</pdfrwt>
<pdfrwt beam="2">  1       -2 0.95885928E-01 0.65712982E+03</pdfrwt>
<totfact> 0.17469879E+01</totfact>
</mgrwt>
</event>
<event>
 4    1  0.1033139E-008  0.1433538E+04  0.7818608E-02  0.8929893E-01
          2   -1    0    0  501    0  0.00000000000E+00  0.00000000000E+00  0.19907627381E+04  0.19907627381E+04  0.25500000000E-02 0. -1.
         -2   -1    0    0    0  501 -0.00000000000E+00 -0.00000000000E+00 -0.15263230070E+04  0.15263230070E+04  0.25500000000E-02 0.  1.
    8880022    1    1    2    0    0 -0.43845188851E+03  0.13562447449E+04 -0.76826512313E+03  0.16264263952E+04  0.15294330000E+03 0.  1.
    8880022    1    1    2    0    0  0.43845188851E+03 -0.13562447449E+04  0.12327048543E+04  0.18906593499E+04  0.15294330000E+03 0.  0.
<mgrwt>
<rscale>  0 0.14335381E+04</rscale>
<asrwt>0</asrwt>
<pdfrwt beam="1">  1        2 0.30627119E+00 0.14335381E+04</pdfrwt>
<pdfrwt beam="2">  1       -2 0.23481893E+00 0.14335381E+04</pdfrwt>
<totfact> 0.50951142E-01</totfact>
</mgrwt>
</event>
<event>
 4    1  0.1033139E-008  0.1389142E+04  0.7818608E-02  0.8961716E-01
          2   -1    0    0  501    0  0.00000000000E+00  0.00000000000E+00  0.20587615992E+04  0.20587615992E+04  0.25500000000E-02 0. -1.
         -2   -1    0    0    0  501 -0.00000000000E+00 -0.00000000000E+00 -0.10958108015E+04  0.10958108015E+04  0.25500000000E-02 0.  1.
    8880022    1    1    2    0    0 -0.11410658441E+04 -0.77736245516E+03  0.10813311452E+04  0.17603955084E+04  0.15294330000E+03 0. -1.
    8880022    1    1    2    0    0  0.11410658441E+04  0.77736245516E+03 -0.11838034754E+03  0.13941768923E+04  0.15294330000E+03 0.  0.
<mgrwt>
<rscale>  0 0.13891419E+04</rscale>
<asrwt>0</asrwt>
<pdfrwt beam="1">  1        2 0.31673255E+00 0.13891419E+04</pdfrwt>
<pdfrwt beam="2">  1       -2 0.16858628E+00 0.13891419E+04</pdfrwt>
<totfact> 0.12873771E+00</totfact>
</mgrwt>
</event>
<event>
 4    1  0.1033139E-008  0.6270381E+03  0.7818608E-02  0.9850846E-01
         -2   -1    0    0    0  501 -0.00000000000E+00  0.00000000000E+00  0.50005947423E+03  0.50005947424E+03  0.25500000000E-02 0.  1.
          2   -1    0    0  501    0  0.00000000000E+00 -0.00000000000E+00 -0.12340117257E+04  0.12340117257E+04  0.25500000000E-02 0. -1.
    8880022    1    1    2    0    0 -0.12403328025E+02 -0.60797308638E+03 -0.88924712838E+03  0.10880887945E+04  0.15294330000E+03 0.  0.
    8880022    1    1    2    0    0  0.12403328025E+02  0.60797308638E+03  0.15529487695E+03  0.64598240543E+03  0.15294330000E+03 0.  0.
<mgrwt>
<rscale>  0 0.62703809E+03</rscale>
<asrwt>0</asrwt>
<pdfrwt beam="1">  1        2 0.18984796E+00 0.62703809E+03</pdfrwt>
<pdfrwt beam="2">  1       -2 0.76932227E-01 0.62703809E+03</pdfrwt>
<totfact> 0.28204427E+01</totfact>
</mgrwt>
</event>
<event>
 4    1  0.1033139E-008  0.1031171E+04  0.7818608E-02  0.9275002E-01
          2   -1    0    0  501    0  0.00000000000E+00  0.00000000000E+00  0.37457027929E+04  0.37457027929E+04  0.25500000000E-02 0. -1.
         -2   -1    0    0    0  501 -0.00000000000E+00 -0.00000000000E+00 -0.36996973427E+03  0.36996973428E+03  0.25500000000E-02 0.  1.
    8880022    1    1    2    0    0  0.36120055638E+03 -0.95365417974E+03  0.26805582280E+04  0.28720560933E+04  0.15294330000E+03 0.  0.
    8880022    1    1    2    0    0 -0.36120055638E+03  0.95365417974E+03  0.69517483068E+03  0.12436164339E+04  0.15294330000E+03 0.  0.
<mgrwt>
<rscale>  0 0.10311711E+04</rscale>
<asrwt>0</asrwt>
<pdfrwt beam="1">  1        2 0.57626197E+00 0.10311711E+04</pdfrwt>
<pdfrwt beam="2">  1       -2 0.56918420E-01 0.10311711E+04</pdfrwt>
<totfact> 0.16237861E+00</totfact>
</mgrwt>
</event>
<event>
 4    1  0.1033139E-008  0.7188171E+03  0.7818608E-02  0.9685583E-01
         -2   -1    0    0    0  501 -0.00000000000E+00  0.00000000000E+00  0.13584807689E+04  0.13584807689E+04  0.25500000000E-02 0.  1.
          2   -1    0    0  501    0  0.00000000000E+00 -0.00000000000E+00 -0.71230554120E+03  0.71230554121E+03  0.25500000000E-02 0. -1.
    8880022    1    1    2    0    0 -0.51586217304E+03 -0.47664717316E+03 -0.38373784671E+03  0.81483292599E+03  0.15294330000E+03 0. -1.
    8880022    1    1    2    0    0  0.51586217304E+03  0.47664717316E+03  0.10299130744E+04  0.12559533842E+04  0.15294330000E+03 0.  0.
<mgrwt>
<rscale>  0 0.71881706E+03</rscale>
<asrwt>0</asrwt>
<pdfrwt beam="1">  1        2 0.10958547E+00 0.71881706E+03</pdfrwt>
<pdfrwt beam="2">  1       -2 0.20899704E+00 0.71881706E+03</pdfrwt>
<totfact> 0.47827407E+00</totfact>
</mgrwt>
</event>
<event>
 4    1  0.1033139E-008  0.3517168E+03  0.7818608E-02  0.1061913E+00
          2   -1    0    0  501    0  0.00000000000E+00  0.00000000000E+00  0.18026993692E+04  0.18026993692E+04  0.25500000000E-02 0. -1.
         -2   -1    0    0    0  501 -0.00000000000E+00 -0.00000000000E+00 -0.77542917147E+02  0.77542917189E+02  0.25500000000E-02 0.  1.
    8880022    1    1    2    0    0 -0.25177148141E+03 -0.19215664065E+03  0.11814523343E+04  0.12326939299E+04  0.15294330000E+03 0.  0.
    8880022    1    1    2    0    0  0.25177148141E+03  0.19215664065E+03  0.54370411770E+03  0.64754835651E+03  0.15294330000E+03 0. -1.
<mgrwt>
<rscale>  0 0.35171680E+03</rscale>
<asrwt>0</asrwt>
<pdfrwt beam="1">  1        2 0.27733835E+00 0.35171680E+03</pdfrwt>
<pdfrwt beam="2">  1       -2 0.11929680E-01 0.35171680E+03</pdfrwt>
<totfact> 0.46667677E+02</totfact>
</mgrwt>
</event>
<event>
 4    1  0.1033139E-008  0.1955671E+04  0.7818608E-02  0.8627631E-01
         -2   -1    0    0    0  501 -0.00000000000E+00  0.00000000000E+00  0.15791611046E+04  0.15791611046E+04  0.25500000000E-02 0.  1.
          2   -1    0    0  501    0  0.00000000000E+00 -0.00000000000E+00 -0.31947250656E+04  0.31947250656E+04  0.25500000000E-02 0. -1.
    8880022    1    1    2    0    0 -0.14462483085E+04  0.13075249589E+04  0.36617506567E+03  0.19896561310E+04  0.15294330000E+03 0.  0.
    8880022    1    1    2    0    0  0.14462483085E+04 -0.13075249589E+04 -0.19817390267E+04  0.27842300391E+04  0.15294330000E+03 0.  0.
<mgrwt>
<rscale>  0 0.19556706E+04</rscale>
<asrwt>0</asrwt>
<pdfrwt beam="1">  1        2 0.49149616E+00 0.19556706E+04</pdfrwt>
<pdfrwt beam="2">  1       -2 0.24294786E+00 0.19556706E+04</pdfrwt>
<totfact> 0.82875911E-02</totfact>
</mgrwt>
</event>
<event>
 4    1  0.1033139E-008  0.5806809E+03  0.7818608E-02  0.9946318E-01
         -2   -1    0    0    0  501 -0.00000000000E+00  0.00000000000E+00  0.55888972886E+03  0.55888972886E+03  0.25500000000E-02 0.  1.
          2   -1    0    0  501    0  0.00000000000E+00 -0.00000000000E+00 -0.96555090019E+03  0.96555090019E+03  0.25500000000E-02 0. -1.
    8880022    1    1    2    0    0  0.54575414560E+03 -0.12629765766E+03 -0.67018838771E+03  0.88675972722E+03  0.15294330000E+03 0.  0.
    8880022    1    1    2    0    0 -0.54575414560E+03  0.12629765766E+03  0.26352721638E+03  0.63768090183E+03  0.15294330000E+03 0.  0.
<mgrwt>
<rscale>  0 0.58068093E+03</rscale>
<asrwt>0</asrwt>
<pdfrwt beam="1">  1        2 0.14854629E+00 0.58068093E+03</pdfrwt>
<pdfrwt beam="2">  1       -2 0.85983035E-01 0.58068093E+03</pdfrwt>
<totfact> 0.32191936E+01</totfact>
</mgrwt>
</event>
<event>
 4    1  0.1033139E-008  0.1013145E+04  0.7818608E-02  0.9294244E-01
         -2   -1    0    0    0  501 -0.00000000000E+00  0.00000000000E+00  0.63099474936E+03  0.63099474937E+03  0.25500000000E-02 0.  1.
          2   -1    0    0  501    0  0.00000000000E+00 -0.00000000000E+00 -0.20321416658E+04  0.20321416658E+04  0.25500000000E-02 0. -1.
    8880022    1    1    2    0    0 -0.94167547751E+03 -0.34105534237E+03 -0.12953177605E+04  0.16444790072E+04  0.15294330000E+03 0.  0.
    8880022    1    1    2    0    0  0.94167547751E+03  0.34105534237E+03 -0.10582915594E+03  0.10186574079E+04  0.15294330000E+03 0.  0.
<mgrwt>
<rscale>  0 0.10131452E+04</rscale>
<asrwt>0</asrwt>
<pdfrwt beam="1">  1        2 0.31263718E+00 0.10131452E+04</pdfrwt>
<pdfrwt beam="2">  1       -2 0.97076117E-01 0.10131452E+04</pdfrwt>
<totfact> 0.56777482E+00</totfact>
</mgrwt>
</event>
<event>
 4    1  0.1033139E-008  0.8476254E+03  0.7818608E-02  0.9493530E-01
          2   -1    0    0  501    0  0.00000000000E+00  0.00000000000E+00  0.68215732761E+03  0.68215732761E+03  0.25500000000E-02 0. -1.
         -2   -1    0    0    0  501 -0.00000000000E+00 -0.00000000000E+00 -0.19620960855E+04  0.19620960855E+04  0.25500000000E-02 0.  1.
    8880022    1    1    2    0    0  0.41268268860E+03  0.72441016089E+03  0.25986551535E+03  0.88656574587E+03  0.15294330000E+03 0.  0.
    8880022    1    1    2    0    0 -0.41268268860E+03 -0.72441016089E+03 -0.15398042733E+04  0.17576876673E+04  0.15294330000E+03 0.  0.
<mgrwt>
<rscale>  0 0.84762535E+03</rscale>
<asrwt>0</asrwt>
<pdfrwt beam="1">  1        2 0.10494728E+00 0.84762535E+03</pdfrwt>
<pdfrwt beam="2">  1       -2 0.30186093E+00 0.84762535E+03</pdfrwt>
<totfact> 0.13461218E+00</totfact>
</mgrwt>
</event>
<event>
 4    1  0.1033139E-008  0.5518499E+03  0.7818608E-02  0.1001067E+00
          2   -1    0    0  501    0  0.00000000000E+00  0.00000000000E+00  0.34804888689E+04  0.34804888689E+04  0.25500000000E-02 0. -1.
         -2   -1    0    0    0  501 -0.00000000000E+00 -0.00000000000E+00 -0.67597408629E+03  0.67597408629E+03  0.25500000000E-02 0.  1.
    8880022    1    1    2    0    0  0.77295806216E+02  0.52456838001E+03 -0.53681062538E+03  0.76987266966E+03  0.15294330000E+03 0.  0.
    8880022    1    1    2    0    0 -0.77295806216E+02 -0.52456838001E+03  0.33413254080E+04  0.33865902855E+04  0.15294330000E+03 0.  0.
<mgrwt>
<rscale>  0 0.55184987E+03</rscale>
<asrwt>0</asrwt>
<pdfrwt beam="1">  1        2 0.53545983E+00 0.55184987E+03</pdfrwt>
<pdfrwt beam="2">  1       -2 0.10399601E+00 0.55184987E+03</pdfrwt>
<totfact> 0.72684386E-01</totfact>
</mgrwt>
</event>
<event>
 4    1  0.1033139E-008  0.6565654E+03  0.7818608E-02  0.9794537E-01
         -2   -1    0    0    0  501 -0.00000000000E+00  0.00000000000E+00  0.27582606047E+04  0.27582606047E+04  0.25500000000E-02 0.  1.
          2   -1    0    0  501    0  0.00000000000E+00 -0.00000000000E+00 -0.24541767067E+03  0.24541767068E+03  0.25500000000E-02 0. -1.
    8880022    1    1    2    0    0  0.24248609093E+03  0.59066654822E+03  0.35134351357E+03  0.74466126059E+03  0.15294330000E+03 0.  0.
    8880022    1    1    2    0    0 -0.24248609093E+03 -0.59066654822E+03  0.21614994205E+04  0.22590170148E+04  0.15294330000E+03 0.  0.
<mgrwt>
<rscale>  0 0.65656540E+03</rscale>
<asrwt>0</asrwt>
<pdfrwt beam="1">  1        2 0.37756567E-01 0.65656540E+03</pdfrwt>
<pdfrwt beam="2">  1       -2 0.42434776E+00 0.65656540E+03</pdfrwt>
<totfact> 0.76325419E-01</totfact>
</mgrwt>
</event>
<event>
 4    1  0.1033139E-008  0.9957571E+03  0.7818608E-02  0.9313211E-01
          2   -1    0    0  501    0  0.00000000000E+00  0.00000000000E+00  0.21167561173E+04  0.21167561173E+04  0.25500000000E-02 0. -1.
         -2   -1    0    0    0  501 -0.00000000000E+00 -0.00000000000E+00 -0.78442348334E+03  0.78442348335E+03  0.25500000000E-02 0.  1.
    8880022    1    1    2    0    0  0.38996484388E+03 -0.90336484049E+03 -0.25452663221E+03  0.10277723843E+04  0.15294330000E+03 0.  0.
    8880022    1    1    2    0    0 -0.38996484388E+03  0.90336484049E+03  0.15868592662E+04  0.18734072163E+04  0.15294330000E+03 0.  0.
<mgrwt>
<rscale>  0 0.99575713E+03</rscale>
<asrwt>0</asrwt>
<pdfrwt beam="1">  1        2 0.32565478E+00 0.99575713E+03</pdfrwt>
<pdfrwt beam="2">  1       -2 0.12068054E+00 0.99575713E+03</pdfrwt>
<totfact> 0.30143333E+00</totfact>
</mgrwt>
</event>
<event>
 4    1  0.1033139E-008  0.8463980E+03  0.7818608E-02  0.9495184E-01
         -2   -1    0    0    0  501 -0.00000000000E+00  0.00000000000E+00  0.66631321219E+03  0.66631321219E+03  0.25500000000E-02 0.  1.
          2   -1    0    0  501    0  0.00000000000E+00 -0.00000000000E+00 -0.22141797873E+04  0.22141797873E+04  0.25500000000E-02 0. -1.
    8880022    1    1    2    0    0  0.82384983464E+03 -0.11945418326E+03 -0.18069256523E+04  0.19953370187E+04  0.15294330000E+03 0.  0.
    8880022    1    1    2    0    0 -0.82384983464E+03  0.11945418326E+03  0.25905907721E+03  0.88515598085E+03  0.15294330000E+03 0.  0.
<mgrwt>
<rscale>  0 0.84639796E+03</rscale>
<asrwt>0</asrwt>
<pdfrwt beam="1">  1        2 0.34064304E+00 0.84639796E+03</pdfrwt>
<pdfrwt beam="2">  1       -2 0.10250973E+00 0.84639796E+03</pdfrwt>
<totfact> 0.40476282E+00</totfact>
</mgrwt>
</event>
<event>
 4    1  0.1033139E-008  0.1381291E+04  0.7818608E-02  0.8967474E-01
         -2   -1    0    0    0  501 -0.00000000000E+00  0.00000000000E+00  0.89597349820E+03  0.89597349821E+03  0.25500000000E-02 0.  1.
          2   -1    0    0  501    0  0.00000000000E+00 -0.00000000000E+00 -0.27294301411E+04  0.27294301411E+04  0.25500000000E-02 0. -1.
    8880022    1    1    2    0    0  0.29080506735E+03  0.13416425373E+04 -0.66872180703E+02  0.13829084665E+04  0.15294330000E+03 0.  0.
    8880022    1    1    2    0    0 -0.29080506735E+03 -0.13416425373E+04 -0.17665844622E+04  0.22424951728E+04  0.15294330000E+03 0.  0.
<mgrwt>
<rscale>  0 0.13812907E+04</rscale>
<asrwt>0</asrwt>
<pdfrwt beam="1">  1        2 0.41991232E+00 0.13812907E+04</pdfrwt>
<pdfrwt beam="2">  1       -2 0.13784208E+00 0.13812907E+04</pdfrwt>
<totfact> 0.91558282E-01</totfact>
</mgrwt>
</event>
<event>
 4    1  0.1033139E-008  0.1583530E+04  0.7818608E-02  0.8830730E-01
          2   -1    0    0  501    0  0.00000000000E+00  0.00000000000E+00  0.17674554164E+04  0.17674554165E+04  0.25500000000E-02 0. -1.
         -2   -1    0    0    0  501 -0.00000000000E+00 -0.00000000000E+00 -0.17622589191E+04  0.17622589191E+04  0.25500000000E-02 0.  1.
    8880022    1    1    2    0    0  0.44932897066E+03 -0.15107216556E+04  0.78179481573E+03  0.17660043124E+04  0.15294330000E+03 0.  0.
    8880022    1    1    2    0    0 -0.44932897066E+03  0.15107216556E+04 -0.77659831835E+03  0.17637100231E+04  0.15294330000E+03 0.  0.
<mgrwt>
<rscale>  0 0.15835303E+04</rscale>
<asrwt>0</asrwt>
<pdfrwt beam="1">  1        2 0.27191622E+00 0.15835303E+04</pdfrwt>
<pdfrwt beam="2">  1       -2 0.27111675E+00 0.15835303E+04</pdfrwt>
<totfact> 0.39925932E-01</totfact>
</mgrwt>
</event>
<event>
 4    1  0.1033139E-008  0.3040784E+03  0.7818608E-02  0.1083219E+00
          2   -1    0    0  501    0  0.00000000000E+00  0.00000000000E+00  0.50554285662E+03  0.50554285663E+03  0.25500000000E-02 0. -1.
         -2   -1    0    0    0  501 -0.00000000000E+00 -0.00000000000E+00 -0.31652852221E+03  0.31652852222E+03  0.25500000000E-02 0.  1.
    8880022    1    1    2    0    0 -0.23962465374E+03  0.10794460079E+03 -0.17256159192E+03  0.34963004382E+03  0.15294330000E+03 0.  1.
    8880022    1    1    2    0    0  0.23962465374E+03 -0.10794460079E+03  0.36157592634E+03  0.47244133503E+03  0.15294330000E+03 0.  0.
<mgrwt>
<rscale>  0 0.30407839E+03</rscale>
<asrwt>0</asrwt>
<pdfrwt beam="1">  1        2 0.77775824E-01 0.30407839E+03</pdfrwt>
<pdfrwt beam="2">  1       -2 0.48696696E-01 0.30407839E+03</pdfrwt>
<totfact> 0.25043835E+02</totfact>
</mgrwt>
</event>
<event>
 4    1  0.1033139E-008  0.6837875E+03  0.7818608E-02  0.9745367E-01
          2   -1    0    0  501    0  0.00000000000E+00  0.00000000000E+00  0.10275348854E+04  0.10275348854E+04  0.25500000000E-02 0. -1.
         -2   -1    0    0    0  501 -0.00000000000E+00 -0.00000000000E+00 -0.15470046045E+04  0.15470046045E+04  0.25500000000E-02 0.  1.
    8880022    1    1    2    0    0 -0.36994789739E+03 -0.55435749282E+03  0.82177091234E+03  0.10690522728E+04  0.15294330000E+03 0.  0.
    8880022    1    1    2    0    0  0.36994789739E+03  0.55435749282E+03 -0.13412406314E+04  0.15054872172E+04  0.15294330000E+03 0.  0.
<mgrwt>
<rscale>  0 0.68378749E+03</rscale>
<asrwt>0</asrwt>
<pdfrwt beam="1">  1        2 0.15808229E+00 0.68378749E+03</pdfrwt>
<pdfrwt beam="2">  1       -2 0.23800071E+00 0.68378749E+03</pdfrwt>
<totfact> 0.19243190E+00</totfact>
</mgrwt>
</event>
<event>
 4    1  0.1033139E-008  0.5742811E+03  0.7818608E-02  0.9960250E-01
         -2   -1    0    0    0  501 -0.00000000000E+00  0.00000000000E+00  0.33931629804E+03  0.33931629805E+03  0.25500000000E-02 0.  1.
          2   -1    0    0  501    0  0.00000000000E+00 -0.00000000000E+00 -0.26319705017E+04  0.26319705017E+04  0.25500000000E-02 0. -1.
    8880022    1    1    2    0    0 -0.27957466270E+03  0.47775002372E+03 -0.23261876972E+04  0.23960275318E+04  0.15294330000E+03 0.  0.
    8880022    1    1    2    0    0  0.27957466270E+03 -0.47775002372E+03  0.33533493577E+02  0.57525926798E+03  0.15294330000E+03 0.  1.
<mgrwt>
<rscale>  0 0.57428106E+03</rscale>
<asrwt>0</asrwt>
<pdfrwt beam="1">  1        2 0.40491853E+00 0.57428106E+03</pdfrwt>
<pdfrwt beam="2">  1       -2 0.52202509E-01 0.57428106E+03</pdfrwt>
<totfact> 0.10987814E+01</totfact>
</mgrwt>
</event>
<event>
 4    1  0.1033139E-008  0.1270041E+04  0.7818608E-02  0.9053666E-01
          2   -1    0    0  501    0  0.00000000000E+00  0.00000000000E+00  0.14604358571E+04  0.14604358571E+04  0.25500000000E-02 0. -1.
         -2   -1    0    0    0  501 -0.00000000000E+00 -0.00000000000E+00 -0.16281373547E+04  0.16281373547E+04  0.25500000000E-02 0.  1.
    8880022    1    1    2    0    0  0.62294347825E+03 -0.10961538983E+04  0.79196201144E+03  0.14967322494E+04  0.15294330000E+03 0.  0.
    8880022    1    1    2    0    0 -0.62294347825E+03  0.10961538983E+04 -0.95966350899E+03  0.15918409623E+04  0.15294330000E+03 0.  0.
<mgrwt>
<rscale>  0 0.12700408E+04</rscale>
<asrwt>0</asrwt>
<pdfrwt beam="1">  1        2 0.22468244E+00 0.12700408E+04</pdfrwt>
<pdfrwt beam="2">  1       -2 0.25048267E+00 0.12700408E+04</pdfrwt>
<totfact> 0.82213495E-01</totfact>
</mgrwt>
</event>
<event>
 4    1  0.1033139E-008  0.2537622E+03  0.7818608E-02  0.1110950E+00
         -2   -1    0    0    0  501 -0.00000000000E+00  0.00000000000E+00  0.35658534156E+03  0.35658534157E+03  0.25500000000E-02 0.  1.
          2   -1    0    0  501    0  0.00000000000E+00 -0.00000000000E+00 -0.26418251908E+03  0.26418251909E+03  0.25500000000E-02 0. -1.
    8880022    1    1    2    0    0  0.19006381206E+03 -0.69852256571E+02  0.22079752128E+03  0.33637299063E+03  0.15294330000E+03 0.  0.
    8880022    1    1    2    0    0 -0.19006381206E+03  0.69852256571E+02 -0.12839469880E+03  0.28439487003E+03  0.15294330000E+03 0.  0.
<mgrwt>
<rscale>  0 0.25376218E+03</rscale>
<asrwt>0</asrwt>
<pdfrwt beam="1">  1        2 0.40643464E-01 0.25376218E+03</pdfrwt>
<pdfrwt beam="2">  1       -2 0.54859283E-01 0.25376218E+03</pdfrwt>
<totfact> 0.40163218E+02</totfact>
</mgrwt>
</event>
<event>
 4    1  0.1033139E-008  0.1577394E+04  0.7818608E-02  0.8834558E-01
          2   -1    0    0  501    0  0.00000000000E+00  0.00000000000E+00  0.19046931314E+04  0.19046931314E+04  0.25500000000E-02 0. -1.
         -2   -1    0    0    0  501 -0.00000000000E+00 -0.00000000000E+00 -0.19075990629E+04  0.19075990629E+04  0.25500000000E-02 0.  1.
    8880022    1    1    2    0    0  0.14329004217E+04 -0.64154147800E+03  0.10686969109E+04  0.19053303721E+04  0.15294330000E+03 0.  0.
    8880022    1    1    2    0    0 -0.14329004217E+04  0.64154147800E+03 -0.10716028424E+04  0.19069618222E+04  0.15294330000E+03 0.  0.
<mgrwt>
<rscale>  0 0.15773937E+04</rscale>
<asrwt>0</asrwt>
<pdfrwt beam="1">  1        2 0.29302971E+00 0.15773937E+04</pdfrwt>
<pdfrwt beam="2">  1       -2 0.29347678E+00 0.15773937E+04</pdfrwt>
<totfact> 0.24457485E-01</totfact>
</mgrwt>
</event>
<event>
 4    1  0.1033139E-008  0.6641514E+03  0.7818608E-02  0.9780582E-01
         -2   -1    0    0    0  501 -0.00000000000E+00  0.00000000000E+00  0.11567664259E+04  0.11567664259E+04  0.25500000000E-02 0.  1.
          2   -1    0    0  501    0  0.00000000000E+00 -0.00000000000E+00 -0.10618120200E+04  0.10618120200E+04  0.25500000000E-02 0. -1.
    8880022    1    1    2    0    0 -0.10918727175E+03 -0.63701143529E+03 -0.84056334163E+03  0.10712813885E+04  0.15294330000E+03 0.  0.
    8880022    1    1    2    0    0  0.10918727175E+03  0.63701143529E+03  0.93551774749E+03  0.11472970574E+04  0.15294330000E+03 0.  0.
<mgrwt>
<rscale>  0 0.66415140E+03</rscale>
<asrwt>0</asrwt>
<pdfrwt beam="1">  1        2 0.16335569E+00 0.66415140E+03</pdfrwt>
<pdfrwt beam="2">  1       -2 0.17796407E+00 0.66415140E+03</pdfrwt>
<totfact> 0.44628420E+00</totfact>
</mgrwt>
</event>
<event>
 4    1  0.1033139E-008  0.9553552E+03  0.7818608E-02  0.9358913E-01
          2   -1    0    0  501    0  0.00000000000E+00  0.00000000000E+00  0.16089865273E+04  0.16089865273E+04  0.25500000000E-02 0. -1.
         -2   -1    0    0    0  501 -0.00000000000E+00 -0.00000000000E+00 -0.13238333782E+04  0.13238333782E+04  0.25500000000E-02 0.  1.
    8880022    1    1    2    0    0 -0.14392991608E+03 -0.93198503812E+03 -0.96600094593E+03  0.13586248241E+04  0.15294330000E+03 0.  0.
    8880022    1    1    2    0    0  0.14392991608E+03  0.93198503812E+03  0.12511540950E+04  0.15741950815E+04  0.15294330000E+03 0.  0.
<mgrwt>
<rscale>  0 0.95535521E+03</rscale>
<asrwt>0</asrwt>
<pdfrwt beam="1">  1        2 0.24753639E+00 0.95535521E+03</pdfrwt>
<pdfrwt beam="2">  1       -2 0.20366667E+00 0.95535521E+03</pdfrwt>
<totfact> 0.13886268E+00</totfact>
</mgrwt>
</event>
<event>
 4    1  0.1033139E-008  0.6573759E+03  0.7818608E-02  0.9793036E-01
         -2   -1    0    0    0  501 -0.00000000000E+00  0.00000000000E+00  0.66914875977E+03  0.66914875978E+03  0.25500000000E-02 0.  1.
          2   -1    0    0  501    0  0.00000000000E+00 -0.00000000000E+00 -0.16557195185E+04  0.16557195185E+04  0.25500000000E-02 0. -1.
    8880022    1    1    2    0    0 -0.20841909425E+03 -0.60441124474E+03 -0.14011396730E+04  0.15476871480E+04  0.15294330000E+03 0.  0.
    8880022    1    1    2    0    0  0.20841909425E+03  0.60441124474E+03  0.41456891429E+03  0.77718113032E+03  0.15294330000E+03 0.  0.
<mgrwt>
<rscale>  0 0.65737594E+03</rscale>
<asrwt>0</asrwt>
<pdfrwt beam="1">  1        2 0.25472608E+00 0.65737594E+03</pdfrwt>
<pdfrwt beam="2">  1       -2 0.10294596E+00 0.65737594E+03</pdfrwt>
<totfact> 0.83426440E+00</totfact>
</mgrwt>
</event>
<event>
 4    1  0.1033139E-008  0.4909517E+03  0.7818608E-02  0.1016168E+00
          2   -1    0    0  501    0  0.00000000000E+00  0.00000000000E+00  0.80603826517E+03  0.80603826518E+03  0.25500000000E-02 0. -1.
         -2   -1    0    0    0  501 -0.00000000000E+00 -0.00000000000E+00 -0.38327244718E+03  0.38327244719E+03  0.25500000000E-02 0.  1.
    8880022    1    1    2    0    0 -0.43323231700E+03  0.17306541486E+03 -0.67398957626E+02  0.49555640529E+03  0.15294330000E+03 0.  0.
    8880022    1    1    2    0    0  0.43323231700E+03 -0.17306541486E+03  0.49016477562E+03  0.69375430708E+03  0.15294330000E+03 0.  0.
<mgrwt>
<rscale>  0 0.49095166E+03</rscale>
<asrwt>0</asrwt>
<pdfrwt beam="1">  1        2 0.12400589E+00 0.49095166E+03</pdfrwt>
<pdfrwt beam="2">  1       -2 0.58964992E-01 0.49095166E+03</pdfrwt>
<totfact> 0.94777533E+01</totfact>
</mgrwt>
</event>
<event>
 4    1  0.1033139E-008  0.1598099E+04  0.7818608E-02  0.8821717E-01
          2   -1    0    0  501    0  0.00000000000E+00  0.00000000000E+00  0.30756956847E+04  0.30756956847E+04  0.25500000000E-02 0. -1.
         -2   -1    0    0    0  501 -0.00000000000E+00 -0.00000000000E+00 -0.95061615844E+03  0.95061615844E+03  0.25500000000E-02 0.  1.
    8880022    1    1    2    0    0 -0.15868100178E+04 -0.11208185057E+03  0.17785794202E+04  0.23910802539E+04  0.15294330000E+03 0.  0.
    8880022    1    1    2    0    0  0.15868100178E+04  0.11208185057E+03  0.34650010604E+03  0.16352315892E+04  0.15294330000E+03 0.  0.
<mgrwt>
<rscale>  0 0.15980989E+04</rscale>
<asrwt>0</asrwt>
<pdfrwt beam="1">  1        2 0.47318395E+00 0.15980989E+04</pdfrwt>
<pdfrwt beam="2">  1       -2 0.14624864E+00 0.15980989E+04</pdfrwt>
<totfact> 0.46901390E-01</totfact>
</mgrwt>
</event>
<event>
 4    1  0.1033139E-008  0.5885216E+03  0.7818608E-02  0.9929510E-01
          2   -1    0    0  501    0  0.00000000000E+00  0.00000000000E+00  0.22869444837E+04  0.22869444837E+04  0.25500000000E-02 0. -1.
         -2   -1    0    0    0  501 -0.00000000000E+00 -0.00000000000E+00 -0.33857077317E+03  0.33857077318E+03  0.25500000000E-02 0.  1.
    8880022    1    1    2    0    0 -0.56148681464E+03 -0.87741721957E+02  0.19501217309E+04  0.20369910336E+04  0.15294330000E+03 0.  0.
    8880022    1    1    2    0    0  0.56148681464E+03  0.87741721957E+02 -0.17480203306E+01  0.58852422328E+03  0.15294330000E+03 0.  0.
<mgrwt>
<rscale>  0 0.58852163E+03</rscale>
<asrwt>0</asrwt>
<pdfrwt beam="1">  1        2 0.35183761E+00 0.58852163E+03</pdfrwt>
<pdfrwt beam="2">  1       -2 0.52087812E-01 0.58852163E+03</pdfrwt>
<totfact> 0.17174476E+01</totfact>
</mgrwt>
</event>
<event>
 4    1  0.1033139E-008  0.2288849E+04  0.7818608E-02  0.8482331E-01
         -2   -1    0    0    0  501 -0.00000000000E+00  0.00000000000E+00  0.18366840168E+04  0.18366840168E+04  0.25500000000E-02 0.  1.
          2   -1    0    0  501    0  0.00000000000E+00 -0.00000000000E+00 -0.30821450772E+04  0.30821450772E+04  0.25500000000E-02 0. -1.
    8880022    1    1    2    0    0 -0.12543547718E+04 -0.19084110169E+04 -0.12943044505E+04  0.26294589114E+04  0.15294330000E+03 0.  0.
    8880022    1    1    2    0    0  0.12543547718E+04  0.19084110169E+04  0.48843390005E+02  0.22893701826E+04  0.15294330000E+03 0.  0.
<mgrwt>
<rscale>  0 0.22888491E+04</rscale>
<asrwt>0</asrwt>
<pdfrwt beam="1">  1        2 0.47417617E+00 0.22888491E+04</pdfrwt>
<pdfrwt beam="2">  1       -2 0.28256677E+00 0.22888491E+04</pdfrwt>
<totfact> 0.54016521E-02</totfact>
</mgrwt>
</event>
<event>
 4    1  0.1033139E-008  0.3308149E+03  0.7818608E-02  0.1070777E+00
         -2   -1    0    0    0  501 -0.00000000000E+00  0.00000000000E+00  0.80366745854E+03  0.80366745855E+03  0.25500000000E-02 0.  1.
          2   -1    0    0  501    0  0.00000000000E+00 -0.00000000000E+00 -0.57330693828E+03  0.57330693829E+03  0.25500000000E-02 0. -1.
    8880022    1    1    2    0    0 -0.29333736890E+03 -0.72094297099E-01  0.71636662856E+03  0.78906249228E+03  0.15294330000E+03 0.  1.
    8880022    1    1    2    0    0  0.29333736890E+03  0.72094297099E-01 -0.48600610830E+03  0.58791190455E+03  0.15294330000E+03 0.  0.
<mgrwt>
<rscale>  0 0.33081486E+03</rscale>
<asrwt>0</asrwt>
<pdfrwt beam="1">  1        2 0.88201067E-01 0.33081486E+03</pdfrwt>
<pdfrwt beam="2">  1       -2 0.12364115E+00 0.33081486E+03</pdfrwt>
<totfact> 0.27511111E+01</totfact>
</mgrwt>
</event>
<event>
 4    1  0.1033139E-008  0.4454762E+03  0.7818608E-02  0.1029080E+00
          2   -1    0    0  501    0  0.00000000000E+00  0.00000000000E+00  0.60360087295E+03  0.60360087295E+03  0.25500000000E-02 0. -1.
         -2   -1    0    0    0  501 -0.00000000000E+00 -0.00000000000E+00 -0.13300295629E+04  0.13300295629E+04  0.25500000000E-02 0.  1.
    8880022    1    1    2    0    0  0.41050078955E+03 -0.80910592508E+02  0.47563701602E+03  0.65167449407E+03  0.15294330000E+03 0.  0.
    8880022    1    1    2    0    0 -0.41050078955E+03  0.80910592508E+02 -0.12020657060E+04  0.12819559418E+04  0.15294330000E+03 0.  1.
<mgrwt>
<rscale>  0 0.44547623E+03</rscale>
<asrwt>0</asrwt>
<pdfrwt beam="1">  1        2 0.92861673E-01 0.44547623E+03</pdfrwt>
<pdfrwt beam="2">  1       -2 0.20461993E+00 0.44547623E+03</pdfrwt>
<totfact> 0.65414660E+00</totfact>
</mgrwt>
</event>
<event>
 4    1  0.1033139E-008  0.6131226E+03  0.7818608E-02  0.9878549E-01
          2   -1    0    0  501    0  0.00000000000E+00  0.00000000000E+00  0.83679899948E+03  0.83679899948E+03  0.25500000000E-02 0. -1.
         -2   -1    0    0    0  501 -0.00000000000E+00 -0.00000000000E+00 -0.85877263838E+03  0.85877263838E+03  0.25500000000E-02 0.  1.
    8880022    1    1    2    0    0 -0.10199084798E+01  0.59373948168E+03 -0.59644252606E+03  0.85537299013E+03  0.15294330000E+03 0.  1.
    8880022    1    1    2    0    0  0.10199084798E+01 -0.59373948168E+03  0.57446888716E+03  0.84019864774E+03  0.15294330000E+03 0.  0.
<mgrwt>
<rscale>  0 0.61312255E+03</rscale>
<asrwt>0</asrwt>
<pdfrwt beam="1">  1        2 0.12873831E+00 0.61312255E+03</pdfrwt>
<pdfrwt beam="2">  1       -2 0.13211887E+00 0.61312255E+03</pdfrwt>
<totfact> 0.13948559E+01</totfact>
</mgrwt>
</event>
<event>
 4    1  0.1033139E-008  0.8783055E+03  0.7818608E-02  0.9453114E-01
          2   -1    0    0  501    0  0.00000000000E+00  0.00000000000E+00  0.41375455060E+04  0.41375455060E+04  0.25500000000E-02 0. -1.
         -2   -1    0    0    0  501 -0.00000000000E+00 -0.00000000000E+00 -0.48243980491E+03  0.48243980492E+03  0.25500000000E-02 0.  1.
    8880022    1    1    2    0    0 -0.86046909458E+03 -0.87302709359E+02  0.36369413279E+04  0.37414920422E+04  0.15294330000E+03 0.  0.
    8880022    1    1    2    0    0  0.86046909458E+03  0.87302709359E+02  0.18164373167E+02  0.87849326876E+03  0.15294330000E+03 0.  0.
<mgrwt>
<rscale>  0 0.87830546E+03</rscale>
<asrwt>0</asrwt>
<pdfrwt beam="1">  1        2 0.63654543E+00 0.87830546E+03</pdfrwt>
<pdfrwt beam="2">  1       -2 0.74221512E-01 0.87830546E+03</pdfrwt>
<totfact> 0.46707046E-01</totfact>
</mgrwt>
</event>
<event>
 4    1  0.1033139E-008  0.2488370E+03  0.7818608E-02  0.1114042E+00
         -2   -1    0    0    0  501 -0.00000000000E+00  0.00000000000E+00  0.24497924195E+04  0.24497924195E+04  0.25500000000E-02 0.  1.
          2   -1    0    0  501    0  0.00000000000E+00 -0.00000000000E+00 -0.52684689760E+03  0.52684689761E+03  0.25500000000E-02 0. -1.
    8880022    1    1    2    0    0  0.17030435871E+03 -0.97594282967E+02  0.24136524583E+04  0.24264455611E+04  0.15294330000E+03 0.  0.
    8880022    1    1    2    0    0 -0.17030435871E+03  0.97594282967E+02 -0.49070693641E+03  0.55019375598E+03  0.15294330000E+03 0. -1.
<mgrwt>
<rscale>  0 0.24883704E+03</rscale>
<asrwt>0</asrwt>
<pdfrwt beam="1">  1        2 0.81053369E-01 0.24883704E+03</pdfrwt>
<pdfrwt beam="2">  1       -2 0.37689114E+00 0.24883704E+03</pdfrwt>
<totfact> 0.75838119E-01</totfact>
</mgrwt>
</event>
<event>
 4    1  0.1184726E-008  0.1610718E+04  0.7818608E-02  0.8813990E-01
         -2   -1    0    0    0  501 -0.00000000000E+00  0.00000000000E+00  0.18997987282E+04  0.18997987282E+04  0.25500000000E-02 0.  1.
          2   -1    0    0  501    0  0.00000000000E+00 -0.00000000000E+00 -0.24340434606E+04  0.24340434606E+04  0.25500000000E-02 0. -1.
    8880022    1    1    2    0    0 -0.11751975744E+04  0.10908403184E+04 -0.17027754983E+04  0.23438980331E+04  0.15294330000E+03 0.  0.
    8880022    1    1    2    0    0  0.11751975744E+04 -0.10908403184E+04  0.11685307658E+04  0.19899441557E+04  0.15294330000E+03 0.  0.
<mgrwt>
<rscale>  0 0.16107183E+04</rscale>
<asrwt>0</asrwt>
<pdfrwt beam="1">  1        2 0.37446823E+00 0.16107183E+04</pdfrwt>
<pdfrwt beam="2">  1       -2 0.29227673E+00 0.16107183E+04</pdfrwt>
<totfact> 0.12458460E-01</totfact>
</mgrwt>
</event>
<event>
 4    1  0.1033139E-008  0.2113691E+04  0.7818608E-02  0.8555236E-01
          2   -1    0    0  501    0  0.00000000000E+00  0.00000000000E+00  0.22387498627E+04  0.22387498627E+04  0.25500000000E-02 0. -1.
         -2   -1    0    0    0  501 -0.00000000000E+00 -0.00000000000E+00 -0.25404272589E+04  0.25404272589E+04  0.25500000000E-02 0.  1.
    8880022    1    1    2    0    0 -0.15793761229E+04 -0.13963767800E+04 -0.12574424404E+04  0.24594410327E+04  0.15294330000E+03 0.  0.
    8880022    1    1    2    0    0  0.15793761229E+04  0.13963767800E+04  0.95576504431E+03  0.23197360889E+04  0.15294330000E+03 0.  0.
<mgrwt>
<rscale>  0 0.21136908E+04</rscale>
<asrwt>0</asrwt>
<pdfrwt beam="1">  1        2 0.34442306E+00 0.21136908E+04</pdfrwt>
<pdfrwt beam="2">  1       -2 0.39083496E+00 0.21136908E+04</pdfrwt>
<totfact> 0.36559008E-02</totfact>
</mgrwt>
</event>
<event>
 4    1  0.1033139E-008  0.5631014E+03  0.7818608E-02  0.9985061E-01
          2   -1    0    0  501    0  0.00000000000E+00  0.00000000000E+00  0.15973604436E+04  0.15973604436E+04  0.25500000000E-02 0. -1.
         -2   -1    0    0    0  501 -0.00000000000E+00 -0.00000000000E+00 -0.94363876682E+03  0.94363876683E+03  0.25500000000E-02 0.  1.
    8880022    1    1    2    0    0  0.50764215708E+03  0.18971288211E+03 -0.80212611593E+03  0.98004566024E+03  0.15294330000E+03 0.  1.
    8880022    1    1    2    0    0 -0.50764215708E+03 -0.18971288211E+03  0.14558477927E+04  0.15609535502E+04  0.15294330000E+03 0.  0.
<mgrwt>
<rscale>  0 0.56310140E+03</rscale>
<asrwt>0</asrwt>
<pdfrwt beam="1">  1        2 0.24574776E+00 0.56310140E+03</pdfrwt>
<pdfrwt beam="2">  1       -2 0.14517520E+00 0.56310140E+03</pdfrwt>
<totfact> 0.38909108E+00</totfact>
</mgrwt>
</event>
<event>
 4    1  0.1033139E-008  0.7242675E+03  0.7818608E-02  0.9676608E-01
         -2   -1    0    0    0  501 -0.00000000000E+00  0.00000000000E+00  0.18747360087E+03  0.18747360089E+03  0.25500000000E-02 0.  1.
          2   -1    0    0  501    0  0.00000000000E+00 -0.00000000000E+00 -0.38038680477E+04  0.38038680477E+04  0.25500000000E-02 0. -1.
    8880022    1    1    2    0    0 -0.26322302543E+03  0.65717989215E+03 -0.78199597011E+03  0.10658710626E+04  0.15294330000E+03 0.  0.
    8880022    1    1    2    0    0  0.26322302543E+03 -0.65717989215E+03 -0.28343984767E+04  0.29254705860E+04  0.15294330000E+03 0.  0.
<mgrwt>
<rscale>  0 0.72426751E+03</rscale>
<asrwt>0</asrwt>
<pdfrwt beam="1">  1        2 0.58521041E+00 0.72426751E+03</pdfrwt>
<pdfrwt beam="2">  1       -2 0.28842095E-01 0.72426751E+03</pdfrwt>
<totfact> 0.59224463E+00</totfact>
</mgrwt>
</event>
<event>
 4    1  0.1033139E-008  0.1017156E+04  0.7818608E-02  0.9289926E-01
          2   -1    0    0  501    0  0.00000000000E+00  0.00000000000E+00  0.22367799359E+04  0.22367799359E+04  0.25500000000E-02 0. -1.
         -2   -1    0    0    0  501 -0.00000000000E+00 -0.00000000000E+00 -0.60105592422E+03  0.60105592423E+03  0.25500000000E-02 0.  1.
    8880022    1    1    2    0    0 -0.10055679742E+04  0.68810445700E+01  0.13670747457E+03  0.10263015571E+04  0.15294330000E+03 0.  0.
    8880022    1    1    2    0    0  0.10055679742E+04 -0.68810445700E+01  0.14990165371E+04  0.18115343030E+04  0.15294330000E+03 0.  0.
<mgrwt>
<rscale>  0 0.10171558E+04</rscale>
<asrwt>0</asrwt>
<pdfrwt beam="1">  1        2 0.34411999E+00 0.10171558E+04</pdfrwt>
<pdfrwt beam="2">  1       -2 0.92470142E-01 0.10171558E+04</pdfrwt>
<totfact> 0.48981440E+00</totfact>
</mgrwt>
</event>
<event>
 4    1  0.1033139E-008  0.3224248E+03  0.7818608E-02  0.1074539E+00
          2   -1    0    0  501    0  0.00000000000E+00  0.00000000000E+00  0.35868501506E+03  0.35868501507E+03  0.25500000000E-02 0. -1.
         -2   -1    0    0    0  501 -0.00000000000E+00 -0.00000000000E+00 -0.47922451433E+03  0.47922451433E+03  0.25500000000E-02 0.  1.
    8880022    1    1    2    0    0 -0.24548851018E+03  0.14248331156E+03 -0.32364870464E+03  0.45684378045E+03  0.15294330000E+03 0.  0.
    8880022    1    1    2    0    0  0.24548851018E+03 -0.14248331156E+03  0.20310920537E+03  0.38106574896E+03  0.15294330000E+03 0.  0.
<mgrwt>
<rscale>  0 0.32242481E+03</rscale>
<asrwt>0</asrwt>
<pdfrwt beam="1">  1        2 0.55182310E-01 0.32242481E+03</pdfrwt>
<pdfrwt beam="2">  1       -2 0.73726849E-01 0.32242481E+03</pdfrwt>
<totfact> 0.15405742E+02</totfact>
</mgrwt>
</event>
<event>
 4    1  0.1033139E-008  0.1216489E+04  0.7818608E-02  0.9098545E-01
         -2   -1    0    0    0  501 -0.00000000000E+00  0.00000000000E+00  0.14768013820E+04  0.14768013820E+04  0.25500000000E-02 0.  1.
          2   -1    0    0  501    0  0.00000000000E+00 -0.00000000000E+00 -0.28923918857E+04  0.28923918857E+04  0.25500000000E-02 0. -1.
    8880022    1    1    2    0    0 -0.12048005735E+04  0.70074151038E+02  0.10582893325E+04  0.16123965929E+04  0.15294330000E+03 0.  0.
    8880022    1    1    2    0    0  0.12048005735E+04 -0.70074151038E+02 -0.24738798363E+04  0.27567966748E+04  0.15294330000E+03 0. -1.
<mgrwt>
<rscale>  0 0.12164894E+04</rscale>
<asrwt>0</asrwt>
<pdfrwt beam="1">  1        2 0.44498337E+00 0.12164894E+04</pdfrwt>
<pdfrwt beam="2">  1       -2 0.22720021E+00 0.12164894E+04</pdfrwt>
<totfact> 0.17700755E-01</totfact>
</mgrwt>
</event>
<event>
 4    1  0.1033139E-008  0.2970527E+03  0.7818608E-02  0.1086723E+00
         -2   -1    0    0    0  501 -0.00000000000E+00  0.00000000000E+00  0.10404428904E+04  0.10404428904E+04  0.25500000000E-02 0.  1.
          2   -1    0    0  501    0  0.00000000000E+00 -0.00000000000E+00 -0.17326671752E+04  0.17326671752E+04  0.25500000000E-02 0. -1.
    8880022    1    1    2    0    0  0.69790383573E+02  0.24490402721E+03  0.10060826972E+04  0.10490198887E+04  0.15294330000E+03 0.  0.
    8880022    1    1    2    0    0 -0.69790383573E+02 -0.24490402721E+03 -0.16983069820E+04  0.17240901770E+04  0.15294330000E+03 0.  0.
<mgrwt>
<rscale>  0 0.29705274E+03</rscale>
<asrwt>0</asrwt>
<pdfrwt beam="1">  1        2 0.26656418E+00 0.29705274E+03</pdfrwt>
<pdfrwt beam="2">  1       -2 0.16006814E+00 0.29705274E+03</pdfrwt>
<totfact> 0.27654847E+00</totfact>
</mgrwt>
</event>
<event>
 4    1  0.1033139E-008  0.7097805E+03  0.7818608E-02  0.9700651E-01
         -2   -1    0    0    0  501 -0.00000000000E+00  0.00000000000E+00  0.17043129994E+04  0.17043129994E+04  0.25500000000E-02 0.  1.
          2   -1    0    0  501    0  0.00000000000E+00 -0.00000000000E+00 -0.80619234937E+03  0.80619234938E+03  0.25500000000E-02 0. -1.
    8880022    1    1    2    0    0  0.16256439835E+03  0.67377258618E+03  0.14480261121E+04  0.16126276557E+04  0.15294330000E+03 0.  0.
    8880022    1    1    2    0    0 -0.16256439835E+03 -0.67377258618E+03 -0.54990546209E+03  0.89787769309E+03  0.15294330000E+03 0. -1.
<mgrwt>
<rscale>  0 0.70978048E+03</rscale>
<asrwt>0</asrwt>
<pdfrwt beam="1">  1        2 0.12402959E+00 0.70978048E+03</pdfrwt>
<pdfrwt beam="2">  1       -2 0.26220200E+00 0.70978048E+03</pdfrwt>
<totfact> 0.19208652E+00</totfact>
</mgrwt>
</event>
<event>
 4    1  0.1033139E-008  0.1563655E+04  0.7818608E-02  0.8843192E-01
          2   -1    0    0  501    0  0.00000000000E+00  0.00000000000E+00  0.17578699320E+04  0.17578699320E+04  0.25500000000E-02 0. -1.
         -2   -1    0    0    0  501 -0.00000000000E+00 -0.00000000000E+00 -0.18805862672E+04  0.18805862672E+04  0.25500000000E-02 0.  1.
    8880022    1    1    2    0    0  0.99846411268E+03 -0.11936062190E+04  0.86696738816E+03  0.17879179219E+04  0.15294330000E+03 0.  0.
    8880022    1    1    2    0    0 -0.99846411268E+03  0.11936062190E+04 -0.98968372343E+03  0.18505382773E+04  0.15294330000E+03 0.  0.
<mgrwt>
<rscale>  0 0.15636553E+04</rscale>
<asrwt>0</asrwt>
<pdfrwt beam="1">  1        2 0.27044153E+00 0.15636553E+04</pdfrwt>
<pdfrwt beam="2">  1       -2 0.28932097E+00 0.15636553E+04</pdfrwt>
<totfact> 0.31360588E-01</totfact>
</mgrwt>
</event>
<event>
 4    1  0.1033139E-008  0.1029121E+04  0.7818608E-02  0.9277169E-01
         -2   -1    0    0    0  501 -0.00000000000E+00  0.00000000000E+00  0.55440665739E+03  0.55440665740E+03  0.25500000000E-02 0.  1.
          2   -1    0    0  501    0  0.00000000000E+00 -0.00000000000E+00 -0.30913643744E+04  0.30913643744E+04  0.25500000000E-02 0. -1.
    8880022    1    1    2    0    0  0.13091787808E+02 -0.10176088209E+04 -0.14175233182E+03  0.10388380450E+04  0.15294330000E+03 0.  0.
    8880022    1    1    2    0    0 -0.13091787808E+02  0.10176088209E+04 -0.23952053852E+04  0.26069329867E+04  0.15294330000E+03 0.  0.
<mgrwt>
<rscale>  0 0.10291214E+04</rscale>
<asrwt>0</asrwt>
<pdfrwt beam="1">  1        2 0.47559451E+00 0.10291214E+04</pdfrwt>
<pdfrwt beam="2">  1       -2 0.85293334E-01 0.10291214E+04</pdfrwt>
<totfact> 0.18556243E+00</totfact>
</mgrwt>
</event>
<event>
 4    1  0.1033139E-008  0.5320135E+03  0.7818608E-02  0.1005745E+00
          2   -1    0    0  501    0  0.00000000000E+00  0.00000000000E+00  0.21161833998E+03  0.21161834000E+03  0.25500000000E-02 0. -1.
         -2   -1    0    0    0  501 -0.00000000000E+00 -0.00000000000E+00 -0.15179088629E+04  0.15179088629E+04  0.25500000000E-02 0.  1.
    8880022    1    1    2    0    0 -0.26194427290E+03  0.43707196786E+03 -0.95127832287E+03  0.10899398184E+04  0.15294330000E+03 0.  0.
    8880022    1    1    2    0    0  0.26194427290E+03 -0.43707196786E+03 -0.35501220006E+03  0.63958738450E+03  0.15294330000E+03 0.  0.
<mgrwt>
<rscale>  0 0.53201350E+03</rscale>
<asrwt>0</asrwt>
<pdfrwt beam="1">  1        2 0.32556669E-01 0.53201350E+03</pdfrwt>
<pdfrwt beam="2">  1       -2 0.23352443E+00 0.53201350E+03</pdfrwt>
<totfact> 0.13815114E+01</totfact>
</mgrwt>
</event>
<event>
 4    1  0.1033139E-008  0.1090668E+04  0.7818608E-02  0.9214336E-01
         -2   -1    0    0    0  501 -0.00000000000E+00  0.00000000000E+00  0.71279243579E+03  0.71279243579E+03  0.25500000000E-02 0.  1.
          2   -1    0    0  501    0  0.00000000000E+00 -0.00000000000E+00 -0.22485845550E+04  0.22485845550E+04  0.25500000000E-02 0. -1.
    8880022    1    1    2    0    0  0.32180486790E+03 -0.10308280762E+04 -0.16070806500E+02  0.10907863308E+04  0.15294330000E+03 0.  0.
    8880022    1    1    2    0    0 -0.32180486790E+03  0.10308280762E+04 -0.15197213127E+04  0.18705906599E+04  0.15294330000E+03 0.  0.
<mgrwt>
<rscale>  0 0.10906679E+04</rscale>
<asrwt>0</asrwt>
<pdfrwt beam="1">  1        2 0.34593608E+00 0.10906679E+04</pdfrwt>
<pdfrwt beam="2">  1       -2 0.10966038E+00 0.10906679E+04</pdfrwt>
<totfact> 0.31832652E+00</totfact>
</mgrwt>
</event>
<event>
 4    1  0.1033139E-008  0.4090839E+03  0.7818608E-02  0.1040679E+00
         -2   -1    0    0    0  501 -0.00000000000E+00  0.00000000000E+00  0.23123535461E+03  0.23123535462E+03  0.25500000000E-02 0.  1.
          2   -1    0    0  501    0  0.00000000000E+00 -0.00000000000E+00 -0.21012463231E+04  0.21012463231E+04  0.25500000000E-02 0. -1.
    8880022    1    1    2    0    0  0.37695573097E+03  0.43155164783E+02 -0.18792831542E+04  0.19232927021E+04  0.15294330000E+03 0.  0.
    8880022    1    1    2    0    0 -0.37695573097E+03 -0.43155164783E+02  0.92721856485E+01  0.40918897566E+03  0.15294330000E+03 0.  0.
<mgrwt>
<rscale>  0 0.40908391E+03</rscale>
<asrwt>0</asrwt>
<pdfrwt beam="1">  1        2 0.32326865E+00 0.40908391E+03</pdfrwt>
<pdfrwt beam="2">  1       -2 0.35574671E-01 0.40908391E+03</pdfrwt>
<totfact> 0.47621682E+01</totfact>
</mgrwt>
</event>
<event>
 4    1  0.1033139E-008  0.1517178E+04  0.7818608E-02  0.8873109E-01
         -2   -1    0    0    0  501 -0.00000000000E+00  0.00000000000E+00  0.40793196232E+04  0.40793196232E+04  0.25500000000E-02 0.  1.
          2   -1    0    0  501    0  0.00000000000E+00 -0.00000000000E+00 -0.10439373451E+04  0.10439373451E+04  0.25500000000E-02 0. -1.
    8880022    1    1    2    0    0 -0.84018722205E+03 -0.12540032544E+04  0.32540912851E+04  0.35903955875E+04  0.15294330000E+03 0.  0.
    8880022    1    1    2    0    0  0.84018722205E+03  0.12540032544E+04 -0.21870900703E+03  0.15328613808E+04  0.15294330000E+03 0. -1.
<mgrwt>
<rscale>  0 0.15171784E+04</rscale>
<asrwt>0</asrwt>
<pdfrwt beam="1">  1        2 0.16060575E+00 0.15171784E+04</pdfrwt>
<pdfrwt beam="2">  1       -2 0.62758763E+00 0.15171784E+04</pdfrwt>
<totfact> 0.86622244E-03</totfact>
</mgrwt>
</event>
<event>
 4    1  0.1033139E-008  0.1538620E+04  0.7818608E-02  0.8859170E-01
         -2   -1    0    0    0  501 -0.00000000000E+00  0.00000000000E+00  0.88986161166E+03  0.88986161166E+03  0.25500000000E-02 0.  1.
          2   -1    0    0  501    0  0.00000000000E+00 -0.00000000000E+00 -0.27627296540E+04  0.27627296540E+04  0.25500000000E-02 0. -1.
    8880022    1    1    2    0    0 -0.13839619577E+04  0.65468268299E+03 -0.12879852500E+04  0.20065537055E+04  0.15294330000E+03 0.  0.
    8880022    1    1    2    0    0  0.13839619577E+04 -0.65468268299E+03 -0.58488279235E+03  0.16460375602E+04  0.15294330000E+03 0.  0.
<mgrwt>
<rscale>  0 0.15386201E+04</rscale>
<asrwt>0</asrwt>
<pdfrwt beam="1">  1        2 0.42503533E+00 0.15386201E+04</pdfrwt>
<pdfrwt beam="2">  1       -2 0.13690179E+00 0.15386201E+04</pdfrwt>
<totfact> 0.87525753E-01</totfact>
</mgrwt>
</event>
<event>
 4    1  0.1033139E-008  0.8516822E+03  0.7818608E-02  0.9488082E-01
          2   -1    0    0  501    0  0.00000000000E+00  0.00000000000E+00  0.29094032622E+04  0.29094032622E+04  0.25500000000E-02 0. -1.
         -2   -1    0    0    0  501 -0.00000000000E+00 -0.00000000000E+00 -0.58325211355E+03  0.58325211356E+03  0.25500000000E-02 0.  1.
    8880022    1    1    2    0    0 -0.11201475243E+03 -0.83031539608E+03 -0.15830787882E+03  0.86627016527E+03  0.15294330000E+03 0.  0.
    8880022    1    1    2    0    0  0.11201475243E+03  0.83031539608E+03  0.24844590275E+04  0.26263852105E+04  0.15294330000E+03 0.  0.
<mgrwt>
<rscale>  0 0.85168223E+03</rscale>
<asrwt>0</asrwt>
<pdfrwt beam="1">  1        2 0.44760051E+00 0.85168223E+03</pdfrwt>
<pdfrwt beam="2">  1       -2 0.89731093E-01 0.85168223E+03</pdfrwt>
<totfact> 0.22012394E+00</totfact>
</mgrwt>
</event>
<event>
 4    1  0.1033139E-008  0.8584089E+03  0.7818608E-02  0.9479120E-01
         -2   -1    0    0    0  501 -0.00000000000E+00  0.00000000000E+00  0.11373040644E+04  0.11373040644E+04  0.25500000000E-02 0.  1.
          2   -1    0    0  501    0  0.00000000000E+00 -0.00000000000E+00 -0.14745134749E+04  0.14745134749E+04  0.25500000000E-02 0. -1.
    8880022    1    1    2    0    0 -0.72430571812E+03 -0.43457506279E+03  0.80916860731E+03  0.11796693378E+04  0.15294330000E+03 0.  0.
    8880022    1    1    2    0    0  0.72430571812E+03  0.43457506279E+03 -0.11463780177E+04  0.14321482015E+04  0.15294330000E+03 0.  0.
<mgrwt>
<rscale>  0 0.85840894E+03</rscale>
<asrwt>0</asrwt>
<pdfrwt beam="1">  1        2 0.22684823E+00 0.85840894E+03</pdfrwt>
<pdfrwt beam="2">  1       -2 0.17496986E+00 0.85840894E+03</pdfrwt>
<totfact> 0.26087749E+00</totfact>
</mgrwt>
</event>
<event>
 4    1  0.1033139E-008  0.3664921E+03  0.7818608E-02  0.1056042E+00
         -2   -1    0    0    0  501 -0.00000000000E+00  0.00000000000E+00  0.14844902205E+03  0.14844902208E+03  0.25500000000E-02 0.  1.
          2   -1    0    0  501    0  0.00000000000E+00 -0.00000000000E+00 -0.18298479176E+04  0.18298479176E+04  0.25500000000E-02 0. -1.
    8880022    1    1    2    0    0 -0.32251978144E+03  0.83101311454E+02 -0.15439926060E+04  0.15868930833E+04  0.15294330000E+03 0.  0.
    8880022    1    1    2    0    0  0.32251978144E+03 -0.83101311454E+02 -0.13740628957E+03  0.39140385641E+03  0.15294330000E+03 0.  0.
<mgrwt>
<rscale>  0 0.36649214E+03</rscale>
<asrwt>0</asrwt>
<pdfrwt beam="1">  1        2 0.28151505E+00 0.36649214E+03</pdfrwt>
<pdfrwt beam="2">  1       -2 0.22838312E-01 0.36649214E+03</pdfrwt>
<totfact> 0.15037092E+02</totfact>
</mgrwt>
</event>
<event>
 4    1  0.1033139E-008  0.5894103E+03  0.7818608E-02  0.9927623E-01
          2   -1    0    0  501    0  0.00000000000E+00  0.00000000000E+00  0.12857422103E+04  0.12857422103E+04  0.25500000000E-02 0. -1.
         -2   -1    0    0    0  501 -0.00000000000E+00 -0.00000000000E+00 -0.11533262944E+04  0.11533262944E+04  0.25500000000E-02 0.  1.
    8880022    1    1    2    0    0 -0.54469993433E+03  0.16527215619E+03  0.11333688101E+04  0.12774699279E+04  0.15294330000E+03 0.  0.
    8880022    1    1    2    0    0  0.54469993433E+03 -0.16527215619E+03 -0.10009528942E+04  0.11615985767E+04  0.15294330000E+03 0.  0.
<mgrwt>
<rscale>  0 0.58941035E+03</rscale>
<asrwt>0</asrwt>
<pdfrwt beam="1">  1        2 0.19780649E+00 0.58941035E+03</pdfrwt>
<pdfrwt beam="2">  1       -2 0.17743481E+00 0.58941035E+03</pdfrwt>
<totfact> 0.33579570E+00</totfact>
</mgrwt>
</event>
<event>
 4    1  0.1033139E-008  0.5378137E+03  0.7818608E-02  0.1004355E+00
          2   -1    0    0  501    0  0.00000000000E+00  0.00000000000E+00  0.10723188137E+04  0.10723188137E+04  0.25500000000E-02 0. -1.
         -2   -1    0    0    0  501 -0.00000000000E+00 -0.00000000000E+00 -0.94746385509E+03  0.94746385509E+03  0.25500000000E-02 0.  1.
    8880022    1    1    2    0    0  0.16201116354E+03  0.48949388672E+03 -0.79169632232E+03  0.95709278653E+03  0.15294330000E+03 0.  0.
    8880022    1    1    2    0    0 -0.16201116354E+03 -0.48949388672E+03  0.91655128090E+03  0.10626898822E+04  0.15294330000E+03 0.  0.
<mgrwt>
<rscale>  0 0.53781366E+03</rscale>
<asrwt>0</asrwt>
<pdfrwt beam="1">  1        2 0.16497212E+00 0.53781366E+03</pdfrwt>
<pdfrwt beam="2">  1       -2 0.14576367E+00 0.53781366E+03</pdfrwt>
<totfact> 0.77101513E+00</totfact>
</mgrwt>
</event>
<event>
 4    1  0.1033139E-008  0.5788871E+03  0.7818608E-02  0.9950203E-01
          2   -1    0    0  501    0  0.00000000000E+00  0.00000000000E+00  0.15608004338E+04  0.15608004338E+04  0.25500000000E-02 0. -1.
         -2   -1    0    0    0  501 -0.00000000000E+00 -0.00000000000E+00 -0.39017940792E+03  0.39017940793E+03  0.25500000000E-02 0.  1.
    8880022    1    1    2    0    0 -0.49111443207E+03  0.26556594490E+03  0.12394924902E+04  0.13680102130E+04  0.15294330000E+03 0.  0.
    8880022    1    1    2    0    0  0.49111443207E+03 -0.26556594490E+03 -0.68871464313E+02  0.58296962879E+03  0.15294330000E+03 0.  0.
<mgrwt>
<rscale>  0 0.57888713E+03</rscale>
<asrwt>0</asrwt>
<pdfrwt beam="1">  1        2 0.24012315E+00 0.57888713E+03</pdfrwt>
<pdfrwt beam="2">  1       -2 0.60027601E-01 0.57888713E+03</pdfrwt>
<totfact> 0.31797669E+01</totfact>
</mgrwt>
</event>
<event>
 4    1  0.1033139E-008  0.2470913E+03  0.7818608E-02  0.1115157E+00
          2   -1    0    0  501    0  0.00000000000E+00  0.00000000000E+00  0.24452634033E+04  0.24452634033E+04  0.25500000000E-02 0. -1.
         -2   -1    0    0    0  501 -0.00000000000E+00 -0.00000000000E+00 -0.92572912890E+03  0.92572912890E+03  0.25500000000E-02 0.  1.
    8880022    1    1    2    0    0  0.81021754353E+02 -0.17634600615E+03  0.24223778477E+04  0.24349473359E+04  0.15294330000E+03 0.  0.
    8880022    1    1    2    0    0 -0.81021754353E+02  0.17634600615E+03 -0.90284357332E+03  0.93604519628E+03  0.15294330000E+03 0.  1.
<mgrwt>
<rscale>  0 0.24709126E+03</rscale>
<asrwt>0</asrwt>
<pdfrwt beam="1">  1        2 0.37619436E+00 0.24709126E+03</pdfrwt>
<pdfrwt beam="2">  1       -2 0.14241987E+00 0.24709126E+03</pdfrwt>
<totfact> 0.16124778E+00</totfact>
</mgrwt>
</event>
<event>
 4    1  0.1033139E-008  0.7471765E+03  0.7818608E-02  0.9639790E-01
          2   -1    0    0  501    0  0.00000000000E+00  0.00000000000E+00  0.94718689547E+03  0.94718689547E+03  0.25500000000E-02 0. -1.
         -2   -1    0    0    0  501 -0.00000000000E+00 -0.00000000000E+00 -0.89097488454E+03  0.89097488454E+03  0.25500000000E-02 0.  1.
    8880022    1    1    2    0    0  0.72683231184E+03  0.81214769675E+02 -0.50660364676E+03  0.90272917106E+03  0.15294330000E+03 0.  0.
    8880022    1    1    2    0    0 -0.72683231184E+03 -0.81214769675E+02  0.56281565769E+03  0.93543260896E+03  0.15294330000E+03 0.  0.
<mgrwt>
<rscale>  0 0.74717649E+03</rscale>
<asrwt>0</asrwt>
<pdfrwt beam="1">  1        2 0.14572106E+00 0.74717649E+03</pdfrwt>
<pdfrwt beam="2">  1       -2 0.13707306E+00 0.74717649E+03</pdfrwt>
<totfact> 0.10523518E+01</totfact>
</mgrwt>
</event>
<event>
 4    1  0.1033139E-008  0.4144009E+03  0.7818608E-02  0.1038904E+00
         -2   -1    0    0    0  501 -0.00000000000E+00  0.00000000000E+00  0.95626079972E+02  0.95626080006E+02  0.25500000000E-02 0.  1.
          2   -1    0    0  501    0  0.00000000000E+00 -0.00000000000E+00 -0.26640067898E+04  0.26640067898E+04  0.25500000000E-02 0. -1.
    8880022    1    1    2    0    0 -0.37177866025E+03  0.10058385573E+03 -0.20718849320E+04  0.21129210370E+04  0.15294330000E+03 0.  0.
    8880022    1    1    2    0    0  0.37177866025E+03 -0.10058385573E+03 -0.49649577787E+03  0.64671183282E+03  0.15294330000E+03 0.  0.
<mgrwt>
<rscale>  0 0.41440094E+03</rscale>
<asrwt>0</asrwt>
<pdfrwt beam="1">  1        2 0.40984714E+00 0.41440094E+03</pdfrwt>
<pdfrwt beam="2">  1       -2 0.14711707E-01 0.41440094E+03</pdfrwt>
<totfact> 0.11116726E+02</totfact>
</mgrwt>
</event>
<event>
 4    1  0.1033139E-008  0.1110334E+04  0.7818608E-02  0.9195177E-01
          2   -1    0    0  501    0  0.00000000000E+00  0.00000000000E+00  0.19182820962E+04  0.19182820962E+04  0.25500000000E-02 0. -1.
         -2   -1    0    0    0  501 -0.00000000000E+00 -0.00000000000E+00 -0.12708764265E+04  0.12708764265E+04  0.25500000000E-02 0.  1.
    8880022    1    1    2    0    0 -0.10532048483E+04  0.31656023002E+03  0.14447967866E+04  0.18221636148E+04  0.15294330000E+03 0.  0.
    8880022    1    1    2    0    0  0.10532048483E+04 -0.31656023002E+03 -0.79739111690E+03  0.13669949078E+04  0.15294330000E+03 0.  1.
<mgrwt>
<rscale>  0 0.11103344E+04</rscale>
<asrwt>0</asrwt>
<pdfrwt beam="1">  1        2 0.29512032E+00 0.11103344E+04</pdfrwt>
<pdfrwt beam="2">  1       -2 0.19551945E+00 0.11103344E+04</pdfrwt>
<totfact> 0.10372681E+00</totfact>
</mgrwt>
</event>
<event>
 4    1  0.1033139E-008  0.4186235E+03  0.7818608E-02  0.1037515E+00
          2   -1    0    0  501    0  0.00000000000E+00  0.00000000000E+00  0.17219814304E+04  0.17219814304E+04  0.25500000000E-02 0. -1.
         -2   -1    0    0    0  501 -0.00000000000E+00 -0.00000000000E+00 -0.12872353380E+04  0.12872353380E+04  0.25500000000E-02 0.  1.
    8880022    1    1    2    0    0  0.33553891027E+03  0.19816053636E+03 -0.12265331409E+04  0.12960050761E+04  0.15294330000E+03 0.  0.
    8880022    1    1    2    0    0 -0.33553891027E+03 -0.19816053636E+03  0.16612792333E+04  0.17132116923E+04  0.15294330000E+03 0.  0.
<mgrwt>
<rscale>  0 0.41862347E+03</rscale>
<asrwt>0</asrwt>
<pdfrwt beam="1">  1        2 0.26492022E+00 0.41862347E+03</pdfrwt>
<pdfrwt beam="2">  1       -2 0.19803621E+00 0.41862347E+03</pdfrwt>
<totfact> 0.14742785E+00</totfact>
</mgrwt>
</event>
<event>
 4    1  0.1033139E-008  0.5372656E+03  0.7818608E-02  0.1004485E+00
          2   -1    0    0  501    0  0.00000000000E+00  0.00000000000E+00  0.14661142672E+04  0.14661142672E+04  0.25500000000E-02 0. -1.
         -2   -1    0    0    0  501 -0.00000000000E+00 -0.00000000000E+00 -0.52758005285E+03  0.52758005286E+03  0.25500000000E-02 0.  1.
    8880022    1    1    2    0    0  0.45904116565E+03  0.23354620914E+03 -0.31995450919E+03  0.62532004968E+03  0.15294330000E+03 0.  0.
    8880022    1    1    2    0    0 -0.45904116565E+03 -0.23354620914E+03  0.12584887236E+04  0.13683742704E+04  0.15294330000E+03 0.  0.
<mgrwt>
<rscale>  0 0.53726555E+03</rscale>
<asrwt>0</asrwt>
<pdfrwt beam="1">  1        2 0.22555604E+00 0.53726555E+03</pdfrwt>
<pdfrwt beam="2">  1       -2 0.81166163E-01 0.53726555E+03</pdfrwt>
<totfact> 0.18738368E+01</totfact>
</mgrwt>
</event>
<event>
 4    1  0.1033139E-008  0.4094208E+03  0.7818608E-02  0.1040566E+00
          2   -1    0    0  501    0  0.00000000000E+00  0.00000000000E+00  0.17196811958E+04  0.17196811958E+04  0.25500000000E-02 0. -1.
         -2   -1    0    0    0  501 -0.00000000000E+00 -0.00000000000E+00 -0.42613886495E+03  0.42613886495E+03  0.25500000000E-02 0.  1.
    8880022    1    1    2    0    0  0.35120302221E+03  0.14453435794E+03  0.15890163247E+04  0.16409138541E+04  0.15294330000E+03 0.  0.
    8880022    1    1    2    0    0 -0.35120302221E+03 -0.14453435794E+03 -0.29547399386E+03  0.50490620663E+03  0.15294330000E+03 0.  1.
<mgrwt>
<rscale>  0 0.40942081E+03</rscale>
<asrwt>0</asrwt>
<pdfrwt beam="1">  1        2 0.26456634E+00 0.40942081E+03</pdfrwt>
<pdfrwt beam="2">  1       -2 0.65559824E-01 0.40942081E+03</pdfrwt>
<totfact> 0.22348771E+01</totfact>
</mgrwt>
</event>
<event>
 4    1  0.1033139E-008  0.7527041E+03  0.7818608E-02  0.9631118E-01
         -2   -1    0    0    0  501 -0.00000000000E+00  0.00000000000E+00  0.84601181764E+03  0.84601181765E+03  0.25500000000E-02 0.  1.
          2   -1    0    0  501    0  0.00000000000E+00 -0.00000000000E+00 -0.11351746687E+04  0.11351746687E+04  0.25500000000E-02 0. -1.
    8880022    1    1    2    0    0 -0.41475115215E+03  0.60922349286E+03 -0.77891533769E+03  0.10831770579E+04  0.15294330000E+03 0.  0.
    8880022    1    1    2    0    0  0.41475115215E+03 -0.60922349286E+03  0.48975248661E+03  0.89800942847E+03  0.15294330000E+03 0.  0.
<mgrwt>
<rscale>  0 0.75270408E+03</rscale>
<asrwt>0</asrwt>
<pdfrwt beam="1">  1        2 0.17464226E+00 0.75270408E+03</pdfrwt>
<pdfrwt beam="2">  1       -2 0.13015566E+00 0.75270408E+03</pdfrwt>
<totfact> 0.91445035E+00</totfact>
</mgrwt>
</event>
<event>
 4    1  0.1033139E-008  0.5499734E+03  0.7818608E-02  0.1001500E+00
         -2   -1    0    0    0  501 -0.00000000000E+00  0.00000000000E+00  0.50331555775E+03  0.50331555776E+03  0.25500000000E-02 0.  1.
          2   -1    0    0  501    0  0.00000000000E+00 -0.00000000000E+00 -0.10001633342E+04  0.10001633342E+04  0.25500000000E-02 0. -1.
    8880022    1    1    2    0    0 -0.33502776067E+03  0.40845502695E+03  0.22650747658E+03  0.59479105527E+03  0.15294330000E+03 0.  0.
    8880022    1    1    2    0    0  0.33502776067E+03 -0.40845502695E+03 -0.72335525304E+03  0.90868783671E+03  0.15294330000E+03 0.  0.
<mgrwt>
<rscale>  0 0.54997342E+03</rscale>
<asrwt>0</asrwt>
<pdfrwt beam="1">  1        2 0.15387128E+00 0.54997342E+03</pdfrwt>
<pdfrwt beam="2">  1       -2 0.77433163E-01 0.54997342E+03</pdfrwt>
<totfact> 0.38870693E+01</totfact>
</mgrwt>
</event>
<event>
 4    1  0.1033139E-008  0.8267571E+03  0.7818608E-02  0.9522075E-01
          2   -1    0    0  501    0  0.00000000000E+00  0.00000000000E+00  0.29386471412E+04  0.29386471412E+04  0.25500000000E-02 0. -1.
         -2   -1    0    0    0  501 -0.00000000000E+00 -0.00000000000E+00 -0.10729414027E+04  0.10729414028E+04  0.25500000000E-02 0.  1.
    8880022    1    1    2    0    0  0.60098165815E+03 -0.54676940094E+03  0.27079676325E+04  0.28313629374E+04  0.15294330000E+03 0.  0.
    8880022    1    1    2    0    0 -0.60098165815E+03  0.54676940094E+03 -0.84226189407E+03  0.11802256066E+04  0.15294330000E+03 0.  0.
<mgrwt>
<rscale>  0 0.82675715E+03</rscale>
<asrwt>0</asrwt>
<pdfrwt beam="1">  1        2 0.45209955E+00 0.82675715E+03</pdfrwt>
<pdfrwt beam="2">  1       -2 0.16506791E+00 0.82675715E+03</pdfrwt>
<totfact> 0.46183865E-01</totfact>
</mgrwt>
</event>
<event>
 4    1  0.1033139E-008  0.1013295E+04  0.7818608E-02  0.9294082E-01
          2   -1    0    0  501    0  0.00000000000E+00  0.00000000000E+00  0.12783950157E+04  0.12783950157E+04  0.25500000000E-02 0. -1.
         -2   -1    0    0    0  501 -0.00000000000E+00 -0.00000000000E+00 -0.13561932775E+04  0.13561932775E+04  0.25500000000E-02 0.  1.
    8880022    1    1    2    0    0 -0.91181693122E+03  0.41468762464E+03 -0.88008885702E+03  0.13421341182E+04  0.15294330000E+03 0.  0.
    8880022    1    1    2    0    0  0.91181693122E+03 -0.41468762464E+03  0.80229059520E+03  0.12924541749E+04  0.15294330000E+03 0.  0.
<mgrwt>
<rscale>  0 0.10132954E+04</rscale>
<asrwt>0</asrwt>
<pdfrwt beam="1">  1        2 0.19667616E+00 0.10132954E+04</pdfrwt>
<pdfrwt beam="2">  1       -2 0.20864512E+00 0.10132954E+04</pdfrwt>
<totfact> 0.19713940E+00</totfact>
</mgrwt>
</event>
<event>
 4    1  0.1033139E-008  0.9199979E+03  0.7818608E-02  0.9400923E-01
         -2   -1    0    0    0  501 -0.00000000000E+00  0.00000000000E+00  0.67650037957E+03  0.67650037957E+03  0.25500000000E-02 0.  1.
          2   -1    0    0  501    0  0.00000000000E+00 -0.00000000000E+00 -0.18556051577E+04  0.18556051577E+04  0.25500000000E-02 0. -1.
    8880022    1    1    2    0    0 -0.56454857571E+03  0.71013338377E+03  0.13304257648E+03  0.92956790890E+03  0.15294330000E+03 0.  0.
    8880022    1    1    2    0    0  0.56454857571E+03 -0.71013338377E+03 -0.13121473546E+04  0.16025376283E+04  0.15294330000E+03 0.  0.
<mgrwt>
<rscale>  0 0.91999792E+03</rscale>
<asrwt>0</asrwt>
<pdfrwt beam="1">  1        2 0.28547771E+00 0.91999792E+03</pdfrwt>
<pdfrwt beam="2">  1       -2 0.10407698E+00 0.91999792E+03</pdfrwt>
<totfact> 0.60833119E+00</totfact>
</mgrwt>
</event>
<event>
 4    1  0.1033139E-008  0.6457212E+03  0.7818608E-02  0.9814841E-01
          2   -1    0    0  501    0  0.00000000000E+00  0.00000000000E+00  0.27824046129E+04  0.27824046129E+04  0.25500000000E-02 0. -1.
         -2   -1    0    0    0  501 -0.00000000000E+00 -0.00000000000E+00 -0.34887330150E+03  0.34887330151E+03  0.25500000000E-02 0.  1.
    8880022    1    1    2    0    0  0.58976073391E+03  0.21388417726E+03  0.34255665646E+02  0.64662915817E+03  0.15294330000E+03 0.  0.
    8880022    1    1    2    0    0 -0.58976073391E+03 -0.21388417726E+03  0.23992756457E+04  0.24846487562E+04  0.15294330000E+03 0.  0.
<mgrwt>
<rscale>  0 0.64572116E+03</rscale>
<asrwt>0</asrwt>
<pdfrwt beam="1">  1        2 0.42806225E+00 0.64572116E+03</pdfrwt>
<pdfrwt beam="2">  1       -2 0.53672816E-01 0.64572116E+03</pdfrwt>
<totfact> 0.83625306E+00</totfact>
</mgrwt>
</event>
<event>
 4    1  0.1033139E-008  0.2842625E+03  0.7818608E-02  0.1093383E+00
          2   -1    0    0  501    0  0.00000000000E+00  0.00000000000E+00  0.51553175736E+03  0.51553175737E+03  0.25500000000E-02 0. -1.
         -2   -1    0    0    0  501 -0.00000000000E+00 -0.00000000000E+00 -0.30200362324E+03  0.30200362325E+03  0.25500000000E-02 0.  1.
    8880022    1    1    2    0    0  0.46539402095E+01 -0.23956598082E+03 -0.17673185891E+03  0.33472275288E+03  0.15294330000E+03 0.  0.
    8880022    1    1    2    0    0 -0.46539402095E+01  0.23956598082E+03  0.39025999304E+03  0.48281262774E+03  0.15294330000E+03 0. -1.
<mgrwt>
<rscale>  0 0.28426250E+03</rscale>
<asrwt>0</asrwt>
<pdfrwt beam="1">  1        2 0.79312577E-01 0.28426250E+03</pdfrwt>
<pdfrwt beam="2">  1       -2 0.46462096E-01 0.28426250E+03</pdfrwt>
<totfact> 0.26928795E+02</totfact>
</mgrwt>
</event>
<event>
 4    1  0.1033139E-008  0.4236217E+03  0.7818608E-02  0.1035894E+00
          2   -1    0    0  501    0  0.00000000000E+00  0.00000000000E+00  0.14479982608E+04  0.14479982608E+04  0.25500000000E-02 0. -1.
         -2   -1    0    0    0  501 -0.00000000000E+00 -0.00000000000E+00 -0.20757339261E+03  0.20757339263E+03  0.25500000000E-02 0.  1.
    8880022    1    1    2    0    0  0.18634473182E+03  0.34833790128E+03  0.94752976996E+02  0.43408919845E+03  0.15294330000E+03 0.  1.
    8880022    1    1    2    0    0 -0.18634473182E+03 -0.34833790128E+03  0.11456718912E+04  0.12214824550E+04  0.15294330000E+03 0.  0.
<mgrwt>
<rscale>  0 0.42362165E+03</rscale>
<asrwt>0</asrwt>
<pdfrwt beam="1">  1        2 0.22276896E+00 0.42362165E+03</pdfrwt>
<pdfrwt beam="2">  1       -2 0.31934369E-01 0.42362165E+03</pdfrwt>
<totfact> 0.13048330E+02</totfact>
</mgrwt>
</event>
<event>
 4    1  0.1033139E-008  0.5017607E+03  0.7818608E-02  0.1013320E+00
         -2   -1    0    0    0  501 -0.00000000000E+00  0.00000000000E+00  0.35730434332E+03  0.35730434333E+03  0.25500000000E-02 0.  1.
          2   -1    0    0  501    0  0.00000000000E+00 -0.00000000000E+00 -0.31600259155E+04  0.31600259155E+04  0.25500000000E-02 0. -1.
    8880022    1    1    2    0    0 -0.46706596167E+03  0.10110152629E+03  0.14888114601E+03  0.52338263233E+03  0.15294330000E+03 0.  0.
    8880022    1    1    2    0    0  0.46706596167E+03 -0.10110152629E+03 -0.29516027182E+04  0.29939476265E+04  0.15294330000E+03 0.  0.
<mgrwt>
<rscale>  0 0.50176068E+03</rscale>
<asrwt>0</asrwt>
<pdfrwt beam="1">  1        2 0.48615781E+00 0.50176068E+03</pdfrwt>
<pdfrwt beam="2">  1       -2 0.54969901E-01 0.50176068E+03</pdfrwt>
<totfact> 0.48811635E+00</totfact>
</mgrwt>
</event>
<event>
 4    1  0.1033139E-008  0.4391475E+03  0.7818608E-02  0.1031009E+00
          2   -1    0    0  501    0  0.00000000000E+00  0.00000000000E+00  0.30439114113E+04  0.30439114113E+04  0.25500000000E-02 0. -1.
         -2   -1    0    0    0  501 -0.00000000000E+00 -0.00000000000E+00 -0.59061939867E+03  0.59061939868E+03  0.25500000000E-02 0.  1.
    8880022    1    1    2    0    0 -0.34911534863E+03  0.21812223071E+03 -0.49038547897E+03  0.65827684539E+03  0.15294330000E+03 0.  1.
    8880022    1    1    2    0    0  0.34911534863E+03 -0.21812223071E+03  0.29436774916E+04  0.29762539646E+04  0.15294330000E+03 0.  0.
<mgrwt>
<rscale>  0 0.43914745E+03</rscale>
<asrwt>0</asrwt>
<pdfrwt beam="1">  1        2 0.46829407E+00 0.43914745E+03</pdfrwt>
<pdfrwt beam="2">  1       -2 0.90864522E-01 0.43914745E+03</pdfrwt>
<totfact> 0.19711026E+00</totfact>
</mgrwt>
</event>
<event>
 4    1  0.1033139E-008  0.9631912E+03  0.7818608E-02  0.9349864E-01
          2   -1    0    0  501    0  0.00000000000E+00  0.00000000000E+00  0.14238609609E+04  0.14238609609E+04  0.25500000000E-02 0. -1.
         -2   -1    0    0    0  501 -0.00000000000E+00 -0.00000000000E+00 -0.12204069459E+04  0.12204069459E+04  0.25500000000E-02 0.  1.
    8880022    1    1    2    0    0 -0.55799599347E+03 -0.77005593792E+03 -0.80092239840E+03  0.12526827282E+04  0.15294330000E+03 0.  0.
    8880022    1    1    2    0    0  0.55799599347E+03  0.77005593792E+03  0.10043764134E+04  0.13915851786E+04  0.15294330000E+03 0.  0.
<mgrwt>
<rscale>  0 0.96319122E+03</rscale>
<asrwt>0</asrwt>
<pdfrwt beam="1">  1        2 0.21905553E+00 0.96319122E+03</pdfrwt>
<pdfrwt beam="2">  1       -2 0.18775492E+00 0.96319122E+03</pdfrwt>
<totfact> 0.22443621E+00</totfact>
</mgrwt>
</event>
<event>
 4    1  0.1033139E-008  0.2969042E+03  0.7818608E-02  0.1086798E+00
          2   -1    0    0  501    0  0.00000000000E+00  0.00000000000E+00  0.17320674661E+04  0.17320674661E+04  0.25500000000E-02 0. -1.
         -2   -1    0    0    0  501 -0.00000000000E+00 -0.00000000000E+00 -0.12436014905E+03  0.12436014907E+03  0.25500000000E-02 0.  1.
    8880022    1    1    2    0    0 -0.28022395160E+02  0.25293319499E+03  0.90424936926E+02  0.31036877741E+03  0.15294330000E+03 0.  0.
    8880022    1    1    2    0    0  0.28022395160E+02 -0.25293319499E+03  0.15172823801E+04  0.15460588378E+04  0.15294330000E+03 0.  1.
<mgrwt>
<rscale>  0 0.29690421E+03</rscale>
<asrwt>0</asrwt>
<pdfrwt beam="1">  1        2 0.26647190E+00 0.29690421E+03</pdfrwt>
<pdfrwt beam="2">  1       -2 0.19132332E-01 0.29690421E+03</pdfrwt>
<totfact> 0.23343113E+02</totfact>
</mgrwt>
</event>
<event>
 4    1  0.1033139E-008  0.3707139E+03  0.7818608E-02  0.1054420E+00
         -2   -1    0    0    0  501 -0.00000000000E+00  0.00000000000E+00  0.78766388339E+03  0.78766388339E+03  0.25500000000E-02 0.  1.
          2   -1    0    0  501    0  0.00000000000E+00 -0.00000000000E+00 -0.87734466038E+03  0.87734466039E+03  0.25500000000E-02 0. -1.
    8880022    1    1    2    0    0 -0.20025266377E+03  0.27191179725E+03  0.70030033464E+03  0.79236946341E+03  0.15294330000E+03 0.  0.
    8880022    1    1    2    0    0  0.20025266377E+03 -0.27191179725E+03 -0.78998111164E+03  0.87263908037E+03  0.15294330000E+03 0.  0.
<mgrwt>
<rscale>  0 0.37071392E+03</rscale>
<asrwt>0</asrwt>
<pdfrwt beam="1">  1        2 0.13497610E+00 0.37071392E+03</pdfrwt>
<pdfrwt beam="2">  1       -2 0.12117906E+00 0.37071392E+03</pdfrwt>
<totfact> 0.16905396E+01</totfact>
</mgrwt>
</event>
<event>
 4    1  0.1033139E-008  0.5431583E+03  0.7818608E-02  0.1003090E+00
         -2   -1    0    0    0  501 -0.00000000000E+00  0.00000000000E+00  0.45751126596E+03  0.45751126597E+03  0.25500000000E-02 0.  1.
          2   -1    0    0  501    0  0.00000000000E+00 -0.00000000000E+00 -0.13484371080E+04  0.13484371080E+04  0.25500000000E-02 0. -1.
    8880022    1    1    2    0    0 -0.12957595449E+03  0.50481618647E+03  0.20679958757E+03  0.58119448770E+03  0.15294330000E+03 0.  0.
    8880022    1    1    2    0    0  0.12957595449E+03 -0.50481618647E+03 -0.10977254296E+04  0.12247538862E+04  0.15294330000E+03 0.  0.
<mgrwt>
<rscale>  0 0.54315832E+03</rscale>
<asrwt>0</asrwt>
<pdfrwt beam="1">  1        2 0.20745186E+00 0.54315832E+03</pdfrwt>
<pdfrwt beam="2">  1       -2 0.70386349E-01 0.54315832E+03</pdfrwt>
<totfact> 0.29838475E+01</totfact>
</mgrwt>
</event>
<event>
 4    1  0.1033139E-008  0.3583616E+03  0.7818608E-02  0.1059234E+00
          2   -1    0    0  501    0  0.00000000000E+00  0.00000000000E+00  0.87700371629E+03  0.87700371629E+03  0.25500000000E-02 0. -1.
         -2   -1    0    0    0  501 -0.00000000000E+00 -0.00000000000E+00 -0.61334035086E+03  0.61334035086E+03  0.25500000000E-02 0.  1.
    8880022    1    1    2    0    0  0.26436920916E+03  0.18745756580E+03 -0.51832902257E+03  0.63014922549E+03  0.15294330000E+03 0.  0.
    8880022    1    1    2    0    0 -0.26436920916E+03 -0.18745756580E+03  0.78199238800E+03  0.86019484167E+03  0.15294330000E+03 0.  0.
<mgrwt>
<rscale>  0 0.35836165E+03</rscale>
<asrwt>0</asrwt>
<pdfrwt beam="1">  1        2 0.13492365E+00 0.35836165E+03</pdfrwt>
<pdfrwt beam="2">  1       -2 0.94360054E-01 0.35836165E+03</pdfrwt>
<totfact> 0.30749171E+01</totfact>
</mgrwt>
</event>
<event>
 4    1  0.1033139E-008  0.5094174E+03  0.7818608E-02  0.1011350E+00
          2   -1    0    0  501    0  0.00000000000E+00  0.00000000000E+00  0.11072765603E+04  0.11072765603E+04  0.25500000000E-02 0. -1.
         -2   -1    0    0    0  501 -0.00000000000E+00 -0.00000000000E+00 -0.69783790430E+03  0.69783790431E+03  0.25500000000E-02 0.  1.
    8880022    1    1    2    0    0 -0.46707551886E+03 -0.13399603423E+03 -0.53082688025E+03  0.73571958470E+03  0.15294330000E+03 0.  0.
    8880022    1    1    2    0    0  0.46707551886E+03  0.13399603423E+03  0.94026553622E+03  0.10693948799E+04  0.15294330000E+03 0.  0.
<mgrwt>
<rscale>  0 0.50941744E+03</rscale>
<asrwt>0</asrwt>
<pdfrwt beam="1">  1        2 0.17035024E+00 0.50941744E+03</pdfrwt>
<pdfrwt beam="2">  1       -2 0.10735968E+00 0.50941744E+03</pdfrwt>
<totfact> 0.15812418E+01</totfact>
</mgrwt>
</event>
<event>
 4    1  0.1033139E-008  0.5889149E+03  0.7818608E-02  0.9928675E-01
          2   -1    0    0  501    0  0.00000000000E+00  0.00000000000E+00  0.20151904224E+04  0.20151904224E+04  0.25500000000E-02 0. -1.
         -2   -1    0    0    0  501 -0.00000000000E+00 -0.00000000000E+00 -0.34160009294E+03  0.34160009295E+03  0.25500000000E-02 0.  1.
    8880022    1    1    2    0    0  0.31338720103E+03  0.47457093428E+03  0.67287544002E+01  0.58895334160E+03  0.15294330000E+03 0.  0.
    8880022    1    1    2    0    0 -0.31338720103E+03 -0.47457093428E+03  0.16668615751E+04  0.17678371737E+04  0.15294330000E+03 0.  0.
<mgrwt>
<rscale>  0 0.58891490E+03</rscale>
<asrwt>0</asrwt>
<pdfrwt beam="1">  1        2 0.31002930E+00 0.58891490E+03</pdfrwt>
<pdfrwt beam="2">  1       -2 0.52553860E-01 0.58891490E+03</pdfrwt>
<totfact> 0.23723438E+01</totfact>
</mgrwt>
</event>
<event>
 4    1  0.1033139E-008  0.9701538E+03  0.7818608E-02  0.9341899E-01
         -2   -1    0    0    0  501 -0.00000000000E+00  0.00000000000E+00  0.20367094364E+04  0.20367094364E+04  0.25500000000E-02 0.  1.
          2   -1    0    0  501    0  0.00000000000E+00 -0.00000000000E+00 -0.57641004728E+03  0.57641004728E+03  0.25500000000E-02 0. -1.
    8880022    1    1    2    0    0  0.12999633638E+03 -0.94916162448E+03  0.14835065324E+03  0.98143079541E+03  0.15294330000E+03 0.  0.
    8880022    1    1    2    0    0 -0.12999633638E+03  0.94916162448E+03  0.13119487359E+04  0.16316886883E+04  0.15294330000E+03 0.  0.
<mgrwt>
<rscale>  0 0.97015385E+03</rscale>
<asrwt>0</asrwt>
<pdfrwt beam="1">  1        2 0.88678470E-01 0.97015385E+03</pdfrwt>
<pdfrwt beam="2">  1       -2 0.31333991E+00 0.97015385E+03</pdfrwt>
<totfact> 0.13867560E+00</totfact>
</mgrwt>
</event>
<event>
 4    1  0.1033139E-008  0.5311252E+03  0.7818608E-02  0.1005960E+00
         -2   -1    0    0    0  501 -0.00000000000E+00  0.00000000000E+00  0.14747873273E+03  0.14747873276E+03  0.25500000000E-02 0.  1.
          2   -1    0    0  501    0  0.00000000000E+00 -0.00000000000E+00 -0.22577777998E+04  0.22577777998E+04  0.25500000000E-02 0. -1.
    8880022    1    1    2    0    0 -0.37444337856E+03  0.34423023270E+03 -0.15252609149E+04  0.16150897215E+04  0.15294330000E+03 0.  0.
    8880022    1    1    2    0    0  0.37444337856E+03 -0.34423023270E+03 -0.58503815217E+03  0.79016681109E+03  0.15294330000E+03 0.  0.
<mgrwt>
<rscale>  0 0.53112517E+03</rscale>
<asrwt>0</asrwt>
<pdfrwt beam="1">  1        2 0.34735041E+00 0.53112517E+03</pdfrwt>
<pdfrwt beam="2">  1       -2 0.22689037E-01 0.53112517E+03</pdfrwt>
<totfact> 0.86990035E+01</totfact>
</mgrwt>
</event>
<event>
 4    1  0.1033139E-008  0.3477780E+03  0.7818608E-02  0.1063531E+00
         -2   -1    0    0    0  501 -0.00000000000E+00  0.00000000000E+00  0.47435645014E+03  0.47435645015E+03  0.25500000000E-02 0.  1.
          2   -1    0    0  501    0  0.00000000000E+00 -0.00000000000E+00 -0.12619105716E+04  0.12619105716E+04  0.25500000000E-02 0. -1.
    8880022    1    1    2    0    0  0.28992207151E+03 -0.11620275084E+03  0.38170694320E+03  0.51638138072E+03  0.15294330000E+03 0.  0.
    8880022    1    1    2    0    0 -0.28992207151E+03  0.11620275084E+03 -0.11692610646E+04  0.12198856410E+04  0.15294330000E+03 0. -1.
<mgrwt>
<rscale>  0 0.34777800E+03</rscale>
<asrwt>0</asrwt>
<pdfrwt beam="1">  1        2 0.19414009E+00 0.34777800E+03</pdfrwt>
<pdfrwt beam="2">  1       -2 0.72977916E-01 0.34777800E+03</pdfrwt>
<totfact> 0.32012769E+01</totfact>
</mgrwt>
</event>
<event>
 4    1  0.1033139E-008  0.5807155E+03  0.7818608E-02  0.9946243E-01
          2   -1    0    0  501    0  0.00000000000E+00  0.00000000000E+00  0.31956809792E+04  0.31956809792E+04  0.25500000000E-02 0. -1.
         -2   -1    0    0    0  501 -0.00000000000E+00 -0.00000000000E+00 -0.53131752273E+03  0.53131752274E+03  0.25500000000E-02 0.  1.
    8880022    1    1    2    0    0 -0.55397701853E+03 -0.83356668277E+02  0.30003895943E+04  0.30560707193E+04  0.15294330000E+03 0.  0.
    8880022    1    1    2    0    0  0.55397701853E+03  0.83356668277E+02 -0.33602613778E+03  0.67092778262E+03  0.15294330000E+03 0.  0.
<mgrwt>
<rscale>  0 0.58071553E+03</rscale>
<asrwt>0</asrwt>
<pdfrwt beam="1">  1        2 0.49164324E+00 0.58071553E+03</pdfrwt>
<pdfrwt beam="2">  1       -2 0.81741155E-01 0.58071553E+03</pdfrwt>
<totfact> 0.19271611E+00</totfact>
</mgrwt>
</event>
<event>
 4    1  0.1033139E-008  0.9064364E+03  0.7818608E-02  0.9417571E-01
          2   -1    0    0  501    0  0.00000000000E+00  0.00000000000E+00  0.17435773555E+04  0.17435773555E+04  0.25500000000E-02 0. -1.
         -2   -1    0    0    0  501 -0.00000000000E+00 -0.00000000000E+00 -0.11248460415E+04  0.11248460415E+04  0.25500000000E-02 0.  1.
    8880022    1    1    2    0    0  0.69640120520E+03  0.55969695699E+03  0.14026367765E+04  0.16700350003E+04  0.15294330000E+03 0.  0.
    8880022    1    1    2    0    0 -0.69640120520E+03 -0.55969695699E+03 -0.78390546256E+03  0.11983883968E+04  0.15294330000E+03 0.  0.
<mgrwt>
<rscale>  0 0.90643642E+03</rscale>
<asrwt>0</asrwt>
<pdfrwt beam="1">  1        2 0.26824267E+00 0.90643642E+03</pdfrwt>
<pdfrwt beam="2">  1       -2 0.17305324E+00 0.90643642E+03</pdfrwt>
<totfact> 0.18953959E+00</totfact>
</mgrwt>
</event>
<event>
 4    1  0.1033139E-008  0.4421140E+03  0.7818608E-02  0.1030100E+00
          2   -1    0    0  501    0  0.00000000000E+00  0.00000000000E+00  0.65099885222E+03  0.65099885223E+03  0.25500000000E-02 0. -1.
         -2   -1    0    0    0  501 -0.00000000000E+00 -0.00000000000E+00 -0.11332359624E+04  0.11332359624E+04  0.25500000000E-02 0.  1.
    8880022    1    1    2    0    0  0.26905002470E+03  0.31572972140E+03 -0.10059746145E+04  0.10988401844E+04  0.15294330000E+03 0.  0.
    8880022    1    1    2    0    0 -0.26905002470E+03 -0.31572972140E+03  0.52373750431E+03  0.68539463027E+03  0.15294330000E+03 0.  0.
<mgrwt>
<rscale>  0 0.44211404E+03</rscale>
<asrwt>0</asrwt>
<pdfrwt beam="1">  1        2 0.10015367E+00 0.44211404E+03</pdfrwt>
<pdfrwt beam="2">  1       -2 0.17434399E+00 0.44211404E+03</pdfrwt>
<totfact> 0.94756049E+00</totfact>
</mgrwt>
</event>
<event>
 4    1  0.1033139E-008  0.4972059E+03  0.7818608E-02  0.1014511E+00
         -2   -1    0    0    0  501 -0.00000000000E+00  0.00000000000E+00  0.12570252887E+04  0.12570252887E+04  0.25500000000E-02 0.  1.
          2   -1    0    0  501    0  0.00000000000E+00 -0.00000000000E+00 -0.74279710812E+03  0.74279710812E+03  0.25500000000E-02 0. -1.
    8880022    1    1    2    0    0  0.20425960710E+03  0.42673185491E+03  0.11144971932E+04  0.12203760526E+04  0.15294330000E+03 0.  0.
    8880022    1    1    2    0    0 -0.20425960710E+03 -0.42673185491E+03 -0.60026901259E+03  0.77944634426E+03  0.15294330000E+03 0.  0.
<mgrwt>
<rscale>  0 0.49720591E+03</rscale>
<asrwt>0</asrwt>
<pdfrwt beam="1">  1        2 0.11427648E+00 0.49720591E+03</pdfrwt>
<pdfrwt beam="2">  1       -2 0.19338850E+00 0.49720591E+03</pdfrwt>
<totfact> 0.59288469E+00</totfact>
</mgrwt>
</event>
<event>
 4    1  0.1033139E-008  0.4913528E+03  0.7818608E-02  0.1016061E+00
          2   -1    0    0  501    0  0.00000000000E+00  0.00000000000E+00  0.19681477845E+04  0.19681477845E+04  0.25500000000E-02 0. -1.
         -2   -1    0    0    0  501 -0.00000000000E+00 -0.00000000000E+00 -0.30900520681E+03  0.30900520682E+03  0.25500000000E-02 0.  1.
    8880022    1    1    2    0    0 -0.21830509293E+03 -0.41276970054E+03 -0.54586532154E+02  0.49437564846E+03  0.15294330000E+03 0.  1.
    8880022    1    1    2    0    0  0.21830509293E+03  0.41276970054E+03  0.17137291099E+04  0.17827773429E+04  0.15294330000E+03 0.  0.
<mgrwt>
<rscale>  0 0.49135282E+03</rscale>
<asrwt>0</asrwt>
<pdfrwt beam="1">  1        2 0.30279198E+00 0.49135282E+03</pdfrwt>
<pdfrwt beam="2">  1       -2 0.47539261E-01 0.49135282E+03</pdfrwt>
<totfact> 0.31382320E+01</totfact>
</mgrwt>
</event>
<event>
 4    1  0.1033139E-008  0.1855211E+04  0.7818608E-02  0.8677478E-01
          2   -1    0    0  501    0  0.00000000000E+00  0.00000000000E+00  0.13189050426E+04  0.13189050426E+04  0.25500000000E-02 0. -1.
         -2   -1    0    0    0  501 -0.00000000000E+00 -0.00000000000E+00 -0.34424512808E+04  0.34424512808E+04  0.25500000000E-02 0.  1.
    8880022    1    1    2    0    0  0.17831228349E+04 -0.48876314788E+03  0.10921313810E+03  0.18584228856E+04  0.15294330000E+03 0.  0.
    8880022    1    1    2    0    0 -0.17831228349E+04  0.48876314788E+03 -0.22327593764E+04  0.29029334379E+04  0.15294330000E+03 0.  0.
<mgrwt>
<rscale>  0 0.18552111E+04</rscale>
<asrwt>0</asrwt>
<pdfrwt beam="1">  1        2 0.20290847E+00 0.18552111E+04</pdfrwt>
<pdfrwt beam="2">  1       -2 0.52960789E+00 0.18552111E+04</pdfrwt>
<totfact> 0.15845152E-02</totfact>
</mgrwt>
</event>
<event>
 4    1  0.1033139E-008  0.1716374E+03  0.7818608E-02  0.1176151E+00
          2   -1    0    0  501    0  0.00000000000E+00  0.00000000000E+00  0.55700384698E+03  0.55700384699E+03  0.25500000000E-02 0. -1.
         -2   -1    0    0    0  501 -0.00000000000E+00 -0.00000000000E+00 -0.11935289457E+03  0.11935289460E+03  0.25500000000E-02 0.  1.
    8880022    1    1    2    0    0 -0.34254670440E+02 -0.69959648113E+02  0.47118643914E+03  0.50147387595E+03  0.15294330000E+03 0. -1.
    8880022    1    1    2    0    0  0.34254670440E+02  0.69959648113E+02 -0.33535486731E+02  0.17488286565E+03  0.15294330000E+03 0. -1.
<mgrwt>
<rscale>  0 0.17163737E+03</rscale>
<asrwt>0</asrwt>
<pdfrwt beam="1">  1        2 0.85692901E-01 0.17163737E+03</pdfrwt>
<pdfrwt beam="2">  1       -2 0.18361984E-01 0.17163737E+03</pdfrwt>
<totfact> 0.13326261E+03</totfact>
</mgrwt>
</event>
<event>
 4    1  0.1033139E-008  0.7449099E+03  0.7818608E-02  0.9643370E-01
         -2   -1    0    0    0  501 -0.00000000000E+00  0.00000000000E+00  0.69728783769E+03  0.69728783770E+03  0.25500000000E-02 0.  1.
          2   -1    0    0  501    0  0.00000000000E+00 -0.00000000000E+00 -0.98703514023E+03  0.98703514024E+03  0.25500000000E-02 0. -1.
    8880022    1    1    2    0    0 -0.71536196743E+03  0.14055741058E+03  0.22583321790E+03  0.77839027835E+03  0.15294330000E+03 0.  0.
    8880022    1    1    2    0    0  0.71536196743E+03 -0.14055741058E+03 -0.51558052044E+03  0.90593269959E+03  0.15294330000E+03 0.  0.
<mgrwt>
<rscale>  0 0.74490992E+03</rscale>
<asrwt>0</asrwt>
<pdfrwt beam="1">  1        2 0.15185156E+00 0.74490992E+03</pdfrwt>
<pdfrwt beam="2">  1       -2 0.10727505E+00 0.74490992E+03</pdfrwt>
<totfact> 0.18231660E+01</totfact>
</mgrwt>
</event>
<event>
 4    1  0.1033139E-008  0.3656372E+03  0.7818608E-02  0.1056374E+00
         -2   -1    0    0    0  501 -0.00000000000E+00  0.00000000000E+00  0.24902931356E+03  0.24902931358E+03  0.25500000000E-02 0.  1.
          2   -1    0    0  501    0  0.00000000000E+00 -0.00000000000E+00 -0.14577412884E+04  0.14577412884E+04  0.25500000000E-02 0. -1.
    8880022    1    1    2    0    0 -0.17938953119E+03  0.27949656086E+03 -0.12826373329E+04  0.13337350232E+04  0.15294330000E+03 0. -1.
    8880022    1    1    2    0    0  0.17938953119E+03 -0.27949656086E+03  0.73925358059E+02  0.37303557875E+03  0.15294330000E+03 0.  0.
<mgrwt>
<rscale>  0 0.36563723E+03</rscale>
<asrwt>0</asrwt>
<pdfrwt beam="1">  1        2 0.22426789E+00 0.36563723E+03</pdfrwt>
<pdfrwt beam="2">  1       -2 0.38312203E-01 0.36563723E+03</pdfrwt>
<totfact> 0.92343081E+01</totfact>
</mgrwt>
</event>
<event>
 4    1  0.1033139E-008  0.6143194E+03  0.7818608E-02  0.9876135E-01
          2   -1    0    0  501    0  0.00000000000E+00  0.00000000000E+00  0.20515024516E+04  0.20515024516E+04  0.25500000000E-02 0. -1.
         -2   -1    0    0    0  501 -0.00000000000E+00 -0.00000000000E+00 -0.75113351873E+03  0.75113351874E+03  0.25500000000E-02 0.  1.
    8880022    1    1    2    0    0 -0.33508787084E+02  0.59403183699E+03 -0.56750691270E+03  0.83633271558E+03  0.15294330000E+03 0.  0.
    8880022    1    1    2    0    0  0.33508787084E+02 -0.59403183699E+03  0.18678758456E+04  0.19663032548E+04  0.15294330000E+03 0.  0.
<mgrwt>
<rscale>  0 0.61431939E+03</rscale>
<asrwt>0</asrwt>
<pdfrwt beam="1">  1        2 0.31561576E+00 0.61431939E+03</pdfrwt>
<pdfrwt beam="2">  1       -2 0.11555901E+00 0.61431939E+03</pdfrwt>
<totfact> 0.38808980E+00</totfact>
</mgrwt>
</event>
<event>
 4    1  0.1033139E-008  0.6260744E+03  0.7818608E-02  0.9852739E-01
          2   -1    0    0  501    0  0.00000000000E+00  0.00000000000E+00  0.14012993232E+04  0.14012993232E+04  0.25500000000E-02 0. -1.
         -2   -1    0    0    0  501 -0.00000000000E+00 -0.00000000000E+00 -0.49021257064E+03  0.49021257064E+03  0.25500000000E-02 0.  1.
    8880022    1    1    2    0    0  0.25049232471E+03  0.55302000520E+03 -0.16419288916E+03  0.64724685303E+03  0.15294330000E+03 0.  0.
    8880022    1    1    2    0    0 -0.25049232471E+03 -0.55302000520E+03  0.10752796417E+04  0.12442650408E+04  0.15294330000E+03 0.  0.
<mgrwt>
<rscale>  0 0.62607442E+03</rscale>
<asrwt>0</asrwt>
<pdfrwt beam="1">  1        2 0.21558451E+00 0.62607442E+03</pdfrwt>
<pdfrwt beam="2">  1       -2 0.75417319E-01 0.62607442E+03</pdfrwt>
<totfact> 0.23657300E+01</totfact>
</mgrwt>
</event>
<event>
 4    1  0.1033139E-008  0.5971574E+03  0.7818608E-02  0.9911321E-01
          2   -1    0    0  501    0  0.00000000000E+00  0.00000000000E+00  0.66060072371E+03  0.66060072372E+03  0.25500000000E-02 0. -1.
         -2   -1    0    0    0  501 -0.00000000000E+00 -0.00000000000E+00 -0.11495013295E+04  0.11495013295E+04  0.25500000000E-02 0.  1.
    8880022    1    1    2    0    0  0.52341417166E+03 -0.24339863919E+03  0.41468470269E+03  0.72702155973E+03  0.15294330000E+03 0.  0.
    8880022    1    1    2    0    0 -0.52341417166E+03  0.24339863919E+03 -0.90358530842E+03  0.10830804934E+04  0.15294330000E+03 0.  0.
<mgrwt>
<rscale>  0 0.59715739E+03</rscale>
<asrwt>0</asrwt>
<pdfrwt beam="1">  1        2 0.10163088E+00 0.59715739E+03</pdfrwt>
<pdfrwt beam="2">  1       -2 0.17684636E+00 0.59715739E+03</pdfrwt>
<totfact> 0.87187044E+00</totfact>
</mgrwt>
</event>
<event>
 4    1  0.1033139E-008  0.1098135E+04  0.7818608E-02  0.9207011E-01
          2   -1    0    0  501    0  0.00000000000E+00  0.00000000000E+00  0.18403868374E+04  0.18403868374E+04  0.25500000000E-02 0. -1.
         -2   -1    0    0    0  501 -0.00000000000E+00 -0.00000000000E+00 -0.78467858804E+03  0.78467858804E+03  0.25500000000E-02 0.  1.
    8880022    1    1    2    0    0 -0.83624361552E+03 -0.69513051357E+03  0.10609315450E+04  0.15269175523E+04  0.15294330000E+03 0.  0.
    8880022    1    1    2    0    0  0.83624361552E+03  0.69513051357E+03 -0.52232956586E+01  0.10981478731E+04  0.15294330000E+03 0.  0.
<mgrwt>
<rscale>  0 0.10981355E+04</rscale>
<asrwt>0</asrwt>
<pdfrwt beam="1">  1        2 0.28313644E+00 0.10981355E+04</pdfrwt>
<pdfrwt beam="2">  1       -2 0.12071978E+00 0.10981355E+04</pdfrwt>
<totfact> 0.42264853E+00</totfact>
</mgrwt>
</event>
<event>
 4    1  0.1033139E-008  0.1079079E+04  0.7818608E-02  0.9225826E-01
          2   -1    0    0  501    0  0.00000000000E+00  0.00000000000E+00  0.32549008320E+04  0.32549008320E+04  0.25500000000E-02 0. -1.
         -2   -1    0    0    0  501 -0.00000000000E+00 -0.00000000000E+00 -0.10665113565E+04  0.10665113565E+04  0.25500000000E-02 0.  1.
    8880022    1    1    2    0    0 -0.27067270302E+03  0.10333227751E+04  0.28556261705E+04  0.30527057094E+04  0.15294330000E+03 0.  0.
    8880022    1    1    2    0    0  0.27067270302E+03 -0.10333227751E+04 -0.66723669509E+03  0.12687064790E+04  0.15294330000E+03 0.  0.
<mgrwt>
<rscale>  0 0.10790789E+04</rscale>
<asrwt>0</asrwt>
<pdfrwt beam="1">  1        2 0.50075397E+00 0.10790789E+04</pdfrwt>
<pdfrwt beam="2">  1       -2 0.16407867E+00 0.10790789E+04</pdfrwt>
<totfact> 0.28299195E-01</totfact>
</mgrwt>
</event>
<event>
 4    1  0.1033139E-008  0.4200443E+03  0.7818608E-02  0.1037052E+00
         -2   -1    0    0    0  501 -0.00000000000E+00  0.00000000000E+00  0.66516873499E+03  0.66516873500E+03  0.25500000000E-02 0.  1.
          2   -1    0    0  501    0  0.00000000000E+00 -0.00000000000E+00 -0.41432059829E+03  0.41432059830E+03  0.25500000000E-02 0. -1.
    8880022    1    1    2    0    0  0.39103305309E+03  0.11778705533E+02  0.44917676544E+03  0.61497724034E+03  0.15294330000E+03 0.  0.
    8880022    1    1    2    0    0 -0.39103305309E+03 -0.11778705533E+02 -0.19832862873E+03  0.46451209296E+03  0.15294330000E+03 0.  0.
<mgrwt>
<rscale>  0 0.42004433E+03</rscale>
<asrwt>0</asrwt>
<pdfrwt beam="1">  1        2 0.63741631E-01 0.42004433E+03</pdfrwt>
<pdfrwt beam="2">  1       -2 0.10233365E+00 0.42004433E+03</pdfrwt>
<totfact> 0.61952008E+01</totfact>
</mgrwt>
</event>
<event>
 4    1  0.1033139E-008  0.7460876E+03  0.7818608E-02  0.9641508E-01
          2   -1    0    0  501    0  0.00000000000E+00  0.00000000000E+00  0.23428331623E+04  0.23428331623E+04  0.25500000000E-02 0. -1.
         -2   -1    0    0    0  501 -0.00000000000E+00 -0.00000000000E+00 -0.66179077950E+03  0.66179077951E+03  0.25500000000E-02 0.  1.
    8880022    1    1    2    0    0 -0.16655606309E+03  0.71099517480E+03 -0.36224902764E+03  0.82937993211E+03  0.15294330000E+03 0.  0.
    8880022    1    1    2    0    0  0.16655606309E+03 -0.71099517480E+03  0.20432914105E+04  0.21752440097E+04  0.15294330000E+03 0.  0.
<mgrwt>
<rscale>  0 0.74608760E+03</rscale>
<asrwt>0</asrwt>
<pdfrwt beam="1">  1        2 0.36043586E+00 0.74608760E+03</pdfrwt>
<pdfrwt beam="2">  1       -2 0.10181397E+00 0.74608760E+03</pdfrwt>
<totfact> 0.35490525E+00</totfact>
</mgrwt>
</event>
<event>
 4    1  0.1033139E-008  0.3485182E+03  0.7818608E-02  0.1063225E+00
         -2   -1    0    0    0  501 -0.00000000000E+00  0.00000000000E+00  0.49885507768E+03  0.49885507769E+03  0.25500000000E-02 0.  1.
          2   -1    0    0  501    0  0.00000000000E+00 -0.00000000000E+00 -0.15649040211E+04  0.15649040211E+04  0.25500000000E-02 0. -1.
    8880022    1    1    2    0    0 -0.28698458888E+03 -0.12535195704E+03  0.41518663157E+03  0.54207458844E+03  0.15294330000E+03 0.  0.
    8880022    1    1    2    0    0  0.28698458888E+03  0.12535195704E+03 -0.14812355750E+04  0.15216845103E+04  0.15294330000E+03 0.  0.
<mgrwt>
<rscale>  0 0.34851818E+03</rscale>
<asrwt>0</asrwt>
<pdfrwt beam="1">  1        2 0.24075446E+00 0.34851818E+03</pdfrwt>
<pdfrwt beam="2">  1       -2 0.76746935E-01 0.34851818E+03</pdfrwt>
<totfact> 0.19534716E+01</totfact>
</mgrwt>
</event>
<event>
 4    1  0.1033139E-008  0.6314809E+03  0.7818608E-02  0.9842163E-01
         -2   -1    0    0    0  501 -0.00000000000E+00  0.00000000000E+00  0.14295752413E+03  0.14295752416E+03  0.25500000000E-02 0.  1.
          2   -1    0    0  501    0  0.00000000000E+00 -0.00000000000E+00 -0.41811927271E+04  0.41811927271E+04  0.25500000000E-02 0. -1.
    8880022    1    1    2    0    0 -0.60035450159E+03 -0.12227408772E+03 -0.77171877095E+03  0.99715495013E+03  0.15294330000E+03 0.  0.
    8880022    1    1    2    0    0  0.60035450159E+03  0.12227408772E+03 -0.32665164320E+04  0.33269953011E+04  0.15294330000E+03 0.  0.
<mgrwt>
<rscale>  0 0.63148090E+03</rscale>
<asrwt>0</asrwt>
<pdfrwt beam="1">  1        2 0.64326033E+00 0.63148090E+03</pdfrwt>
<pdfrwt beam="2">  1       -2 0.21993468E-01 0.63148090E+03</pdfrwt>
<totfact> 0.49911148E+00</totfact>
</mgrwt>
</event>
<event>
 4    1  0.1033139E-008  0.4623935E+03  0.7818608E-02  0.1024089E+00
          2   -1    0    0  501    0  0.00000000000E+00  0.00000000000E+00  0.82669390901E+03  0.82669390902E+03  0.25500000000E-02 0. -1.
         -2   -1    0    0    0  501 -0.00000000000E+00 -0.00000000000E+00 -0.67707254066E+03  0.67707254067E+03  0.25500000000E-02 0.  1.
    8880022    1    1    2    0    0  0.13438962501E+03  0.41515725714E+03 -0.51627542880E+03  0.69307149045E+03  0.15294330000E+03 0.  0.
    8880022    1    1    2    0    0 -0.13438962501E+03 -0.41515725714E+03  0.66589679715E+03  0.81069495924E+03  0.15294330000E+03 0. -1.
<mgrwt>
<rscale>  0 0.46239353E+03</rscale>
<asrwt>0</asrwt>
<pdfrwt beam="1">  1        2 0.12718368E+00 0.46239353E+03</pdfrwt>
<pdfrwt beam="2">  1       -2 0.10416501E+00 0.46239353E+03</pdfrwt>
<totfact> 0.25925164E+01</totfact>
</mgrwt>
</event>
<event>
 4    1  0.1033139E-008  0.9195615E+03  0.7818608E-02  0.9401454E-01
          2   -1    0    0  501    0  0.00000000000E+00  0.00000000000E+00  0.35327397066E+04  0.35327397066E+04  0.25500000000E-02 0. -1.
         -2   -1    0    0    0  501 -0.00000000000E+00 -0.00000000000E+00 -0.33645019078E+03  0.33645019079E+03  0.25500000000E-02 0.  1.
    8880022    1    1    2    0    0  0.40433069755E+03 -0.81161466137E+03  0.55889628302E+03  0.10760847456E+04  0.15294330000E+03 0.  0.
    8880022    1    1    2    0    0 -0.40433069755E+03  0.81161466137E+03  0.26373932328E+04  0.27931051518E+04  0.15294330000E+03 0.  0.
<mgrwt>
<rscale>  0 0.91956148E+03</rscale>
<asrwt>0</asrwt>
<pdfrwt beam="1">  1        2 0.54349841E+00 0.91956148E+03</pdfrwt>
<pdfrwt beam="2">  1       -2 0.51761568E-01 0.91956148E+03</pdfrwt>
<totfact> 0.28596279E+00</totfact>
</mgrwt>
</event>
<event>
 4    1  0.1033139E-008  0.3635219E+03  0.7818608E-02  0.1057198E+00
          2   -1    0    0  501    0  0.00000000000E+00  0.00000000000E+00  0.17824483175E+04  0.17824483175E+04  0.25500000000E-02 0. -1.
         -2   -1    0    0    0  501 -0.00000000000E+00 -0.00000000000E+00 -0.11129974961E+04  0.11129974962E+04  0.25500000000E-02 0.  1.
    8880022    1    1    2    0    0 -0.13113670481E+02  0.32952175142E+03  0.17333998429E+04  0.17711079079E+04  0.15294330000E+03 0. -1.
    8880022    1    1    2    0    0  0.13113670481E+02 -0.32952175142E+03 -0.10639490215E+04  0.11243379058E+04  0.15294330000E+03 0.  0.
<mgrwt>
<rscale>  0 0.36352195E+03</rscale>
<asrwt>0</asrwt>
<pdfrwt beam="1">  1        2 0.27422281E+00 0.36352195E+03</pdfrwt>
<pdfrwt beam="2">  1       -2 0.17123039E+00 0.36352195E+03</pdfrwt>
<totfact> 0.21095408E+00</totfact>
</mgrwt>
</event>
<event>
 4    1  0.1033139E-008  0.1049319E+04  0.7818608E-02  0.9256047E-01
         -2   -1    0    0    0  501 -0.00000000000E+00  0.00000000000E+00  0.40886901699E+03  0.40886901700E+03  0.25500000000E-02 0.  1.
          2   -1    0    0  501    0  0.00000000000E+00 -0.00000000000E+00 -0.31478711251E+04  0.31478711251E+04  0.25500000000E-02 0. -1.
    8880022    1    1    2    0    0 -0.89453373172E+03 -0.52677125743E+03 -0.69345814354E+03  0.12577576892E+04  0.15294330000E+03 0.  0.
    8880022    1    1    2    0    0  0.89453373172E+03  0.52677125743E+03 -0.20455439646E+04  0.22989824530E+04  0.15294330000E+03 0.  0.
<mgrwt>
<rscale>  0 0.10493189E+04</rscale>
<asrwt>0</asrwt>
<pdfrwt beam="1">  1        2 0.48428785E+00 0.10493189E+04</pdfrwt>
<pdfrwt beam="2">  1       -2 0.62902928E-01 0.10493189E+04</pdfrwt>
<totfact> 0.33456628E+00</totfact>
</mgrwt>
</event>
<event>
 4    1  0.1033139E-008  0.4212652E+03  0.7818608E-02  0.1036655E+00
         -2   -1    0    0    0  501 -0.00000000000E+00  0.00000000000E+00  0.29472887632E+03  0.29472887634E+03  0.25500000000E-02 0.  1.
          2   -1    0    0  501    0  0.00000000000E+00 -0.00000000000E+00 -0.17228741815E+04  0.17228741815E+04  0.25500000000E-02 0. -1.
    8880022    1    1    2    0    0  0.36558970944E+03  0.14288774826E+03  0.99568034044E+02  0.43287202574E+03  0.15294330000E+03 0.  0.
    8880022    1    1    2    0    0 -0.36558970944E+03 -0.14288774826E+03 -0.15277133393E+04  0.15847310321E+04  0.15294330000E+03 0. -1.
<mgrwt>
<rscale>  0 0.42126523E+03</rscale>
<asrwt>0</asrwt>
<pdfrwt beam="1">  1        2 0.26505756E+00 0.42126523E+03</pdfrwt>
<pdfrwt beam="2">  1       -2 0.45342905E-01 0.42126523E+03</pdfrwt>
<totfact> 0.47341026E+01</totfact>
</mgrwt>
</event>
<event>
 4    1  0.1033139E-008  0.6190554E+03  0.7818608E-02  0.9866642E-01
          2   -1    0    0  501    0  0.00000000000E+00  0.00000000000E+00  0.87047787812E+03  0.87047787813E+03  0.25500000000E-02 0. -1.
         -2   -1    0    0    0  501 -0.00000000000E+00 -0.00000000000E+00 -0.14484794938E+04  0.14484794938E+04  0.25500000000E-02 0.  1.
    8880022    1    1    2    0    0  0.54816602284E+03  0.24362243280E+03 -0.12563558190E+04  0.14005925444E+04  0.15294330000E+03 0.  0.
    8880022    1    1    2    0    0 -0.54816602284E+03 -0.24362243280E+03  0.67835420332E+03  0.91836482758E+03  0.15294330000E+03 0.  0.
<mgrwt>
<rscale>  0 0.61905535E+03</rscale>
<asrwt>0</asrwt>
<pdfrwt beam="1">  1        2 0.13391967E+00 0.61905535E+03</pdfrwt>
<pdfrwt beam="2">  1       -2 0.22284300E+00 0.61905535E+03</pdfrwt>
<totfact> 0.30558297E+00</totfact>
</mgrwt>
</event>
<event>
 4    1  0.1033139E-008  0.7726024E+03  0.7818608E-02  0.9600543E-01
         -2   -1    0    0    0  501 -0.00000000000E+00  0.00000000000E+00  0.14756495325E+04  0.14756495325E+04  0.25500000000E-02 0.  1.
          2   -1    0    0  501    0  0.00000000000E+00 -0.00000000000E+00 -0.13890245153E+04  0.13890245153E+04  0.25500000000E-02 0. -1.
    8880022    1    1    2    0    0  0.75160074241E+03  0.92839283750E+02 -0.11625600263E+04  0.13958725860E+04  0.15294330000E+03 0.  0.
    8880022    1    1    2    0    0 -0.75160074241E+03 -0.92839283750E+02  0.12491850435E+04  0.14688014619E+04  0.15294330000E+03 0.  0.
<mgrwt>
<rscale>  0 0.77260240E+03</rscale>
<asrwt>0</asrwt>
<pdfrwt beam="1">  1        2 0.21369608E+00 0.77260240E+03</pdfrwt>
<pdfrwt beam="2">  1       -2 0.22702300E+00 0.77260240E+03</pdfrwt>
<totfact> 0.13509733E+00</totfact>
</mgrwt>
</event>
<event>
 4    1  0.1033139E-008  0.1008935E+04  0.7818608E-02  0.9298799E-01
         -2   -1    0    0    0  501 -0.00000000000E+00  0.00000000000E+00  0.75968017893E+03  0.75968017893E+03  0.25500000000E-02 0.  1.
          2   -1    0    0  501    0  0.00000000000E+00 -0.00000000000E+00 -0.18194982144E+04  0.18194982144E+04  0.25500000000E-02 0. -1.
    8880022    1    1    2    0    0  0.48516396451E+03 -0.87130636481E+03  0.13212688890E+03  0.10175500094E+04  0.15294330000E+03 0.  0.
    8880022    1    1    2    0    0 -0.48516396451E+03  0.87130636481E+03 -0.11919449243E+04  0.15616283839E+04  0.15294330000E+03 0.  0.
<mgrwt>
<rscale>  0 0.10089353E+04</rscale>
<asrwt>0</asrwt>
<pdfrwt beam="1">  1        2 0.27992280E+00 0.10089353E+04</pdfrwt>
<pdfrwt beam="2">  1       -2 0.11687387E+00 0.10089353E+04</pdfrwt>
<totfact> 0.47511373E+00</totfact>
</mgrwt>
</event>
<event>
 4    1  0.1033139E-008  0.5515317E+03  0.7818608E-02  0.1001140E+00
          2   -1    0    0  501    0  0.00000000000E+00  0.00000000000E+00  0.27319620653E+04  0.27319620653E+04  0.25500000000E-02 0. -1.
         -2   -1    0    0    0  501 -0.00000000000E+00 -0.00000000000E+00 -0.17528496999E+03  0.17528497001E+03  0.25500000000E-02 0.  1.
    8880022    1    1    2    0    0  0.52112170525E+03  0.96060989361E+02  0.21562883616E+04  0.22257058873E+04  0.15294330000E+03 0.  0.
    8880022    1    1    2    0    0 -0.52112170525E+03 -0.96060989361E+02  0.40038873373E+03  0.68154114804E+03  0.15294330000E+03 0.  0.
<mgrwt>
<rscale>  0 0.55153168E+03</rscale>
<asrwt>0</asrwt>
<pdfrwt beam="1">  1        2 0.42030185E+00 0.55153168E+03</pdfrwt>
<pdfrwt beam="2">  1       -2 0.26966919E-01 0.55153168E+03</pdfrwt>
<totfact> 0.34441381E+01</totfact>
</mgrwt>
</event>
<event>
 4    1  0.1033139E-008  0.9379739E+03  0.7818608E-02  0.9379319E-01
          2   -1    0    0  501    0  0.00000000000E+00  0.00000000000E+00  0.11264810778E+04  0.11264810778E+04  0.25500000000E-02 0. -1.
         -2   -1    0    0    0  501 -0.00000000000E+00 -0.00000000000E+00 -0.13186488780E+04  0.13186488781E+04  0.25500000000E-02 0.  1.
    8880022    1    1    2    0    0 -0.83318281388E+03 -0.40275277455E+03  0.68455818079E+03  0.11612127086E+04  0.15294330000E+03 0.  0.
    8880022    1    1    2    0    0  0.83318281388E+03  0.40275277455E+03 -0.87672598107E+03  0.12839172472E+04  0.15294330000E+03 0.  0.
<mgrwt>
<rscale>  0 0.93797391E+03</rscale>
<asrwt>0</asrwt>
<pdfrwt beam="1">  1        2 0.17330478E+00 0.93797391E+03</pdfrwt>
<pdfrwt beam="2">  1       -2 0.20286906E+00 0.93797391E+03</pdfrwt>
<totfact> 0.26721385E+00</totfact>
</mgrwt>
</event>
<event>
 4    1  0.1033139E-008  0.5792004E+03  0.7818608E-02  0.9949524E-01
         -2   -1    0    0    0  501 -0.00000000000E+00  0.00000000000E+00  0.56738985976E+03  0.56738985977E+03  0.25500000000E-02 0.  1.
          2   -1    0    0  501    0  0.00000000000E+00 -0.00000000000E+00 -0.10190650206E+04  0.10190650206E+04  0.25500000000E-02 0. -1.
    8880022    1    1    2    0    0 -0.14818490054E+03 -0.53863037119E+03  0.28811300039E+03  0.64690199839E+03  0.15294330000E+03 0.  1.
    8880022    1    1    2    0    0  0.14818490054E+03  0.53863037119E+03 -0.73978816122E+03  0.93955288197E+03  0.15294330000E+03 0.  0.
<mgrwt>
<rscale>  0 0.57920039E+03</rscale>
<asrwt>0</asrwt>
<pdfrwt beam="1">  1        2 0.15677923E+00 0.57920039E+03</pdfrwt>
<pdfrwt beam="2">  1       -2 0.87290748E-01 0.57920039E+03</pdfrwt>
<totfact> 0.28768114E+01</totfact>
</mgrwt>
</event>
<event>
 4    1  0.1033139E-008  0.3827406E+03  0.7818608E-02  0.1049925E+00
         -2   -1    0    0    0  501 -0.00000000000E+00  0.00000000000E+00  0.24931823108E+03  0.24931823109E+03  0.25500000000E-02 0.  1.
          2   -1    0    0  501    0  0.00000000000E+00 -0.00000000000E+00 -0.23775009124E+04  0.23775009124E+04  0.25500000000E-02 0. -1.
    8880022    1    1    2    0    0 -0.24043110494E+03  0.25552219785E+03  0.75525135212E+02  0.39012101825E+03  0.15294330000E+03 0.  0.
    8880022    1    1    2    0    0  0.24043110494E+03 -0.25552219785E+03 -0.22037078165E+04  0.22366981252E+04  0.15294330000E+03 0.  0.
<mgrwt>
<rscale>  0 0.38274059E+03</rscale>
<asrwt>0</asrwt>
<pdfrwt beam="1">  1        2 0.36576936E+00 0.38274059E+03</pdfrwt>
<pdfrwt beam="2">  1       -2 0.38356653E-01 0.38274059E+03</pdfrwt>
<totfact> 0.29445191E+01</totfact>
</mgrwt>
</event>
<event>
 4    1  0.1033139E-008  0.7092804E+03  0.7818608E-02  0.9701492E-01
          2   -1    0    0  501    0  0.00000000000E+00  0.00000000000E+00  0.18034242052E+04  0.18034242053E+04  0.25500000000E-02 0. -1.
         -2   -1    0    0    0  501 -0.00000000000E+00 -0.00000000000E+00 -0.62502288528E+03  0.62502288529E+03  0.25500000000E-02 0.  1.
    8880022    1    1    2    0    0 -0.35781392761E+03 -0.59300603414E+03  0.14927040847E+04  0.16526476034E+04  0.15294330000E+03 0.  0.
    8880022    1    1    2    0    0  0.35781392761E+03  0.59300603414E+03 -0.31430276477E+03  0.77579948716E+03  0.15294330000E+03 0.  1.
<mgrwt>
<rscale>  0 0.70928035E+03</rscale>
<asrwt>0</asrwt>
<pdfrwt beam="1">  1        2 0.27744988E+00 0.70928035E+03</pdfrwt>
<pdfrwt beam="2">  1       -2 0.96157367E-01 0.70928035E+03</pdfrwt>
<totfact> 0.80750610E+00</totfact>
</mgrwt>
</event>
<event>
 4    1  0.1033139E-008  0.3352311E+03  0.7818608E-02  0.1068845E+00
          2   -1    0    0  501    0  0.00000000000E+00  0.00000000000E+00  0.21455567080E+04  0.21455567080E+04  0.25500000000E-02 0. -1.
         -2   -1    0    0    0  501 -0.00000000000E+00 -0.00000000000E+00 -0.19551172669E+03  0.19551172671E+03  0.25500000000E-02 0.  1.
    8880022    1    1    2    0    0  0.19709279980E+03 -0.22392564007E+03  0.19765634946E+04  0.20047900552E+04  0.15294330000E+03 0. -1.
    8880022    1    1    2    0    0 -0.19709279980E+03  0.22392564007E+03 -0.26518513273E+02  0.33627837959E+03  0.15294330000E+03 0.  0.
<mgrwt>
<rscale>  0 0.33523114E+03</rscale>
<asrwt>0</asrwt>
<pdfrwt beam="1">  1        2 0.33008564E+00 0.33523114E+03</pdfrwt>
<pdfrwt beam="2">  1       -2 0.30078728E-01 0.33523114E+03</pdfrwt>
<totfact> 0.62776982E+01</totfact>
</mgrwt>
</event>
<event>
 4    1  0.1033139E-008  0.3293217E+03  0.7818608E-02  0.1071437E+00
          2   -1    0    0  501    0  0.00000000000E+00  0.00000000000E+00  0.22382747882E+04  0.22382747882E+04  0.25500000000E-02 0. -1.
         -2   -1    0    0    0  501 -0.00000000000E+00 -0.00000000000E+00 -0.21397557177E+03  0.21397557178E+03  0.25500000000E-02 0.  1.
    8880022    1    1    2    0    0  0.83486457190E+02  0.27944788322E+03  0.20905508253E+04  0.21163306722E+04  0.15294330000E+03 0.  0.
    8880022    1    1    2    0    0 -0.83486457190E+02 -0.27944788322E+03 -0.66251608833E+02  0.33591968781E+03  0.15294330000E+03 0.  1.
<mgrwt>
<rscale>  0 0.32932167E+03</rscale>
<asrwt>0</asrwt>
<pdfrwt beam="1">  1        2 0.34434996E+00 0.32932167E+03</pdfrwt>
<pdfrwt beam="2">  1       -2 0.32919320E-01 0.32932167E+03</pdfrwt>
<totfact> 0.47484989E+01</totfact>
</mgrwt>
</event>
<event>
 4    1  0.1033139E-008  0.5538631E+03  0.7818608E-02  0.1000604E+00
          2   -1    0    0  501    0  0.00000000000E+00  0.00000000000E+00  0.10415627845E+04  0.10415627845E+04  0.25500000000E-02 0. -1.
         -2   -1    0    0    0  501 -0.00000000000E+00 -0.00000000000E+00 -0.45376030730E+03  0.45376030730E+03  0.25500000000E-02 0.  1.
    8880022    1    1    2    0    0 -0.34372630444E+03  0.40647864255E+03 -0.14900730016E+03  0.57355687401E+03  0.15294330000E+03 0. -1.
    8880022    1    1    2    0    0  0.34372630444E+03 -0.40647864255E+03  0.73680977733E+03  0.92176621775E+03  0.15294330000E+03 0.  0.
<mgrwt>
<rscale>  0 0.55386308E+03</rscale>
<asrwt>0</asrwt>
<pdfrwt beam="1">  1        2 0.16024043E+00 0.55386308E+03</pdfrwt>
<pdfrwt beam="2">  1       -2 0.69809278E-01 0.55386308E+03</pdfrwt>
<totfact> 0.45963719E+01</totfact>
</mgrwt>
</event>
<event>
 4    1  0.1033139E-008  0.7434489E+03  0.7818608E-02  0.9645684E-01
         -2   -1    0    0    0  501 -0.00000000000E+00  0.00000000000E+00  0.84158338219E+03  0.84158338220E+03  0.25500000000E-02 0.  1.
          2   -1    0    0  501    0  0.00000000000E+00 -0.00000000000E+00 -0.13630707663E+04  0.13630707663E+04  0.25500000000E-02 0. -1.
    8880022    1    1    2    0    0  0.57238124946E+03 -0.44911498570E+03  0.53276181808E+03  0.91463182371E+03  0.15294330000E+03 0.  0.
    8880022    1    1    2    0    0 -0.57238124946E+03  0.44911498570E+03 -0.10542492022E+04  0.12900223248E+04  0.15294330000E+03 0.  0.
<mgrwt>
<rscale>  0 0.74344887E+03</rscale>
<asrwt>0</asrwt>
<pdfrwt beam="1">  1        2 0.20970319E+00 0.74344887E+03</pdfrwt>
<pdfrwt beam="2">  1       -2 0.12947437E+00 0.74344887E+03</pdfrwt>
<totfact> 0.68263203E+00</totfact>
</mgrwt>
</event>
<event>
 4    1  0.1033139E-008  0.1808981E+04  0.7818608E-02  0.8701538E-01
         -2   -1    0    0    0  501 -0.00000000000E+00  0.00000000000E+00  0.12828857304E+04  0.12828857304E+04  0.25500000000E-02 0.  1.
          2   -1    0    0  501    0  0.00000000000E+00 -0.00000000000E+00 -0.38051548178E+04  0.38051548178E+04  0.25500000000E-02 0. -1.
    8880022    1    1    2    0    0 -0.60078671352E+03  0.16994341929E+04 -0.27217665984E+04  0.32680921530E+04  0.15294330000E+03 0.  0.
    8880022    1    1    2    0    0  0.60078671352E+03 -0.16994341929E+04  0.19949751108E+03  0.18199483952E+04  0.15294330000E+03 0.  0.
<mgrwt>
<rscale>  0 0.18089812E+04</rscale>
<asrwt>0</asrwt>
<pdfrwt beam="1">  1        2 0.58540843E+00 0.18089812E+04</pdfrwt>
<pdfrwt beam="2">  1       -2 0.19736704E+00 0.18089812E+04</pdfrwt>
<totfact> 0.61636588E-02</totfact>
</mgrwt>
</event>
<event>
 4    1  0.1033139E-008  0.4362562E+03  0.7818608E-02  0.1031902E+00
         -2   -1    0    0    0  501 -0.00000000000E+00  0.00000000000E+00  0.17294229120E+04  0.17294229120E+04  0.25500000000E-02 0.  1.
          2   -1    0    0  501    0  0.00000000000E+00 -0.00000000000E+00 -0.70167953727E+03  0.70167953727E+03  0.25500000000E-02 0. -1.
    8880022    1    1    2    0    0  0.23341850873E+03  0.33532617004E+03 -0.60229620593E+03  0.74369362861E+03  0.15294330000E+03 0. -1.
    8880022    1    1    2    0    0 -0.23341850873E+03 -0.33532617004E+03  0.16300395807E+04  0.16874088207E+04  0.15294330000E+03 0.  0.
<mgrwt>
<rscale>  0 0.43625622E+03</rscale>
<asrwt>0</asrwt>
<pdfrwt beam="1">  1        2 0.10795070E+00 0.43625622E+03</pdfrwt>
<pdfrwt beam="2">  1       -2 0.26606506E+00 0.43625622E+03</pdfrwt>
<totfact> 0.23099965E+00</totfact>
</mgrwt>
</event>
<event>
 4    1  0.1033139E-008  0.1094888E+04  0.7818608E-02  0.9210188E-01
          2   -1    0    0  501    0  0.00000000000E+00  0.00000000000E+00  0.18651058713E+04  0.18651058713E+04  0.25500000000E-02 0. -1.
         -2   -1    0    0    0  501 -0.00000000000E+00 -0.00000000000E+00 -0.13298479689E+04  0.13298479689E+04  0.25500000000E-02 0.  1.
    8880022    1    1    2    0    0  0.30602881724E+02 -0.10837214615E+04 -0.88064551320E+03  0.14051038806E+04  0.15294330000E+03 0.  0.
    8880022    1    1    2    0    0 -0.30602881724E+02  0.10837214615E+04  0.14159034156E+04  0.17898499596E+04  0.15294330000E+03 0.  0.
<mgrwt>
<rscale>  0 0.10948883E+04</rscale>
<asrwt>0</asrwt>
<pdfrwt beam="1">  1        2 0.28693936E+00 0.10948883E+04</pdfrwt>
<pdfrwt beam="2">  1       -2 0.20459200E+00 0.10948883E+04</pdfrwt>
<totfact> 0.96961260E-01</totfact>
</mgrwt>
</event>
<event>
 4    1  0.1033139E-008  0.1120698E+04  0.7818608E-02  0.9185250E-01
         -2   -1    0    0    0  501 -0.00000000000E+00  0.00000000000E+00  0.43957394300E+03  0.43957394301E+03  0.25500000000E-02 0.  1.
          2   -1    0    0  501    0  0.00000000000E+00 -0.00000000000E+00 -0.41012943058E+04  0.41012943058E+04  0.25500000000E-02 0. -1.
    8880022    1    1    2    0    0  0.10134871911E+04  0.45322862705E+03 -0.30813200127E+04  0.32787950757E+04  0.15294330000E+03 0.  0.
    8880022    1    1    2    0    0 -0.10134871911E+04 -0.45322862705E+03 -0.58040035010E+03  0.12620731731E+04  0.15294330000E+03 0.  0.
<mgrwt>
<rscale>  0 0.11206981E+04</rscale>
<asrwt>0</asrwt>
<pdfrwt beam="1">  1        2 0.63096833E+00 0.11206981E+04</pdfrwt>
<pdfrwt beam="2">  1       -2 0.67626763E-01 0.11206981E+04</pdfrwt>
<totfact> 0.58553047E-01</totfact>
</mgrwt>
</event>
<event>
 4    1  0.1033139E-008  0.5016524E+03  0.7818608E-02  0.1013349E+00
          2   -1    0    0  501    0  0.00000000000E+00  0.00000000000E+00  0.14864109897E+04  0.14864109897E+04  0.25500000000E-02 0. -1.
         -2   -1    0    0    0  501 -0.00000000000E+00 -0.00000000000E+00 -0.17149133195E+03  0.17149133197E+03  0.25500000000E-02 0.  1.
    8880022    1    1    2    0    0  0.38157512289E+03  0.28751329695E+03  0.75108200979E+03  0.90320502034E+03  0.15294330000E+03 0.  0.
    8880022    1    1    2    0    0 -0.38157512289E+03 -0.28751329695E+03  0.56383764793E+03  0.75469730129E+03  0.15294330000E+03 0.  0.
<mgrwt>
<rscale>  0 0.50165239E+03</rscale>
<asrwt>0</asrwt>
<pdfrwt beam="1">  1        2 0.22867860E+00 0.50165239E+03</pdfrwt>
<pdfrwt beam="2">  1       -2 0.26383283E-01 0.50165239E+03</pdfrwt>
<totfact> 0.17453955E+02</totfact>
</mgrwt>
</event>
<event>
 4    1  0.1033139E-008  0.5569570E+03  0.7818608E-02  0.9998964E-01
         -2   -1    0    0    0  501 -0.00000000000E+00  0.00000000000E+00  0.65465944013E+03  0.65465944014E+03  0.25500000000E-02 0.  1.
          2   -1    0    0  501    0  0.00000000000E+00 -0.00000000000E+00 -0.38666360890E+04  0.38666360890E+04  0.25500000000E-02 0. -1.
    8880022    1    1    2    0    0  0.89687033187E+02  0.52798265434E+03  0.51161883011E+03  0.75627701773E+03  0.15294330000E+03 0.  0.
    8880022    1    1    2    0    0 -0.89687033187E+02 -0.52798265434E+03 -0.37235954790E+04  0.37650185114E+04  0.15294330000E+03 0.  0.
<mgrwt>
<rscale>  0 0.55695700E+03</rscale>
<asrwt>0</asrwt>
<pdfrwt beam="1">  1        2 0.59486708E+00 0.55695700E+03</pdfrwt>
<pdfrwt beam="2">  1       -2 0.10071684E+00 0.55695700E+03</pdfrwt>
<totfact> 0.41666313E-01</totfact>
</mgrwt>
</event>
<event>
 4    1  0.1033139E-008  0.1011372E+04  0.7818608E-02  0.9296159E-01
         -2   -1    0    0    0  501 -0.00000000000E+00  0.00000000000E+00  0.47097165440E+03  0.47097165441E+03  0.25500000000E-02 0.  1.
          2   -1    0    0  501    0  0.00000000000E+00 -0.00000000000E+00 -0.28707705229E+04  0.28707705229E+04  0.25500000000E-02 0. -1.
    8880022    1    1    2    0    0  0.78402692136E+03 -0.62030986810E+03 -0.20243436751E+04  0.22629276422E+04  0.15294330000E+03 0.  0.
    8880022    1    1    2    0    0 -0.78402692136E+03  0.62030986810E+03 -0.37545519337E+03  0.10788145351E+04  0.15294330000E+03 0.  0.
<mgrwt>
<rscale>  0 0.10113724E+04</rscale>
<asrwt>0</asrwt>
<pdfrwt beam="1">  1        2 0.44165699E+00 0.10113724E+04</pdfrwt>
<pdfrwt beam="2">  1       -2 0.72457179E-01 0.10113724E+04</pdfrwt>
<totfact> 0.36701679E+00</totfact>
</mgrwt>
</event>
<event>
 4    1  0.1033139E-008  0.8827317E+03  0.7818608E-02  0.9447429E-01
         -2   -1    0    0    0  501 -0.00000000000E+00  0.00000000000E+00  0.10728737189E+04  0.10728737189E+04  0.25500000000E-02 0.  1.
          2   -1    0    0  501    0  0.00000000000E+00 -0.00000000000E+00 -0.17628016584E+04  0.17628016584E+04  0.25500000000E-02 0. -1.
    8880022    1    1    2    0    0 -0.20170875033E+03  0.84565786729E+03 -0.14321711379E+04  0.16823583059E+04  0.15294330000E+03 0.  0.
    8880022    1    1    2    0    0  0.20170875033E+03 -0.84565786729E+03  0.74224319833E+03  0.11533170713E+04  0.15294330000E+03 0.  1.
<mgrwt>
<rscale>  0 0.88273173E+03</rscale>
<asrwt>0</asrwt>
<pdfrwt beam="1">  1        2 0.27120025E+00 0.88273173E+03</pdfrwt>
<pdfrwt beam="2">  1       -2 0.16505750E+00 0.88273173E+03</pdfrwt>
<totfact> 0.21166718E+00</totfact>
</mgrwt>
</event>
<event>
 4    1  0.1033139E-008  0.3636945E+03  0.7818608E-02  0.1057131E+00
          2   -1    0    0  501    0  0.00000000000E+00  0.00000000000E+00  0.14110013964E+04  0.14110013964E+04  0.25500000000E-02 0. -1.
         -2   -1    0    0    0  501 -0.00000000000E+00 -0.00000000000E+00 -0.15626818036E+03  0.15626818038E+03  0.25500000000E-02 0.  1.
    8880022    1    1    2    0    0 -0.22236316514E+03  0.24379634526E+03  0.11230456200E+04  0.11804681922E+04  0.15294330000E+03 0.  1.
    8880022    1    1    2    0    0  0.22236316514E+03 -0.24379634526E+03  0.13168759609E+03  0.38680138463E+03  0.15294330000E+03 0.  0.
<mgrwt>
<rscale>  0 0.36369450E+03</rscale>
<asrwt>0</asrwt>
<pdfrwt beam="1">  1        2 0.21707713E+00 0.36369450E+03</pdfrwt>
<pdfrwt beam="2">  1       -2 0.24041259E-01 0.36369450E+03</pdfrwt>
<totfact> 0.23078180E+02</totfact>
</mgrwt>
</event>
<event>
 4    1  0.1033139E-008  0.5205987E+03  0.7818608E-02  0.1008538E+00
         -2   -1    0    0    0  501 -0.00000000000E+00  0.00000000000E+00  0.79566838474E+03  0.79566838474E+03  0.25500000000E-02 0.  1.
          2   -1    0    0  501    0  0.00000000000E+00 -0.00000000000E+00 -0.16197220862E+04  0.16197220862E+04  0.25500000000E-02 0. -1.
    8880022    1    1    2    0    0 -0.48898944288E+03 -0.92307568939E+02 -0.14852478993E+04  0.15738438098E+04  0.15294330000E+03 0.  0.
    8880022    1    1    2    0    0  0.48898944288E+03  0.92307568939E+02  0.66119419782E+03  0.84154666108E+03  0.15294330000E+03 0.  0.
<mgrwt>
<rscale>  0 0.52059871E+03</rscale>
<asrwt>0</asrwt>
<pdfrwt beam="1">  1        2 0.24918801E+00 0.52059871E+03</pdfrwt>
<pdfrwt beam="2">  1       -2 0.12241052E+00 0.52059871E+03</pdfrwt>
<totfact> 0.58865422E+00</totfact>
</mgrwt>
</event>
<event>
 4    1  0.1033139E-008  0.9279339E+03  0.7818608E-02  0.9391321E-01
         -2   -1    0    0    0  501 -0.00000000000E+00  0.00000000000E+00  0.12395230201E+04  0.12395230201E+04  0.25500000000E-02 0.  1.
          2   -1    0    0  501    0  0.00000000000E+00 -0.00000000000E+00 -0.10024127451E+04  0.10024127451E+04  0.25500000000E-02 0. -1.
    8880022    1    1    2    0    0 -0.90517847655E+03  0.13535757436E+03 -0.50254651503E+03  0.10552792996E+04  0.15294330000E+03 0.  0.
    8880022    1    1    2    0    0  0.90517847655E+03 -0.13535757436E+03  0.73965678997E+03  0.11866564656E+04  0.15294330000E+03 0.  0.
<mgrwt>
<rscale>  0 0.92793394E+03</rscale>
<asrwt>0</asrwt>
<pdfrwt beam="1">  1        2 0.15421735E+00 0.92793394E+03</pdfrwt>
<pdfrwt beam="2">  1       -2 0.19069585E+00 0.92793394E+03</pdfrwt>
<totfact> 0.38474806E+00</totfact>
</mgrwt>
</event>
<event>
 4    1  0.1033139E-008  0.9200756E+03  0.7818608E-02  0.9400828E-01
          2   -1    0    0  501    0  0.00000000000E+00  0.00000000000E+00  0.23444508577E+04  0.23444508577E+04  0.25500000000E-02 0. -1.
         -2   -1    0    0    0  501 -0.00000000000E+00 -0.00000000000E+00 -0.77467249044E+03  0.77467249045E+03  0.25500000000E-02 0.  1.
    8880022    1    1    2    0    0  0.37471098034E+03  0.82628029003E+03  0.19244269951E+04  0.21330631376E+04  0.15294330000E+03 0.  0.
    8880022    1    1    2    0    0 -0.37471098034E+03 -0.82628029003E+03 -0.35464862788E+03  0.98606021051E+03  0.15294330000E+03 0.  0.
<mgrwt>
<rscale>  0 0.92007559E+03</rscale>
<asrwt>0</asrwt>
<pdfrwt beam="1">  1        2 0.36068474E+00 0.92007559E+03</pdfrwt>
<pdfrwt beam="2">  1       -2 0.11918039E+00 0.92007559E+03</pdfrwt>
<totfact> 0.23475582E+00</totfact>
</mgrwt>
</event>
<event>
 4    1  0.1033139E-008  0.5457995E+03  0.7818608E-02  0.1002471E+00
          2   -1    0    0  501    0  0.00000000000E+00  0.00000000000E+00  0.15269575706E+04  0.15269575707E+04  0.25500000000E-02 0. -1.
         -2   -1    0    0    0  501 -0.00000000000E+00 -0.00000000000E+00 -0.16870508435E+04  0.16870508435E+04  0.25500000000E-02 0.  1.
    8880022    1    1    2    0    0  0.49330081290E+03 -0.17652135761E+03 -0.15912793856E+04  0.16822803625E+04  0.15294330000E+03 0.  0.
    8880022    1    1    2    0    0 -0.49330081290E+03  0.17652135761E+03  0.14311861128E+04  0.15317280517E+04  0.15294330000E+03 0. -1.
<mgrwt>
<rscale>  0 0.54579954E+03</rscale>
<asrwt>0</asrwt>
<pdfrwt beam="1">  1        2 0.23491655E+00 0.54579954E+03</pdfrwt>
<pdfrwt beam="2">  1       -2 0.25954628E+00 0.54579954E+03</pdfrwt>
<totfact> 0.75621969E-01</totfact>
</mgrwt>
</event>
<event>
 4    1  0.1033139E-008  0.7633800E+03  0.7818608E-02  0.9614590E-01
          2   -1    0    0  501    0  0.00000000000E+00  0.00000000000E+00  0.16969924111E+04  0.16969924111E+04  0.25500000000E-02 0. -1.
         -2   -1    0    0    0  501 -0.00000000000E+00 -0.00000000000E+00 -0.47863983075E+03  0.47863983076E+03  0.25500000000E-02 0.  1.
    8880022    1    1    2    0    0  0.63271702200E+03 -0.39878135529E+03  0.30944954387E+02  0.76400696494E+03  0.15294330000E+03 0.  1.
    8880022    1    1    2    0    0 -0.63271702200E+03  0.39878135529E+03  0.11874076260E+04  0.14116252770E+04  0.15294330000E+03 0. -1.
<mgrwt>
<rscale>  0 0.76338002E+03</rscale>
<asrwt>0</asrwt>
<pdfrwt beam="1">  1        2 0.26107575E+00 0.76338002E+03</pdfrwt>
<pdfrwt beam="2">  1       -2 0.73636898E-01 0.76338002E+03</pdfrwt>
<totfact> 0.16800640E+01</totfact>
</mgrwt>
</event>
<event>
 4    1  0.1033139E-008  0.3629362E+03  0.7818608E-02  0.1057427E+00
          2   -1    0    0  501    0  0.00000000000E+00  0.00000000000E+00  0.39716648340E+03  0.39716648341E+03  0.25500000000E-02 0. -1.
         -2   -1    0    0    0  501 -0.00000000000E+00 -0.00000000000E+00 -0.11749620002E+04  0.11749620002E+04  0.25500000000E-02 0.  1.
    8880022    1    1    2    0    0  0.13161634233E+03  0.30167564448E+03  0.27704773623E+03  0.45659408363E+03  0.15294330000E+03 0.  0.
    8880022    1    1    2    0    0 -0.13161634233E+03 -0.30167564448E+03 -0.10548432530E+04  0.11155343999E+04  0.15294330000E+03 0.  0.
<mgrwt>
<rscale>  0 0.36293623E+03</rscale>
<asrwt>0</asrwt>
<pdfrwt beam="1">  1        2 0.61102537E-01 0.36293623E+03</pdfrwt>
<pdfrwt beam="2">  1       -2 0.18076338E+00 0.36293623E+03</pdfrwt>
<totfact> 0.15336469E+01</totfact>
</mgrwt>
</event>
<event>
 4    1  0.1033139E-008  0.5492737E+03  0.7818608E-02  0.1001662E+00
          2   -1    0    0  501    0  0.00000000000E+00  0.00000000000E+00  0.64136915966E+03  0.64136915967E+03  0.25500000000E-02 0. -1.
         -2   -1    0    0    0  501 -0.00000000000E+00 -0.00000000000E+00 -0.67688542978E+03  0.67688542979E+03  0.25500000000E-02 0.  1.
    8880022    1    1    2    0    0  0.26538374218E+03 -0.45594008347E+03 -0.38180221689E+03  0.66893533033E+03  0.15294330000E+03 0.  0.
    8880022    1    1    2    0    0 -0.26538374218E+03  0.45594008347E+03  0.34628594677E+03  0.64931925912E+03  0.15294330000E+03 0.  0.
<mgrwt>
<rscale>  0 0.54927365E+03</rscale>
<asrwt>0</asrwt>
<pdfrwt beam="1">  1        2 0.98672178E-01 0.54927365E+03</pdfrwt>
<pdfrwt beam="2">  1       -2 0.10413622E+00 0.54927365E+03</pdfrwt>
<totfact> 0.35369654E+01</totfact>
</mgrwt>
</event>
<event>
 4    1  0.1033139E-008  0.2324660E+03  0.7818608E-02  0.1124916E+00
         -2   -1    0    0    0  501 -0.00000000000E+00  0.00000000000E+00  0.13063286419E+03  0.13063286421E+03  0.25500000000E-02 0.  1.
          2   -1    0    0  501    0  0.00000000000E+00 -0.00000000000E+00 -0.35229324075E+04  0.35229324075E+04  0.25500000000E-02 0. -1.
    8880022    1    1    2    0    0  0.17492468774E+03  0.70817249661E+01 -0.34123287467E+04  0.34202379926E+04  0.15294330000E+03 0. -1.
    8880022    1    1    2    0    0 -0.17492468774E+03 -0.70817249661E+01  0.20029203348E+02  0.23332727918E+03  0.15294330000E+03 0.  0.
<mgrwt>
<rscale>  0 0.23246602E+03</rscale>
<asrwt>0</asrwt>
<pdfrwt beam="1">  1        2 0.54198953E+00 0.23246602E+03</pdfrwt>
<pdfrwt beam="2">  1       -2 0.20097366E-01 0.23246602E+03</pdfrwt>
<totfact> 0.21020576E+01</totfact>
</mgrwt>
</event>
<event>
 4    1  0.1033139E-008  0.3882521E+03  0.7818608E-02  0.1047925E+00
          2   -1    0    0  501    0  0.00000000000E+00  0.00000000000E+00  0.27525688575E+04  0.27525688575E+04  0.25500000000E-02 0. -1.
         -2   -1    0    0    0  501 -0.00000000000E+00 -0.00000000000E+00 -0.47655787487E+03  0.47655787488E+03  0.25500000000E-02 0.  1.
    8880022    1    1    2    0    0  0.26997480625E+03  0.23337025416E+03  0.26569704998E+04  0.26851875095E+04  0.15294330000E+03 0.  0.
    8880022    1    1    2    0    0 -0.26997480625E+03 -0.23337025416E+03 -0.38095951710E+03  0.54393922291E+03  0.15294330000E+03 0.  1.
<mgrwt>
<rscale>  0 0.38825214E+03</rscale>
<asrwt>0</asrwt>
<pdfrwt beam="1">  1        2 0.42347213E+00 0.38825214E+03</pdfrwt>
<pdfrwt beam="2">  1       -2 0.73316597E-01 0.38825214E+03</pdfrwt>
<totfact> 0.48269286E+00</totfact>
</mgrwt>
</event>
<event>
 4    1  0.1033139E-008  0.8362582E+03  0.7818608E-02  0.9508969E-01
         -2   -1    0    0    0  501 -0.00000000000E+00  0.00000000000E+00  0.77216298515E+03  0.77216298516E+03  0.25500000000E-02 0.  1.
          2   -1    0    0  501    0  0.00000000000E+00 -0.00000000000E+00 -0.10274163988E+04  0.10274163988E+04  0.25500000000E-02 0. -1.
    8880022    1    1    2    0    0 -0.44795271626E+03 -0.68940150547E+03 -0.43736092720E+03  0.94372257862E+03  0.15294330000E+03 0.  0.
    8880022    1    1    2    0    0  0.44795271626E+03  0.68940150547E+03  0.18210751354E+03  0.85585680535E+03  0.15294330000E+03 0.  0.
<mgrwt>
<rscale>  0 0.83625817E+03</rscale>
<asrwt>0</asrwt>
<pdfrwt beam="1">  1        2 0.15806406E+00 0.83625817E+03</pdfrwt>
<pdfrwt beam="2">  1       -2 0.11879431E+00 0.83625817E+03</pdfrwt>
<totfact> 0.13275523E+01</totfact>
</mgrwt>
</event>
<event>
 4    1  0.1033139E-008  0.2237146E+03  0.7818608E-02  0.1131144E+00
         -2   -1    0    0    0  501 -0.00000000000E+00  0.00000000000E+00  0.23769432893E+03  0.23769432894E+03  0.25500000000E-02 0.  1.
          2   -1    0    0  501    0  0.00000000000E+00 -0.00000000000E+00 -0.10855136622E+04  0.10855136622E+04  0.25500000000E-02 0. -1.
    8880022    1    1    2    0    0 -0.61402568294E+02 -0.15128220542E+03 -0.10178922530E+04  0.10421865825E+04  0.15294330000E+03 0. -1.
    8880022    1    1    2    0    0  0.61402568294E+02  0.15128220542E+03  0.17007291972E+03  0.28102140862E+03  0.15294330000E+03 0.  0.
<mgrwt>
<rscale>  0 0.22371463E+03</rscale>
<asrwt>0</asrwt>
<pdfrwt beam="1">  1        2 0.16700210E+00 0.22371463E+03</pdfrwt>
<pdfrwt beam="2">  1       -2 0.36568359E-01 0.22371463E+03</pdfrwt>
<totfact> 0.16807292E+02</totfact>
</mgrwt>
</event>
<event>
 4    1  0.1033139E-008  0.8784948E+03  0.7818608E-02  0.9452870E-01
          2   -1    0    0  501    0  0.00000000000E+00  0.00000000000E+00  0.16884915480E+04  0.16884915480E+04  0.25500000000E-02 0. -1.
         -2   -1    0    0    0  501 -0.00000000000E+00 -0.00000000000E+00 -0.81708123880E+03  0.81708123880E+03  0.25500000000E-02 0.  1.
    8880022    1    1    2    0    0  0.97301030415E+02  0.85958946088E+03  0.12672859576E+04  0.15420009349E+04  0.15294330000E+03 0.  0.
    8880022    1    1    2    0    0 -0.97301030415E+02 -0.85958946088E+03 -0.39587564842E+03  0.96357185192E+03  0.15294330000E+03 0.  0.
<mgrwt>
<rscale>  0 0.87849484E+03</rscale>
<asrwt>0</asrwt>
<pdfrwt beam="1">  1        2 0.25976793E+00 0.87849484E+03</pdfrwt>
<pdfrwt beam="2">  1       -2 0.12570481E+00 0.87849484E+03</pdfrwt>
<totfact> 0.47535519E+00</totfact>
</mgrwt>
</event>
<event>
 4    1  0.1033139E-008  0.9474486E+03  0.7818608E-02  0.9368138E-01
         -2   -1    0    0    0  501 -0.00000000000E+00  0.00000000000E+00  0.59465550975E+03  0.59465550976E+03  0.25500000000E-02 0.  1.
          2   -1    0    0  501    0  0.00000000000E+00 -0.00000000000E+00 -0.17939844505E+04  0.17939844505E+04  0.25500000000E-02 0. -1.
    8880022    1    1    2    0    0  0.40098584320E+03 -0.84467605282E+03 -0.10752259658E+04  0.14330979768E+04  0.15294330000E+03 0.  0.
    8880022    1    1    2    0    0 -0.40098584320E+03  0.84467605282E+03 -0.12410297492E+03  0.95554198340E+03  0.15294330000E+03 0.  0.
<mgrwt>
<rscale>  0 0.94744864E+03</rscale>
<asrwt>0</asrwt>
<pdfrwt beam="1">  1        2 0.27599761E+00 0.94744864E+03</pdfrwt>
<pdfrwt beam="2">  1       -2 0.91485464E-01 0.94744864E+03</pdfrwt>
<totfact> 0.88888780E+00</totfact>
</mgrwt>
</event>
<event>
 4    1  0.1033139E-008  0.5339812E+03  0.7818608E-02  0.1005271E+00
          2   -1    0    0  501    0  0.00000000000E+00  0.00000000000E+00  0.20714015764E+04  0.20714015764E+04  0.25500000000E-02 0. -1.
         -2   -1    0    0    0  501 -0.00000000000E+00 -0.00000000000E+00 -0.23596702756E+03  0.23596702758E+03  0.25500000000E-02 0.  1.
    8880022    1    1    2    0    0 -0.47725024438E+03  0.18432720059E+03  0.16623937833E+04  0.17460495573E+04  0.15294330000E+03 0.  0.
    8880022    1    1    2    0    0  0.47725024438E+03 -0.18432720059E+03  0.17304076552E+03  0.56131904670E+03  0.15294330000E+03 0.  0.
<mgrwt>
<rscale>  0 0.53398124E+03</rscale>
<asrwt>0</asrwt>
<pdfrwt beam="1">  1        2 0.31867717E+00 0.53398124E+03</pdfrwt>
<pdfrwt beam="2">  1       -2 0.36302620E-01 0.53398124E+03</pdfrwt>
<totfact> 0.46371330E+01</totfact>
</mgrwt>
</event>
<event>
 4    1  0.1033139E-008  0.3407656E+03  0.7818608E-02  0.1066470E+00
         -2   -1    0    0    0  501 -0.00000000000E+00  0.00000000000E+00  0.10635871883E+04  0.10635871883E+04  0.25500000000E-02 0.  1.
          2   -1    0    0  501    0  0.00000000000E+00 -0.00000000000E+00 -0.20203249477E+04  0.20203249478E+04  0.25500000000E-02 0. -1.
    8880022    1    1    2    0    0 -0.11791388748E+03 -0.28075942748E+03 -0.19780824957E+04  0.20072198568E+04  0.15294330000E+03 0. -1.
    8880022    1    1    2    0    0  0.11791388748E+03  0.28075942748E+03  0.10213447362E+04  0.10766922792E+04  0.15294330000E+03 0.  0.
<mgrwt>
<rscale>  0 0.34076560E+03</rscale>
<asrwt>0</asrwt>
<pdfrwt beam="1">  1        2 0.31081922E+00 0.34076560E+03</pdfrwt>
<pdfrwt beam="2">  1       -2 0.16362880E+00 0.34076560E+03</pdfrwt>
<totfact> 0.18006050E+00</totfact>
</mgrwt>
</event>
<event>
 4    1  0.1033139E-008  0.8285633E+03  0.7818608E-02  0.9519569E-01
          2   -1    0    0  501    0  0.00000000000E+00  0.00000000000E+00  0.64298726688E+03  0.64298726689E+03  0.25500000000E-02 0. -1.
         -2   -1    0    0    0  501 -0.00000000000E+00 -0.00000000000E+00 -0.11261674865E+04  0.11261674865E+04  0.25500000000E-02 0.  1.
    8880022    1    1    2    0    0 -0.70548309397E+03 -0.40671745720E+03 -0.44314514944E+03  0.93962479871E+03  0.15294330000E+03 0.  0.
    8880022    1    1    2    0    0  0.70548309397E+03  0.40671745720E+03 -0.40035070184E+02  0.82952995469E+03  0.15294330000E+03 0.  0.
<mgrwt>
<rscale>  0 0.82856330E+03</rscale>
<asrwt>0</asrwt>
<pdfrwt beam="1">  1        2 0.98921118E-01 0.82856330E+03</pdfrwt>
<pdfrwt beam="2">  1       -2 0.17325654E+00 0.82856330E+03</pdfrwt>
<totfact> 0.92889046E+00</totfact>
</mgrwt>
</event>
<event>
 4    1  0.1033139E-008  0.1657932E+04  0.7818608E-02  0.8785728E-01
          2   -1    0    0  501    0  0.00000000000E+00  0.00000000000E+00  0.16672962795E+04  0.16672962795E+04  0.25500000000E-02 0. -1.
         -2   -1    0    0    0  501 -0.00000000000E+00 -0.00000000000E+00 -0.18163414603E+04  0.18163414603E+04  0.25500000000E-02 0.  1.
    8880022    1    1    2    0    0 -0.16187308303E+04  0.32412565210E+03 -0.60381795970E+03  0.17644644289E+04  0.15294330000E+03 0.  0.
    8880022    1    1    2    0    0  0.16187308303E+04 -0.32412565210E+03  0.45477277896E+03  0.17191733109E+04  0.15294330000E+03 0.  0.
<mgrwt>
<rscale>  0 0.16579320E+04</rscale>
<asrwt>0</asrwt>
<pdfrwt beam="1">  1        2 0.25650712E+00 0.16579320E+04</pdfrwt>
<pdfrwt beam="2">  1       -2 0.27943715E+00 0.16579320E+04</pdfrwt>
<totfact> 0.40121482E-01</totfact>
</mgrwt>
</event>
<event>
 4    1  0.1033139E-008  0.1226204E+04  0.7818608E-02  0.9090224E-01
          2   -1    0    0  501    0  0.00000000000E+00  0.00000000000E+00  0.15117456269E+04  0.15117456269E+04  0.25500000000E-02 0. -1.
         -2   -1    0    0    0  501 -0.00000000000E+00 -0.00000000000E+00 -0.10687916810E+04  0.10687916810E+04  0.25500000000E-02 0.  1.
    8880022    1    1    2    0    0  0.12165242604E+04 -0.15913655659E+02 -0.11847916594E+03  0.12319145613E+04  0.15294330000E+03 0.  0.
    8880022    1    1    2    0    0 -0.12165242604E+04  0.15913655659E+02  0.56143311189E+03  0.13486227466E+04  0.15294330000E+03 0.  0.
<mgrwt>
<rscale>  0 0.12262040E+04</rscale>
<asrwt>0</asrwt>
<pdfrwt beam="1">  1        2 0.23257625E+00 0.12262040E+04</pdfrwt>
<pdfrwt beam="2">  1       -2 0.16442949E+00 0.12262040E+04</pdfrwt>
<totfact> 0.28301421E+00</totfact>
</mgrwt>
</event>
<event>
 4    1  0.1033139E-008  0.1314568E+04  0.7818608E-02  0.9018092E-01
          2   -1    0    0  501    0  0.00000000000E+00  0.00000000000E+00  0.34116320358E+04  0.34116320358E+04  0.25500000000E-02 0. -1.
         -2   -1    0    0    0  501 -0.00000000000E+00 -0.00000000000E+00 -0.64430175154E+03  0.64430175155E+03  0.25500000000E-02 0.  1.
    8880022    1    1    2    0    0 -0.59767137111E+03 -0.11608126465E+04  0.44588998806E+03  0.13881306143E+04  0.15294330000E+03 0.  0.
    8880022    1    1    2    0    0  0.59767137111E+03  0.11608126465E+04  0.23214402962E+04  0.26678031730E+04  0.15294330000E+03 0.  0.
<mgrwt>
<rscale>  0 0.13145679E+04</rscale>
<asrwt>0</asrwt>
<pdfrwt beam="1">  1        2 0.52486647E+00 0.13145679E+04</pdfrwt>
<pdfrwt beam="2">  1       -2 0.99123346E-01 0.13145679E+04</pdfrwt>
<totfact> 0.77609613E-01</totfact>
</mgrwt>
</event>
<event>
 4    1  0.1033139E-008  0.1462614E+04  0.7818608E-02  0.8909702E-01
          2   -1    0    0  501    0  0.00000000000E+00  0.00000000000E+00  0.17886044233E+04  0.17886044233E+04  0.25500000000E-02 0. -1.
         -2   -1    0    0    0  501 -0.00000000000E+00 -0.00000000000E+00 -0.20539163243E+04  0.20539163243E+04  0.25500000000E-02 0.  1.
    8880022    1    1    2    0    0  0.25008636134E+03  0.14329361829E+04  0.11090175255E+04  0.18355273949E+04  0.15294330000E+03 0.  0.
    8880022    1    1    2    0    0 -0.25008636134E+03 -0.14329361829E+04 -0.13743294265E+04  0.20069933527E+04  0.15294330000E+03 0.  0.
<mgrwt>
<rscale>  0 0.14626144E+04</rscale>
<asrwt>0</asrwt>
<pdfrwt beam="1">  1        2 0.27516991E+00 0.14626144E+04</pdfrwt>
<pdfrwt beam="2">  1       -2 0.31598713E+00 0.14626144E+04</pdfrwt>
<totfact> 0.20939370E-01</totfact>
</mgrwt>
</event>
<event>
 4    1  0.1033139E-008  0.8395434E+03  0.7818608E-02  0.9504480E-01
          2   -1    0    0  501    0  0.00000000000E+00  0.00000000000E+00  0.98342596920E+03  0.98342596920E+03  0.25500000000E-02 0. -1.
         -2   -1    0    0    0  501 -0.00000000000E+00 -0.00000000000E+00 -0.80531507314E+03  0.80531507314E+03  0.25500000000E-02 0.  1.
    8880022    1    1    2    0    0 -0.78341437090E+03  0.26019875428E+03  0.38571554497E+03  0.92390995390E+03  0.15294330000E+03 0.  0.
    8880022    1    1    2    0    0  0.78341437090E+03 -0.26019875428E+03 -0.20760464891E+03  0.86483108844E+03  0.15294330000E+03 0.  0.
<mgrwt>
<rscale>  0 0.83954340E+03</rscale>
<asrwt>0</asrwt>
<pdfrwt beam="1">  1        2 0.15129630E+00 0.83954340E+03</pdfrwt>
<pdfrwt beam="2">  1       -2 0.12389463E+00 0.83954340E+03</pdfrwt>
<totfact> 0.12748797E+01</totfact>
</mgrwt>
</event>
<event>
 4    1  0.1033139E-008  0.1691050E+04  0.7818608E-02  0.8766485E-01
         -2   -1    0    0    0  501 -0.00000000000E+00  0.00000000000E+00  0.93654678977E+03  0.93654678978E+03  0.25500000000E-02 0.  1.
          2   -1    0    0  501    0  0.00000000000E+00 -0.00000000000E+00 -0.32681260852E+04  0.32681260852E+04  0.25500000000E-02 0. -1.
    8880022    1    1    2    0    0  0.16735541374E+04  0.18835230329E+03 -0.17046739275E+04  0.24011590728E+04  0.15294330000E+03 0.  0.
    8880022    1    1    2    0    0 -0.16735541374E+04 -0.18835230329E+03 -0.62690536798E+03  0.18035138021E+04  0.15294330000E+03 0.  0.
<mgrwt>
<rscale>  0 0.16910505E+04</rscale>
<asrwt>0</asrwt>
<pdfrwt beam="1">  1        2 0.50278862E+00 0.16910505E+04</pdfrwt>
<pdfrwt beam="2">  1       -2 0.14408412E+00 0.16910505E+04</pdfrwt>
<totfact> 0.36284473E-01</totfact>
</mgrwt>
</event>
<event>
 4    1  0.1033139E-008  0.3249045E+03  0.7818608E-02  0.1073414E+00
         -2   -1    0    0    0  501 -0.00000000000E+00  0.00000000000E+00  0.20183434216E+03  0.20183434218E+03  0.25500000000E-02 0.  1.
          2   -1    0    0  501    0  0.00000000000E+00 -0.00000000000E+00 -0.18324283311E+04  0.18324283311E+04  0.25500000000E-02 0. -1.
    8880022    1    1    2    0    0 -0.18115027569E+02 -0.28608242923E+03 -0.16751049166E+04  0.17063233706E+04  0.15294330000E+03 0.  0.
    8880022    1    1    2    0    0  0.18115027569E+02  0.28608242923E+03  0.44510927649E+02  0.32793930266E+03  0.15294330000E+03 0.  0.
<mgrwt>
<rscale>  0 0.32490455E+03</rscale>
<asrwt>0</asrwt>
<pdfrwt beam="1">  1        2 0.28191204E+00 0.32490455E+03</pdfrwt>
<pdfrwt beam="2">  1       -2 0.31051439E-01 0.32490455E+03</pdfrwt>
<totfact> 0.87056946E+01</totfact>
</mgrwt>
</event>
<event>
 4    1  0.1042302E-008  0.6656400E+03  0.7818608E-02  0.9777867E-01
          2   -1    0    0  501    0  0.00000000000E+00  0.00000000000E+00  0.41188149728E+04  0.41188149728E+04  0.25500000000E-02 0. -1.
         -2   -1    0    0    0  501 -0.00000000000E+00 -0.00000000000E+00 -0.11349875996E+04  0.11349875996E+04  0.25500000000E-02 0.  1.
    8880022    1    1    2    0    0 -0.61209127305E+03  0.21220077518E+03  0.39912280995E+04  0.40463537031E+04  0.15294330000E+03 0.  0.
    8880022    1    1    2    0    0  0.61209127305E+03 -0.21220077518E+03 -0.10074007263E+04  0.12074488693E+04  0.15294330000E+03 0.  0.
<mgrwt>
<rscale>  0 0.66563995E+03</rscale>
<asrwt>0</asrwt>
<pdfrwt beam="1">  1        2 0.63366383E+00 0.66563995E+03</pdfrwt>
<pdfrwt beam="2">  1       -2 0.17461348E+00 0.66563995E+03</pdfrwt>
<totfact> 0.62482310E-02</totfact>
</mgrwt>
</event>
<event>
 4    1  0.1033139E-008  0.7460766E+03  0.7818608E-02  0.9641526E-01
          2   -1    0    0  501    0  0.00000000000E+00  0.00000000000E+00  0.68367734915E+03  0.68367734916E+03  0.25500000000E-02 0. -1.
         -2   -1    0    0    0  501 -0.00000000000E+00 -0.00000000000E+00 -0.11601534979E+04  0.11601534979E+04  0.25500000000E-02 0.  1.
    8880022    1    1    2    0    0 -0.64965901981E+03  0.33343941450E+03 -0.74169272512E+03  0.10520163671E+04  0.15294330000E+03 0.  0.
    8880022    1    1    2    0    0  0.64965901981E+03 -0.33343941450E+03  0.26521657642E+03  0.79181447990E+03  0.15294330000E+03 0.  0.
<mgrwt>
<rscale>  0 0.74607663E+03</rscale>
<asrwt>0</asrwt>
<pdfrwt beam="1">  1        2 0.10518113E+00 0.74607663E+03</pdfrwt>
<pdfrwt beam="2">  1       -2 0.17848515E+00 0.74607663E+03</pdfrwt>
<totfact> 0.79852735E+00</totfact>
</mgrwt>
</event>
<event>
 4    1  0.1033139E-008  0.2086858E+03  0.7818608E-02  0.1142611E+00
          2   -1    0    0  501    0  0.00000000000E+00  0.00000000000E+00  0.19311590358E+04  0.19311590358E+04  0.25500000000E-02 0. -1.
         -2   -1    0    0    0  501 -0.00000000000E+00 -0.00000000000E+00 -0.39566985965E+03  0.39566985966E+03  0.25500000000E-02 0.  1.
    8880022    1    1    2    0    0 -0.45553537685E+02  0.13447298493E+03 -0.36202924178E+03  0.41786951719E+03  0.15294330000E+03 0.  0.
    8880022    1    1    2    0    0  0.45553537685E+02 -0.13447298493E+03  0.18975184179E+04  0.19089593782E+04  0.15294330000E+03 0. -1.
<mgrwt>
<rscale>  0 0.20868580E+03</rscale>
<asrwt>0</asrwt>
<pdfrwt beam="1">  1        2 0.29710139E+00 0.20868580E+03</pdfrwt>
<pdfrwt beam="2">  1       -2 0.60872286E-01 0.20868580E+03</pdfrwt>
<totfact> 0.21665439E+01</totfact>
</mgrwt>
</event>
<event>
 4    1  0.1033139E-008  0.3666697E+03  0.7818608E-02  0.1055974E+00
         -2   -1    0    0    0  501 -0.00000000000E+00  0.00000000000E+00  0.50529039741E+03  0.50529039742E+03  0.25500000000E-02 0.  1.
          2   -1    0    0  501    0  0.00000000000E+00 -0.00000000000E+00 -0.72219834743E+03  0.72219834744E+03  0.25500000000E-02 0. -1.
    8880022    1    1    2    0    0  0.11203527768E+03  0.31385205019E+03 -0.59620590215E+03  0.69993438523E+03  0.15294330000E+03 0.  0.
    8880022    1    1    2    0    0 -0.11203527768E+03 -0.31385205019E+03  0.37929795213E+03  0.52755435963E+03  0.15294330000E+03 0.  1.
<mgrwt>
<rscale>  0 0.36666970E+03</rscale>
<asrwt>0</asrwt>
<pdfrwt beam="1">  1        2 0.11110744E+00 0.36666970E+03</pdfrwt>
<pdfrwt beam="2">  1       -2 0.77736984E-01 0.36666970E+03</pdfrwt>
<totfact> 0.61113880E+01</totfact>
</mgrwt>
</event>
<event>
 4    1  0.1033139E-008  0.7545230E+03  0.7818608E-02  0.9628281E-01
          2   -1    0    0  501    0  0.00000000000E+00  0.00000000000E+00  0.16448597669E+04  0.16448597669E+04  0.25500000000E-02 0. -1.
         -2   -1    0    0    0  501 -0.00000000000E+00 -0.00000000000E+00 -0.79045804055E+03  0.79045804056E+03  0.25500000000E-02 0.  1.
    8880022    1    1    2    0    0 -0.71945798266E+03  0.16820691528E+03 -0.48574936595E+03  0.89736138467E+03  0.15294330000E+03 0.  0.
    8880022    1    1    2    0    0  0.71945798266E+03 -0.16820691528E+03  0.13401510923E+04  0.15379564228E+04  0.15294330000E+03 0.  0.
<mgrwt>
<rscale>  0 0.75452303E+03</rscale>
<asrwt>0</asrwt>
<pdfrwt beam="1">  1        2 0.25305534E+00 0.75452303E+03</pdfrwt>
<pdfrwt beam="2">  1       -2 0.12160893E+00 0.75452303E+03</pdfrwt>
<totfact> 0.55551334E+00</totfact>
</mgrwt>
</event>
<event>
 4    1  0.1033139E-008  0.5811115E+03  0.7818608E-02  0.9945388E-01
         -2   -1    0    0    0  501 -0.00000000000E+00  0.00000000000E+00  0.88961764523E+03  0.88961764523E+03  0.25500000000E-02 0.  1.
          2   -1    0    0  501    0  0.00000000000E+00 -0.00000000000E+00 -0.71182950682E+03  0.71182950683E+03  0.25500000000E-02 0. -1.
    8880022    1    1    2    0    0  0.10120316671E+03  0.55141348440E+03 -0.45814685406E+03  0.73999263823E+03  0.15294330000E+03 0.  0.
    8880022    1    1    2    0    0 -0.10120316671E+03 -0.55141348440E+03  0.63593499247E+03  0.86145451383E+03  0.15294330000E+03 0.  0.
<mgrwt>
<rscale>  0 0.58111149E+03</rscale>
<asrwt>0</asrwt>
<pdfrwt beam="1">  1        2 0.10951223E+00 0.58111149E+03</pdfrwt>
<pdfrwt beam="2">  1       -2 0.13686425E+00 0.58111149E+03</pdfrwt>
<totfact> 0.15798077E+01</totfact>
</mgrwt>
</event>
<event>
 4    1  0.1033139E-008  0.4250329E+03  0.7818608E-02  0.1035441E+00
         -2   -1    0    0    0  501 -0.00000000000E+00  0.00000000000E+00  0.48320725545E+03  0.48320725546E+03  0.25500000000E-02 0.  1.
          2   -1    0    0  501    0  0.00000000000E+00 -0.00000000000E+00 -0.59176668965E+03  0.59176668966E+03  0.25500000000E-02 0. -1.
    8880022    1    1    2    0    0 -0.37055126630E+03  0.14125532849E+03  0.27187653164E+03  0.50454911580E+03  0.15294330000E+03 0.  0.
    8880022    1    1    2    0    0  0.37055126630E+03 -0.14125532849E+03 -0.38043596584E+03  0.57042482932E+03  0.15294330000E+03 0.  0.
<mgrwt>
<rscale>  0 0.42503289E+03</rscale>
<asrwt>0</asrwt>
<pdfrwt beam="1">  1        2 0.91041030E-01 0.42503289E+03</pdfrwt>
<pdfrwt beam="2">  1       -2 0.74339577E-01 0.42503289E+03</pdfrwt>
<totfact> 0.85230086E+01</totfact>
</mgrwt>
</event>
<event>
 4    1  0.1033139E-008  0.2048764E+04  0.7818608E-02  0.8584155E-01
         -2   -1    0    0    0  501 -0.00000000000E+00  0.00000000000E+00  0.24248141318E+04  0.24248141318E+04  0.25500000000E-02 0.  1.
          2   -1    0    0  501    0  0.00000000000E+00 -0.00000000000E+00 -0.22961412630E+04  0.22961412630E+04  0.25500000000E-02 0. -1.
    8880022    1    1    2    0    0 -0.22803057986E+02  0.20429199295E+04  0.12353620591E+04  0.23923948019E+04  0.15294330000E+03 0.  0.
    8880022    1    1    2    0    0  0.22803057986E+02 -0.20429199295E+04 -0.11066891903E+04  0.23285605929E+04  0.15294330000E+03 0.  0.
<mgrwt>
<rscale>  0 0.20487639E+04</rscale>
<asrwt>0</asrwt>
<pdfrwt beam="1">  1        2 0.35325250E+00 0.20487639E+04</pdfrwt>
<pdfrwt beam="2">  1       -2 0.37304833E+00 0.20487639E+04</pdfrwt>
<totfact> 0.44514603E-02</totfact>
</mgrwt>
</event>
<event>
 4    1  0.1033139E-008  0.1015281E+04  0.7818608E-02  0.9291942E-01
         -2   -1    0    0    0  501 -0.00000000000E+00  0.00000000000E+00  0.12520760766E+04  0.12520760766E+04  0.25500000000E-02 0.  1.
          2   -1    0    0  501    0  0.00000000000E+00 -0.00000000000E+00 -0.10188395101E+04  0.10188395101E+04  0.25500000000E-02 0. -1.
    8880022    1    1    2    0    0  0.27299089476E+03 -0.96585722336E+03  0.61409115433E+03  0.11865512224E+04  0.15294330000E+03 0.  0.
    8880022    1    1    2    0    0 -0.27299089476E+03  0.96585722336E+03 -0.38085458785E+03  0.10843643643E+04  0.15294330000E+03 0.  0.
<mgrwt>
<rscale>  0 0.10152812E+04</rscale>
<asrwt>0</asrwt>
<pdfrwt beam="1">  1        2 0.15674454E+00 0.10152812E+04</pdfrwt>
<pdfrwt beam="2">  1       -2 0.19262709E+00 0.10152812E+04</pdfrwt>
<totfact> 0.36104581E+00</totfact>
</mgrwt>
</event>
<event>
 4    1  0.1033139E-008  0.5239383E+03  0.7818608E-02  0.1007713E+00
          2   -1    0    0  501    0  0.00000000000E+00  0.00000000000E+00  0.99003186221E+03  0.99003186222E+03  0.25500000000E-02 0. -1.
         -2   -1    0    0    0  501 -0.00000000000E+00 -0.00000000000E+00 -0.40384086510E+03  0.40384086510E+03  0.25500000000E-02 0.  1.
    8880022    1    1    2    0    0 -0.24019209682E+03  0.43980384151E+03 -0.97067328371E+02  0.53285399655E+03  0.15294330000E+03 0.  0.
    8880022    1    1    2    0    0  0.24019209682E+03 -0.43980384151E+03  0.68325832549E+03  0.86101873078E+03  0.15294330000E+03 0.  0.
<mgrwt>
<rscale>  0 0.52393827E+03</rscale>
<asrwt>0</asrwt>
<pdfrwt beam="1">  1        2 0.15231259E+00 0.52393827E+03</pdfrwt>
<pdfrwt beam="2">  1       -2 0.62129364E-01 0.52393827E+03</pdfrwt>
<totfact> 0.63792054E+01</totfact>
</mgrwt>
</event>
<event>
 4    1  0.1033139E-008  0.7230699E+03  0.7818608E-02  0.9678573E-01
          2   -1    0    0  501    0  0.00000000000E+00  0.00000000000E+00  0.17848841703E+04  0.17848841703E+04  0.25500000000E-02 0. -1.
         -2   -1    0    0    0  501 -0.00000000000E+00 -0.00000000000E+00 -0.32077750221E+03  0.32077750222E+03  0.25500000000E-02 0.  1.
    8880022    1    1    2    0    0  0.94660115514E+02 -0.70034128497E+03  0.42179766929E+03  0.83710416302E+03  0.15294330000E+03 0.  0.
    8880022    1    1    2    0    0 -0.94660115514E+02  0.70034128497E+03  0.10423089988E+04  0.12685575095E+04  0.15294330000E+03 0.  0.
<mgrwt>
<rscale>  0 0.72306992E+03</rscale>
<asrwt>0</asrwt>
<pdfrwt beam="1">  1        2 0.27459757E+00 0.72306992E+03</pdfrwt>
<pdfrwt beam="2">  1       -2 0.49350385E-01 0.72306992E+03</pdfrwt>
<totfact> 0.35255860E+01</totfact>
</mgrwt>
</event>
<event>
 4    1  0.1033139E-008  0.4298445E+03  0.7818608E-02  0.1033909E+00
         -2   -1    0    0    0  501 -0.00000000000E+00  0.00000000000E+00  0.44176675149E+03  0.44176675149E+03  0.25500000000E-02 0.  1.
          2   -1    0    0  501    0  0.00000000000E+00 -0.00000000000E+00 -0.23892114361E+04  0.23892114361E+04  0.25500000000E-02 0. -1.
    8880022    1    1    2    0    0 -0.36014603285E+03  0.17795908644E+03  0.31191645327E+03  0.53109144999E+03  0.15294330000E+03 0.  1.
    8880022    1    1    2    0    0  0.36014603285E+03 -0.17795908644E+03 -0.22593611379E+04  0.22998867376E+04  0.15294330000E+03 0.  0.
<mgrwt>
<rscale>  0 0.42984445E+03</rscale>
<asrwt>0</asrwt>
<pdfrwt beam="1">  1        2 0.36757098E+00 0.42984445E+03</pdfrwt>
<pdfrwt beam="2">  1       -2 0.67964117E-01 0.42984445E+03</pdfrwt>
<totfact> 0.89728327E+00</totfact>
</mgrwt>
</event>
<event>
 4    1  0.1033139E-008  0.4360326E+03  0.7818608E-02  0.1031971E+00
          2   -1    0    0  501    0  0.00000000000E+00  0.00000000000E+00  0.21381882546E+04  0.21381882546E+04  0.25500000000E-02 0. -1.
         -2   -1    0    0    0  501 -0.00000000000E+00 -0.00000000000E+00 -0.49197548939E+03  0.49197548939E+03  0.25500000000E-02 0.  1.
    8880022    1    1    2    0    0 -0.40795076884E+03  0.17576385013E+02 -0.36721519540E+03  0.57006263854E+03  0.15294330000E+03 0.  0.
    8880022    1    1    2    0    0  0.40795076884E+03 -0.17576385013E+02  0.20134279606E+04  0.20601011054E+04  0.15294330000E+03 0.  0.
<mgrwt>
<rscale>  0 0.43603258E+03</rscale>
<asrwt>0</asrwt>
<pdfrwt beam="1">  1        2 0.32895204E+00 0.43603258E+03</pdfrwt>
<pdfrwt beam="2">  1       -2 0.75688537E-01 0.43603258E+03</pdfrwt>
<totfact> 0.97045177E+00</totfact>
</mgrwt>
</event>
<event>
 4    1  0.1033139E-008  0.9779525E+03  0.7818608E-02  0.9333062E-01
         -2   -1    0    0    0  501 -0.00000000000E+00  0.00000000000E+00  0.18573239138E+04  0.18573239138E+04  0.25500000000E-02 0.  1.
          2   -1    0    0  501    0  0.00000000000E+00 -0.00000000000E+00 -0.73246188148E+03  0.73246188149E+03  0.25500000000E-02 0. -1.
    8880022    1    1    2    0    0  0.87632629827E+03  0.40626558344E+03 -0.14324139591E+03  0.98838719935E+03  0.15294330000E+03 0.  0.
    8880022    1    1    2    0    0 -0.87632629827E+03 -0.40626558344E+03  0.12681034282E+04  0.16013985959E+04  0.15294330000E+03 0.  0.
<mgrwt>
<rscale>  0 0.97795253E+03</rscale>
<asrwt>0</asrwt>
<pdfrwt beam="1">  1        2 0.11268644E+00 0.97795253E+03</pdfrwt>
<pdfrwt beam="2">  1       -2 0.28574214E+00 0.97795253E+03</pdfrwt>
<totfact> 0.15105621E+00</totfact>
</mgrwt>
</event>
<event>
 4    1  0.1033139E-008  0.1631116E+03  0.7818608E-02  0.1185228E+00
          2   -1    0    0  501    0  0.00000000000E+00  0.00000000000E+00  0.19022575236E+04  0.19022575236E+04  0.25500000000E-02 0. -1.
         -2   -1    0    0    0  501 -0.00000000000E+00 -0.00000000000E+00 -0.17308488100E+03  0.17308488102E+03  0.25500000000E-02 0.  1.
    8880022    1    1    2    0    0  0.56131081804E+02  0.79402499021E+01 -0.13027708079E+03  0.20875228551E+03  0.15294330000E+03 0.  0.
    8880022    1    1    2    0    0 -0.56131081804E+02 -0.79402499021E+01  0.18594497233E+04  0.18665901191E+04  0.15294330000E+03 0. -1.
<mgrwt>
<rscale>  0 0.16311161E+03</rscale>
<asrwt>0</asrwt>
<pdfrwt beam="1">  1        2 0.29265499E+00 0.16311161E+03</pdfrwt>
<pdfrwt beam="2">  1       -2 0.26628445E-01 0.16311161E+03</pdfrwt>
<totfact> 0.11147828E+02</totfact>
</mgrwt>
</event>
<event>
 4    1  0.1033139E-008  0.5809876E+03  0.7818608E-02  0.9945655E-01
          2   -1    0    0  501    0  0.00000000000E+00  0.00000000000E+00  0.12135956630E+04  0.12135956630E+04  0.25500000000E-02 0. -1.
         -2   -1    0    0    0  501 -0.00000000000E+00 -0.00000000000E+00 -0.68594075382E+03  0.68594075383E+03  0.25500000000E-02 0.  1.
    8880022    1    1    2    0    0  0.35332342311E+03  0.43510632108E+03  0.99614528179E+03  0.11531921034E+04  0.15294330000E+03 0.  0.
    8880022    1    1    2    0    0 -0.35332342311E+03 -0.43510632108E+03 -0.46849037259E+03  0.74634431343E+03  0.15294330000E+03 0.  0.
<mgrwt>
<rscale>  0 0.58098761E+03</rscale>
<asrwt>0</asrwt>
<pdfrwt beam="1">  1        2 0.18670702E+00 0.58098761E+03</pdfrwt>
<pdfrwt beam="2">  1       -2 0.10552935E+00 0.58098761E+03</pdfrwt>
<totfact> 0.14086996E+01</totfact>
</mgrwt>
</event>
<event>
 4    1  0.1033139E-008  0.5087422E+03  0.7818608E-02  0.1011522E+00
         -2   -1    0    0    0  501 -0.00000000000E+00  0.00000000000E+00  0.14208550540E+03  0.14208550543E+03  0.25500000000E-02 0.  1.
          2   -1    0    0  501    0  0.00000000000E+00 -0.00000000000E+00 -0.40331163844E+04  0.40331163844E+04  0.25500000000E-02 0. -1.
    8880022    1    1    2    0    0 -0.48207471535E+03  0.55053842439E+02 -0.34913933519E+04  0.35282638999E+04  0.15294330000E+03 0.  0.
    8880022    1    1    2    0    0  0.48207471535E+03 -0.55053842439E+02 -0.39963752719E+03  0.64693799000E+03  0.15294330000E+03 0.  0.
<mgrwt>
<rscale>  0 0.50874218E+03</rscale>
<asrwt>0</asrwt>
<pdfrwt beam="1">  1        2 0.62047936E+00 0.50874218E+03</pdfrwt>
<pdfrwt beam="2">  1       -2 0.21859312E-01 0.50874218E+03</pdfrwt>
<totfact> 0.68974919E+00</totfact>
</mgrwt>
</event>
<event>
 4    1  0.1033139E-008  0.1201570E+04  0.7818608E-02  0.9111483E-01
          2   -1    0    0  501    0  0.00000000000E+00  0.00000000000E+00  0.17058445331E+04  0.17058445331E+04  0.25500000000E-02 0. -1.
         -2   -1    0    0    0  501 -0.00000000000E+00 -0.00000000000E+00 -0.98646749865E+03  0.98646749866E+03  0.25500000000E-02 0.  1.
    8880022    1    1    2    0    0  0.63191054096E+03  0.10104796080E+04 -0.14762080639E+03  0.12106046116E+04  0.15294330000E+03 0.  0.
    8880022    1    1    2    0    0 -0.63191054096E+03 -0.10104796080E+04  0.86699784087E+03  0.14817074202E+04  0.15294330000E+03 0.  0.
<mgrwt>
<rscale>  0 0.12015705E+04</rscale>
<asrwt>0</asrwt>
<pdfrwt beam="1">  1        2 0.26243762E+00 0.12015705E+04</pdfrwt>
<pdfrwt beam="2">  1       -2 0.15176423E+00 0.12015705E+04</pdfrwt>
<totfact> 0.27476162E+00</totfact>
</mgrwt>
</event>
<event>
 4    1  0.1033139E-008  0.5577010E+03  0.7818608E-02  0.9997270E-01
         -2   -1    0    0    0  501 -0.00000000000E+00  0.00000000000E+00  0.13429791484E+04  0.13429791484E+04  0.25500000000E-02 0.  1.
          2   -1    0    0  501    0  0.00000000000E+00 -0.00000000000E+00 -0.49408953929E+03  0.49408953930E+03  0.25500000000E-02 0. -1.
    8880022    1    1    2    0    0 -0.37665732811E+03 -0.38179571242E+03 -0.24505552154E+03  0.60916547054E+03  0.15294330000E+03 0.  0.
    8880022    1    1    2    0    0  0.37665732811E+03  0.38179571242E+03  0.10939451306E+04  0.12279032171E+04  0.15294330000E+03 0.  0.
<mgrwt>
<rscale>  0 0.55770096E+03</rscale>
<asrwt>0</asrwt>
<pdfrwt beam="1">  1        2 0.76013776E-01 0.55770096E+03</pdfrwt>
<pdfrwt beam="2">  1       -2 0.20661217E+00 0.55770096E+03</pdfrwt>
<totfact> 0.78683511E+00</totfact>
</mgrwt>
</event>
<event>
 4    1  0.1033139E-008  0.1127238E+04  0.7818608E-02  0.9179043E-01
         -2   -1    0    0    0  501 -0.00000000000E+00  0.00000000000E+00  0.10495140732E+04  0.10495140732E+04  0.25500000000E-02 0.  1.
          2   -1    0    0  501    0  0.00000000000E+00 -0.00000000000E+00 -0.20833875801E+04  0.20833875801E+04  0.25500000000E-02 0. -1.
    8880022    1    1    2    0    0 -0.10973170565E+04 -0.20777420592E+03 -0.15307464302E+04  0.19010131851E+04  0.15294330000E+03 0.  0.
    8880022    1    1    2    0    0  0.10973170565E+04  0.20777420592E+03  0.49687292335E+03  0.12318884682E+04  0.15294330000E+03 0.  0.
<mgrwt>
<rscale>  0 0.11272384E+04</rscale>
<asrwt>0</asrwt>
<pdfrwt beam="1">  1        2 0.32052117E+00 0.11272384E+04</pdfrwt>
<pdfrwt beam="2">  1       -2 0.16146370E+00 0.11272384E+04</pdfrwt>
<totfact> 0.14480818E+00</totfact>
</mgrwt>
</event>
<event>
 4    1  0.1033139E-008  0.1125565E+04  0.7818608E-02  0.9180626E-01
         -2   -1    0    0    0  501 -0.00000000000E+00  0.00000000000E+00  0.14390643701E+04  0.14390643701E+04  0.25500000000E-02 0.  1.
          2   -1    0    0  501    0  0.00000000000E+00 -0.00000000000E+00 -0.15137570010E+04  0.15137570010E+04  0.25500000000E-02 0. -1.
    8880022    1    1    2    0    0 -0.88412704739E+03  0.67957709587E+03  0.91768250370E+03  0.14522529035E+04  0.15294330000E+03 0.  0.
    8880022    1    1    2    0    0  0.88412704739E+03 -0.67957709587E+03 -0.99237513462E+03  0.15005684676E+04  0.15294330000E+03 0. -1.
<mgrwt>
<rscale>  0 0.11255653E+04</rscale>
<asrwt>0</asrwt>
<pdfrwt beam="1">  1        2 0.23288569E+00 0.11255653E+04</pdfrwt>
<pdfrwt beam="2">  1       -2 0.22139452E+00 0.11255653E+04</pdfrwt>
<totfact> 0.11822268E+00</totfact>
</mgrwt>
</event>
<event>
 4    1  0.1033139E-008  0.5631475E+03  0.7818608E-02  0.9984958E-01
         -2   -1    0    0    0  501 -0.00000000000E+00  0.00000000000E+00  0.11634516608E+04  0.11634516608E+04  0.25500000000E-02 0.  1.
          2   -1    0    0  501    0  0.00000000000E+00 -0.00000000000E+00 -0.12911365871E+04  0.12911365872E+04  0.25500000000E-02 0. -1.
    8880022    1    1    2    0    0  0.63933777413E+01  0.54194331712E+03 -0.11539136971E+04  0.12839984064E+04  0.15294330000E+03 0.  0.
    8880022    1    1    2    0    0 -0.63933777413E+01 -0.54194331712E+03  0.10262287708E+04  0.11705898416E+04  0.15294330000E+03 0.  0.
<mgrwt>
<rscale>  0 0.56314748E+03</rscale>
<asrwt>0</asrwt>
<pdfrwt beam="1">  1        2 0.19863640E+00 0.56314748E+03</pdfrwt>
<pdfrwt beam="2">  1       -2 0.17899256E+00 0.56314748E+03</pdfrwt>
<totfact> 0.32708163E+00</totfact>
</mgrwt>
</event>
<event>
 4    1  0.1033139E-008  0.2163320E+03  0.7818608E-02  0.1136648E+00
          2   -1    0    0  501    0  0.00000000000E+00  0.00000000000E+00  0.12518852491E+04  0.12518852491E+04  0.25500000000E-02 0. -1.
         -2   -1    0    0    0  501 -0.00000000000E+00 -0.00000000000E+00 -0.31478485013E+03  0.31478485014E+03  0.25500000000E-02 0.  1.
    8880022    1    1    2    0    0 -0.12928298095E+02 -0.15244919820E+03 -0.26680153442E+03  0.34348596872E+03  0.15294330000E+03 0.  0.
    8880022    1    1    2    0    0  0.12928298095E+02  0.15244919820E+03  0.12039019334E+04  0.12231841306E+04  0.15294330000E+03 0.  0.
<mgrwt>
<rscale>  0 0.21633204E+03</rscale>
<asrwt>0</asrwt>
<pdfrwt beam="1">  1        2 0.19259773E+00 0.21633204E+03</pdfrwt>
<pdfrwt beam="2">  1       -2 0.48428438E-01 0.21633204E+03</pdfrwt>
<totfact> 0.78690300E+01</totfact>
</mgrwt>
</event>
<event>
 4    1  0.1033139E-008  0.5052083E+03  0.7818608E-02  0.1012428E+00
         -2   -1    0    0    0  501 -0.00000000000E+00  0.00000000000E+00  0.14970913152E+04  0.14970913152E+04  0.25500000000E-02 0.  1.
          2   -1    0    0  501    0  0.00000000000E+00 -0.00000000000E+00 -0.97044960380E+03  0.97044960380E+03  0.25500000000E-02 0. -1.
    8880022    1    1    2    0    0 -0.32395294527E+03 -0.35622782249E+03 -0.85684561327E+03  0.99469584812E+03  0.15294330000E+03 0. -1.
    8880022    1    1    2    0    0  0.32395294527E+03  0.35622782249E+03  0.13834873246E+04  0.14728450709E+04  0.15294330000E+03 0.  0.
<mgrwt>
<rscale>  0 0.50520830E+03</rscale>
<asrwt>0</asrwt>
<pdfrwt beam="1">  1        2 0.14929994E+00 0.50520830E+03</pdfrwt>
<pdfrwt beam="2">  1       -2 0.23032174E+00 0.50520830E+03</pdfrwt>
<totfact> 0.24189746E+00</totfact>
</mgrwt>
</event>
<event>
 4    1  0.1033139E-008  0.8382377E+03  0.7818608E-02  0.9506261E-01
          2   -1    0    0  501    0  0.00000000000E+00  0.00000000000E+00  0.66766925468E+03  0.66766925468E+03  0.25500000000E-02 0. -1.
         -2   -1    0    0    0  501 -0.00000000000E+00 -0.00000000000E+00 -0.11650809159E+04  0.11650809159E+04  0.25500000000E-02 0.  1.
    8880022    1    1    2    0    0 -0.82184099706E+03 -0.61872510907E+02 -0.53371372432E+03  0.99372673538E+03  0.15294330000E+03 0.  0.
    8880022    1    1    2    0    0  0.82184099706E+03  0.61872510907E+02  0.36302063072E+02  0.83902343523E+03  0.15294330000E+03 0.  0.
<mgrwt>
<rscale>  0 0.83823773E+03</rscale>
<asrwt>0</asrwt>
<pdfrwt beam="1">  1        2 0.10271835E+00 0.83823773E+03</pdfrwt>
<pdfrwt beam="2">  1       -2 0.17924322E+00 0.83823773E+03</pdfrwt>
<totfact> 0.80454652E+00</totfact>
</mgrwt>
</event>
<event>
 4    1  0.1033139E-008  0.6742039E+03  0.7818608E-02  0.9762393E-01
          2   -1    0    0  501    0  0.00000000000E+00  0.00000000000E+00  0.98922160488E+03  0.98922160488E+03  0.25500000000E-02 0. -1.
         -2   -1    0    0    0  501 -0.00000000000E+00 -0.00000000000E+00 -0.71717527946E+03  0.71717527946E+03  0.25500000000E-02 0.  1.
    8880022    1    1    2    0    0  0.20313397413E+03 -0.62441641413E+03 -0.37538860050E+03  0.77166542237E+03  0.15294330000E+03 0.  0.
    8880022    1    1    2    0    0 -0.20313397413E+03  0.62441641413E+03  0.64743492592E+03  0.93473146197E+03  0.15294330000E+03 0.  0.
<mgrwt>
<rscale>  0 0.67420392E+03</rscale>
<asrwt>0</asrwt>
<pdfrwt beam="1">  1        2 0.15218794E+00 0.67420392E+03</pdfrwt>
<pdfrwt beam="2">  1       -2 0.11033466E+00 0.67420392E+03</pdfrwt>
<totfact> 0.17116561E+01</totfact>
</mgrwt>
</event>
<event>
 4    1  0.1033139E-008  0.1194424E+04  0.7818608E-02  0.9117751E-01
         -2   -1    0    0    0  501 -0.00000000000E+00  0.00000000000E+00  0.13016210810E+04  0.13016210810E+04  0.25500000000E-02 0.  1.
          2   -1    0    0  501    0  0.00000000000E+00 -0.00000000000E+00 -0.29604887342E+04  0.29604887342E+04  0.25500000000E-02 0. -1.
    8880022    1    1    2    0    0  0.96336349528E+03 -0.68933875786E+03 -0.25206003146E+04  0.27892785351E+04  0.15294330000E+03 0.  0.
    8880022    1    1    2    0    0 -0.96336349528E+03  0.68933875786E+03  0.86173266135E+03  0.14728312801E+04  0.15294330000E+03 0.  0.
<mgrwt>
<rscale>  0 0.11944240E+04</rscale>
<asrwt>0</asrwt>
<pdfrwt beam="1">  1        2 0.45545980E+00 0.11944240E+04</pdfrwt>
<pdfrwt beam="2">  1       -2 0.20024940E+00 0.11944240E+04</pdfrwt>
<totfact> 0.24008042E-01</totfact>
</mgrwt>
</event>
<event>
 4    1  0.1033139E-008  0.1152960E+04  0.7818608E-02  0.9155057E-01
         -2   -1    0    0    0  501 -0.00000000000E+00  0.00000000000E+00  0.52524612591E+03  0.52524612592E+03  0.25500000000E-02 0.  1.
          2   -1    0    0  501    0  0.00000000000E+00 -0.00000000000E+00 -0.29716789996E+04  0.29716789996E+04  0.25500000000E-02 0. -1.
    8880022    1    1    2    0    0 -0.10501429060E+04 -0.45069298435E+03 -0.54978484794E+03  0.12773328937E+04  0.15294330000E+03 0.  0.
    8880022    1    1    2    0    0  0.10501429060E+04  0.45069298435E+03 -0.18966480257E+04  0.22195922319E+04  0.15294330000E+03 0.  0.
<mgrwt>
<rscale>  0 0.11529596E+04</rscale>
<asrwt>0</asrwt>
<pdfrwt beam="1">  1        2 0.45718137E+00 0.11529596E+04</pdfrwt>
<pdfrwt beam="2">  1       -2 0.80807098E-01 0.11529596E+04</pdfrwt>
<totfact> 0.24481990E+00</totfact>
</mgrwt>
</event>
<event>
 4    1  0.1033139E-008  0.1004966E+04  0.7818608E-02  0.9303115E-01
         -2   -1    0    0    0  501 -0.00000000000E+00  0.00000000000E+00  0.78836237940E+03  0.78836237941E+03  0.25500000000E-02 0.  1.
          2   -1    0    0  501    0  0.00000000000E+00 -0.00000000000E+00 -0.14425018108E+04  0.14425018108E+04  0.25500000000E-02 0. -1.
    8880022    1    1    2    0    0  0.90145685382E+03  0.41706220596E+03 -0.70020225823E+03  0.12248429280E+04  0.15294330000E+03 0.  0.
    8880022    1    1    2    0    0 -0.90145685382E+03 -0.41706220596E+03  0.46062826814E+02  0.10060212622E+04  0.15294330000E+03 0.  0.
<mgrwt>
<rscale>  0 0.10049662E+04</rscale>
<asrwt>0</asrwt>
<pdfrwt beam="1">  1        2 0.22192336E+00 0.10049662E+04</pdfrwt>
<pdfrwt beam="2">  1       -2 0.12128652E+00 0.10049662E+04</pdfrwt>
<totfact> 0.70266083E+00</totfact>
</mgrwt>
</event>
<event>
 4    1  0.1033139E-008  0.4260432E+03  0.7818608E-02  0.1035117E+00
          2   -1    0    0  501    0  0.00000000000E+00  0.00000000000E+00  0.27625130241E+04  0.27625130241E+04  0.25500000000E-02 0. -1.
         -2   -1    0    0    0  501 -0.00000000000E+00 -0.00000000000E+00 -0.31123866975E+03  0.31123866976E+03  0.25500000000E-02 0.  1.
    8880022    1    1    2    0    0 -0.31635982876E+03  0.24090997106E+03  0.25906820639E+04  0.26254802160E+04  0.15294330000E+03 0.  0.
    8880022    1    1    2    0    0  0.31635982876E+03 -0.24090997106E+03 -0.13940770951E+03  0.44827147790E+03  0.15294330000E+03 0.  0.
<mgrwt>
<rscale>  0 0.42604320E+03</rscale>
<asrwt>0</asrwt>
<pdfrwt beam="1">  1        2 0.42500201E+00 0.42604320E+03</pdfrwt>
<pdfrwt beam="2">  1       -2 0.47882871E-01 0.42604320E+03</pdfrwt>
<totfact> 0.11448731E+01</totfact>
</mgrwt>
</event>
<event>
 4    1  0.1033139E-008  0.4002528E+03  0.7818608E-02  0.1043692E+00
         -2   -1    0    0    0  501 -0.00000000000E+00  0.00000000000E+00  0.24592881759E+03  0.24592881760E+03  0.25500000000E-02 0.  1.
          2   -1    0    0  501    0  0.00000000000E+00 -0.00000000000E+00 -0.21623758293E+04  0.21623758293E+04  0.25500000000E-02 0. -1.
    8880022    1    1    2    0    0 -0.33424536834E+02  0.36836592642E+03 -0.19647891389E+04  0.20051430544E+04  0.15294330000E+03 0. -1.
    8880022    1    1    2    0    0  0.33424536834E+02 -0.36836592642E+03  0.48342127139E+02  0.40316159252E+03  0.15294330000E+03 0.  1.
<mgrwt>
<rscale>  0 0.40025281E+03</rscale>
<asrwt>0</asrwt>
<pdfrwt beam="1">  1        2 0.33267319E+00 0.40025281E+03</pdfrwt>
<pdfrwt beam="2">  1       -2 0.37835204E-01 0.40025281E+03</pdfrwt>
<totfact> 0.39357094E+01</totfact>
</mgrwt>
</event>
<event>
 4    1  0.1033139E-008  0.8425164E+03  0.7818608E-02  0.9500437E-01
         -2   -1    0    0    0  501 -0.00000000000E+00  0.00000000000E+00  0.32818876577E+03  0.32818876578E+03  0.25500000000E-02 0.  1.
          2   -1    0    0  501    0  0.00000000000E+00 -0.00000000000E+00 -0.29891644388E+04  0.29891644388E+04  0.25500000000E-02 0. -1.
    8880022    1    1    2    0    0  0.78371148726E+03 -0.26877216348E+03 -0.45841878136E+03  0.95915671464E+03  0.15294330000E+03 0.  0.
    8880022    1    1    2    0    0 -0.78371148726E+03  0.26877216348E+03 -0.22025568917E+04  0.23581964900E+04  0.15294330000E+03 0.  0.
<mgrwt>
<rscale>  0 0.84251636E+03</rscale>
<asrwt>0</asrwt>
<pdfrwt beam="1">  1        2 0.45987143E+00 0.84251636E+03</pdfrwt>
<pdfrwt beam="2">  1       -2 0.50490582E-01 0.84251636E+03</pdfrwt>
<totfact> 0.68712737E+00</totfact>
</mgrwt>
</event>
<event>
 4    1  0.1033139E-008  0.8331851E+03  0.7818608E-02  0.9513187E-01
          2   -1    0    0  501    0  0.00000000000E+00  0.00000000000E+00  0.15536093661E+04  0.15536093661E+04  0.25500000000E-02 0. -1.
         -2   -1    0    0    0  501 -0.00000000000E+00 -0.00000000000E+00 -0.97342594888E+03  0.97342594888E+03  0.25500000000E-02 0.  1.
    8880022    1    1    2    0    0 -0.55048033032E+03  0.60644633759E+03 -0.63923647461E+03  0.10501526927E+04  0.15294330000E+03 0.  0.
    8880022    1    1    2    0    0  0.55048033032E+03 -0.60644633759E+03  0.12194198918E+04  0.14768826223E+04  0.15294330000E+03 0.  0.
<mgrwt>
<rscale>  0 0.83318510E+03</rscale>
<asrwt>0</asrwt>
<pdfrwt beam="1">  1        2 0.23901682E+00 0.83318510E+03</pdfrwt>
<pdfrwt beam="2">  1       -2 0.14975784E+00 0.83318510E+03</pdfrwt>
<totfact> 0.36157492E+00</totfact>
</mgrwt>
</event>
<event>
 4    1  0.1033139E-008  0.8723305E+03  0.7818608E-02  0.9460846E-01
          2   -1    0    0  501    0  0.00000000000E+00  0.00000000000E+00  0.23674011302E+04  0.23674011302E+04  0.25500000000E-02 0. -1.
         -2   -1    0    0    0  501 -0.00000000000E+00 -0.00000000000E+00 -0.43763029134E+03  0.43763029134E+03  0.25500000000E-02 0.  1.
    8880022    1    1    2    0    0 -0.72315111781E+03  0.46327239273E+03  0.16875758803E+04  0.18997033594E+04  0.15294330000E+03 0.  0.
    8880022    1    1    2    0    0  0.72315111781E+03 -0.46327239273E+03  0.24219495854E+03  0.90532806209E+03  0.15294330000E+03 0.  0.
<mgrwt>
<rscale>  0 0.87233050E+03</rscale>
<asrwt>0</asrwt>
<pdfrwt beam="1">  1        2 0.36421555E+00 0.87233050E+03</pdfrwt>
<pdfrwt beam="2">  1       -2 0.67327738E-01 0.87233050E+03</pdfrwt>
<totfact> 0.86136256E+00</totfact>
</mgrwt>
</event>
<event>
 4    1  0.1033139E-008  0.9406523E+03  0.7818608E-02  0.9376144E-01
         -2   -1    0    0    0  501 -0.00000000000E+00  0.00000000000E+00  0.73332863176E+03  0.73332863176E+03  0.25500000000E-02 0.  1.
          2   -1    0    0  501    0  0.00000000000E+00 -0.00000000000E+00 -0.15353967432E+04  0.15353967432E+04  0.25500000000E-02 0. -1.
    8880022    1    1    2    0    0 -0.27311665383E+03 -0.88704131883E+03 -0.92597721769E+03  0.13199471461E+04  0.15294330000E+03 0.  0.
    8880022    1    1    2    0    0  0.27311665383E+03  0.88704131883E+03  0.12390910623E+03  0.94877822884E+03  0.15294330000E+03 0.  0.
<mgrwt>
<rscale>  0 0.94065225E+03</rscale>
<asrwt>0</asrwt>
<pdfrwt beam="1">  1        2 0.23621488E+00 0.94065225E+03</pdfrwt>
<pdfrwt beam="2">  1       -2 0.11281979E+00 0.94065225E+03</pdfrwt>
<totfact> 0.74994014E+00</totfact>
</mgrwt>
</event>
<event>
 4    1  0.1033139E-008  0.4700751E+03  0.7818608E-02  0.1021899E+00
         -2   -1    0    0    0  501 -0.00000000000E+00  0.00000000000E+00  0.34660408270E+03  0.34660408271E+03  0.25500000000E-02 0.  1.
          2   -1    0    0  501    0  0.00000000000E+00 -0.00000000000E+00 -0.21381789115E+04  0.21381789115E+04  0.25500000000E-02 0. -1.
    8880022    1    1    2    0    0  0.38980987386E+03  0.21360535398E+03 -0.19366081624E+04  0.19928426463E+04  0.15294330000E+03 0.  0.
    8880022    1    1    2    0    0 -0.38980987386E+03 -0.21360535398E+03  0.14503333367E+03  0.49194034791E+03  0.15294330000E+03 0.  0.
<mgrwt>
<rscale>  0 0.47007514E+03</rscale>
<asrwt>0</asrwt>
<pdfrwt beam="1">  1        2 0.32895059E+00 0.47007514E+03</pdfrwt>
<pdfrwt beam="2">  1       -2 0.53323706E-01 0.47007514E+03</pdfrwt>
<totfact> 0.20235687E+01</totfact>
</mgrwt>
</event>
<event>
 4    1  0.1033139E-008  0.1050742E+04  0.7818608E-02  0.9254578E-01
          2   -1    0    0  501    0  0.00000000000E+00  0.00000000000E+00  0.12751573392E+04  0.12751573393E+04  0.25500000000E-02 0. -1.
         -2   -1    0    0    0  501 -0.00000000000E+00 -0.00000000000E+00 -0.13573547263E+04  0.13573547263E+04  0.25500000000E-02 0.  1.
    8880022    1    1    2    0    0  0.16865144631E+03 -0.10257796733E+04  0.75098312495E+03  0.12915241211E+04  0.15294330000E+03 0.  0.
    8880022    1    1    2    0    0 -0.16865144631E+03  0.10257796733E+04 -0.83318051204E+03  0.13409879445E+04  0.15294330000E+03 0.  0.
<mgrwt>
<rscale>  0 0.10507421E+04</rscale>
<asrwt>0</asrwt>
<pdfrwt beam="1">  1        2 0.19617805E+00 0.10507421E+04</pdfrwt>
<pdfrwt beam="2">  1       -2 0.20882380E+00 0.10507421E+04</pdfrwt>
<totfact> 0.19657890E+00</totfact>
</mgrwt>
</event>
<event>
 4    1  0.1033139E-008  0.1004185E+04  0.7818608E-02  0.9303967E-01
         -2   -1    0    0    0  501 -0.00000000000E+00  0.00000000000E+00  0.96929603251E+03  0.96929603252E+03  0.25500000000E-02 0.  1.
          2   -1    0    0  501    0  0.00000000000E+00 -0.00000000000E+00 -0.28988686428E+04  0.28988686428E+04  0.25500000000E-02 0. -1.
    8880022    1    1    2    0    0  0.94720352413E+03 -0.29631215633E+03 -0.25134123897E+04  0.27065899032E+04  0.15294330000E+03 0.  0.
    8880022    1    1    2    0    0 -0.94720352413E+03  0.29631215633E+03  0.58383977947E+03  0.11615747721E+04  0.15294330000E+03 0.  0.
<mgrwt>
<rscale>  0 0.10041848E+04</rscale>
<asrwt>0</asrwt>
<pdfrwt beam="1">  1        2 0.44597979E+00 0.10041848E+04</pdfrwt>
<pdfrwt beam="2">  1       -2 0.14912247E+00 0.10041848E+04</pdfrwt>
<totfact> 0.62068483E-01</totfact>
</mgrwt>
</event>
<event>
 4    1  0.1033139E-008  0.1155363E+04  0.7818608E-02  0.9152850E-01
          2   -1    0    0  501    0  0.00000000000E+00  0.00000000000E+00  0.27761361516E+04  0.27761361516E+04  0.25500000000E-02 0. -1.
         -2   -1    0    0    0  501 -0.00000000000E+00 -0.00000000000E+00 -0.10206944572E+04  0.10206944572E+04  0.25500000000E-02 0.  1.
    8880022    1    1    2    0    0 -0.37457130075E+03  0.10822051072E+04  0.22583712912E+04  0.25367506964E+04  0.15294330000E+03 0.  0.
    8880022    1    1    2    0    0  0.37457130075E+03 -0.10822051072E+04 -0.50292959684E+03  0.12600799125E+04  0.15294330000E+03 0.  0.
<mgrwt>
<rscale>  0 0.11553628E+04</rscale>
<asrwt>0</asrwt>
<pdfrwt beam="1">  1        2 0.42709787E+00 0.11553628E+04</pdfrwt>
<pdfrwt beam="2">  1       -2 0.15702992E+00 0.11553628E+04</pdfrwt>
<totfact> 0.62543893E-01</totfact>
</mgrwt>
</event>
<event>
 4    1  0.1033139E-008  0.3188088E+03  0.7818608E-02  0.1076199E+00
          2   -1    0    0  501    0  0.00000000000E+00  0.00000000000E+00  0.29308456984E+03  0.29308456985E+03  0.25500000000E-02 0. -1.
         -2   -1    0    0    0  501 -0.00000000000E+00 -0.00000000000E+00 -0.89987249453E+03  0.89987249454E+03  0.25500000000E-02 0.  1.
    8880022    1    1    2    0    0  0.22047240420E+02  0.27885720749E+03  0.16423232090E+03  0.35862422007E+03  0.15294330000E+03 0.  0.
    8880022    1    1    2    0    0 -0.22047240420E+02 -0.27885720749E+03 -0.77102024559E+03  0.83433284432E+03  0.15294330000E+03 0.  0.
<mgrwt>
<rscale>  0 0.31880884E+03</rscale>
<asrwt>0</asrwt>
<pdfrwt beam="1">  1        2 0.45089934E-01 0.31880884E+03</pdfrwt>
<pdfrwt beam="2">  1       -2 0.13844192E+00 0.31880884E+03</pdfrwt>
<totfact> 0.43782425E+01</totfact>
</mgrwt>
</event>
<event>
 4    1  0.1033139E-008  0.1740331E+04  0.7818608E-02  0.8738691E-01
          2   -1    0    0  501    0  0.00000000000E+00  0.00000000000E+00  0.29698974498E+04  0.29698974498E+04  0.25500000000E-02 0. -1.
         -2   -1    0    0    0  501 -0.00000000000E+00 -0.00000000000E+00 -0.13515343377E+04  0.13515343377E+04  0.25500000000E-02 0.  1.
    8880022    1    1    2    0    0  0.16285173956E+04  0.59438193043E+03 -0.26127373613E+03  0.17598336299E+04  0.15294330000E+03 0.  0.
    8880022    1    1    2    0    0 -0.16285173956E+04 -0.59438193043E+03  0.18796368482E+04  0.25615981576E+04  0.15294330000E+03 0.  0.
<mgrwt>
<rscale>  0 0.17403306E+04</rscale>
<asrwt>0</asrwt>
<pdfrwt beam="1">  1        2 0.45690729E+00 0.17403306E+04</pdfrwt>
<pdfrwt beam="2">  1       -2 0.20792836E+00 0.17403306E+04</pdfrwt>
<totfact> 0.19670228E-01</totfact>
</mgrwt>
</event>
<event>
 4    1  0.1033139E-008  0.1250393E+04  0.7818608E-02  0.9069856E-01
          2   -1    0    0  501    0  0.00000000000E+00  0.00000000000E+00  0.18935429944E+04  0.18935429944E+04  0.25500000000E-02 0. -1.
         -2   -1    0    0    0  501 -0.00000000000E+00 -0.00000000000E+00 -0.10067713924E+04  0.10067713924E+04  0.25500000000E-02 0.  1.
    8880022    1    1    2    0    0  0.33735417918E+03 -0.11942706531E+04  0.10583998800E+04  0.16381978495E+04  0.15294330000E+03 0.  0.
    8880022    1    1    2    0    0 -0.33735417918E+03  0.11942706531E+04 -0.17162827796E+03  0.12621165374E+04  0.15294330000E+03 0.  0.
<mgrwt>
<rscale>  0 0.12503927E+04</rscale>
<asrwt>0</asrwt>
<pdfrwt beam="1">  1        2 0.29131431E+00 0.12503927E+04</pdfrwt>
<pdfrwt beam="2">  1       -2 0.15488791E+00 0.12503927E+04</pdfrwt>
<totfact> 0.20366876E+00</totfact>
</mgrwt>
</event>
<event>
 4    1  0.1033139E-008  0.1428939E+04  0.7818608E-02  0.8933133E-01
         -2   -1    0    0    0  501 -0.00000000000E+00  0.00000000000E+00  0.25933570436E+04  0.25933570436E+04  0.25500000000E-02 0.  1.
          2   -1    0    0  501    0  0.00000000000E+00 -0.00000000000E+00 -0.18462062851E+04  0.18462062851E+04  0.25500000000E-02 0. -1.
    8880022    1    1    2    0    0 -0.96691003020E+03  0.10409418453E+04 -0.13075096911E+04  0.19368655547E+04  0.15294330000E+03 0.  0.
    8880022    1    1    2    0    0  0.96691003020E+03 -0.10409418453E+04  0.20546604496E+04  0.25026977739E+04  0.15294330000E+03 0.  0.
<mgrwt>
<rscale>  0 0.14289390E+04</rscale>
<asrwt>0</asrwt>
<pdfrwt beam="1">  1        2 0.28403174E+00 0.14289390E+04</pdfrwt>
<pdfrwt beam="2">  1       -2 0.39897801E+00 0.14289390E+04</pdfrwt>
<totfact> 0.58222436E-02</totfact>
</mgrwt>
</event>
<event>
 4    1  0.1033139E-008  0.1869609E+04  0.7818608E-02  0.8670133E-01
          2   -1    0    0  501    0  0.00000000000E+00  0.00000000000E+00  0.36230339357E+04  0.36230339357E+04  0.25500000000E-02 0. -1.
         -2   -1    0    0    0  501 -0.00000000000E+00 -0.00000000000E+00 -0.13829450347E+04  0.13829450347E+04  0.25500000000E-02 0.  1.
    8880022    1    1    2    0    0  0.13155530092E+04  0.13196086337E+04  0.24963958494E+04  0.31188829020E+04  0.15294330000E+03 0.  0.
    8880022    1    1    2    0    0 -0.13155530092E+04 -0.13196086337E+04 -0.25630694847E+03  0.18870960684E+04  0.15294330000E+03 0.  0.
<mgrwt>
<rscale>  0 0.18696091E+04</rscale>
<asrwt>0</asrwt>
<pdfrwt beam="1">  1        2 0.55738983E+00 0.18696091E+04</pdfrwt>
<pdfrwt beam="2">  1       -2 0.21276078E+00 0.18696091E+04</pdfrwt>
<totfact> 0.66127764E-02</totfact>
</mgrwt>
</event>
<event>
 4    1  0.1033139E-008  0.1633349E+04  0.7818608E-02  0.8800318E-01
         -2   -1    0    0    0  501 -0.00000000000E+00  0.00000000000E+00  0.17921557081E+04  0.17921557082E+04  0.25500000000E-02 0.  1.
          2   -1    0    0  501    0  0.00000000000E+00 -0.00000000000E+00 -0.21732776893E+04  0.21732776893E+04  0.25500000000E-02 0. -1.
    8880022    1    1    2    0    0 -0.15856893675E+04 -0.36059343192E+03  0.92230111162E+03  0.18757583498E+04  0.15294330000E+03 0.  0.
    8880022    1    1    2    0    0  0.15856893675E+04  0.36059343192E+03 -0.13034230928E+04  0.20896750477E+04  0.15294330000E+03 0.  0.
<mgrwt>
<rscale>  0 0.16333493E+04</rscale>
<asrwt>0</asrwt>
<pdfrwt beam="1">  1        2 0.33435042E+00 0.16333493E+04</pdfrwt>
<pdfrwt beam="2">  1       -2 0.27571626E+00 0.16333493E+04</pdfrwt>
<totfact> 0.22072597E-01</totfact>
</mgrwt>
</event>
<event>
 4    1  0.1033139E-008  0.6471769E+03  0.7818608E-02  0.9812091E-01
          2   -1    0    0  501    0  0.00000000000E+00  0.00000000000E+00  0.20823449226E+04  0.20823449226E+04  0.25500000000E-02 0. -1.
         -2   -1    0    0    0  501 -0.00000000000E+00 -0.00000000000E+00 -0.61537900118E+03  0.61537900118E+03  0.25500000000E-02 0.  1.
    8880022    1    1    2    0    0  0.23964660927E+03 -0.58139127393E+03 -0.37319916689E+03  0.74707133657E+03  0.15294330000E+03 0.  0.
    8880022    1    1    2    0    0 -0.23964660927E+03  0.58139127393E+03  0.18401650883E+04  0.19506525872E+04  0.15294330000E+03 0.  0.
<mgrwt>
<rscale>  0 0.64717692E+03</rscale>
<asrwt>0</asrwt>
<pdfrwt beam="1">  1        2 0.32036076E+00 0.64717692E+03</pdfrwt>
<pdfrwt beam="2">  1       -2 0.94673692E-01 0.64717692E+03</pdfrwt>
<totfact> 0.59702623E+00</totfact>
</mgrwt>
</event>
<event>
 4    1  0.1033139E-008  0.8289872E+03  0.7818608E-02  0.9518982E-01
          2   -1    0    0  501    0  0.00000000000E+00  0.00000000000E+00  0.34876560602E+04  0.34876560602E+04  0.25500000000E-02 0. -1.
         -2   -1    0    0    0  501 -0.00000000000E+00 -0.00000000000E+00 -0.67422273389E+03  0.67422273389E+03  0.25500000000E-02 0.  1.
    8880022    1    1    2    0    0 -0.19226806148E+03  0.79174561562E+03 -0.34393010829E+03  0.89750080764E+03  0.15294330000E+03 0.  0.
    8880022    1    1    2    0    0  0.19226806148E+03 -0.79174561562E+03  0.31573634346E+04  0.32643779864E+04  0.15294330000E+03 0.  0.
<mgrwt>
<rscale>  0 0.82898720E+03</rscale>
<asrwt>0</asrwt>
<pdfrwt beam="1">  1        2 0.53656248E+00 0.82898720E+03</pdfrwt>
<pdfrwt beam="2">  1       -2 0.10372657E+00 0.82898720E+03</pdfrwt>
<totfact> 0.67075150E-01</totfact>
</mgrwt>
</event>
<event>
 4    1  0.1218660E-008  0.1065087E+04  0.7818608E-02  0.9239905E-01
          2   -1    0    0  501    0  0.00000000000E+00  0.00000000000E+00  0.17746621512E+04  0.17746621512E+04  0.25500000000E-02 0. -1.
         -2   -1    0    0    0  501 -0.00000000000E+00 -0.00000000000E+00 -0.16895899902E+04  0.16895899902E+04  0.25500000000E-02 0.  1.
    8880022    1    1    2    0    0  0.48551190683E+03  0.93557309293E+03  0.14082467837E+04  0.17656640339E+04  0.15294330000E+03 0.  0.
    8880022    1    1    2    0    0 -0.48551190683E+03 -0.93557309293E+03 -0.13231746227E+04  0.16985881075E+04  0.15294330000E+03 0.  0.
<mgrwt>
<rscale>  0 0.10650871E+04</rscale>
<asrwt>0</asrwt>
<pdfrwt beam="1">  1        2 0.27302495E+00 0.10650871E+04</pdfrwt>
<pdfrwt beam="2">  1       -2 0.25993692E+00 0.10650871E+04</pdfrwt>
<totfact> 0.49353431E-01</totfact>
</mgrwt>
</event>
<event>
 4    1  0.1033139E-008  0.8407152E+03  0.7818608E-02  0.9502884E-01
          2   -1    0    0  501    0  0.00000000000E+00  0.00000000000E+00  0.41129513800E+04  0.41129513800E+04  0.25500000000E-02 0. -1.
         -2   -1    0    0    0  501 -0.00000000000E+00 -0.00000000000E+00 -0.21465896585E+03  0.21465896586E+03  0.25500000000E-02 0.  1.
    8880022    1    1    2    0    0  0.60696911178E+03 -0.56124758804E+03  0.98282454296E+03  0.12933468572E+04  0.15294330000E+03 0.  0.
    8880022    1    1    2    0    0 -0.60696911178E+03  0.56124758804E+03  0.29154678712E+04  0.30342634887E+04  0.15294330000E+03 0. -1.
<mgrwt>
<rscale>  0 0.84071518E+03</rscale>
<asrwt>0</asrwt>
<pdfrwt beam="1">  1        2 0.63276166E+00 0.84071518E+03</pdfrwt>
<pdfrwt beam="2">  1       -2 0.33024461E-01 0.84071518E+03</pdfrwt>
<totfact> 0.25770405E+00</totfact>
</mgrwt>
</event>
<event>
 4    1  0.1033139E-008  0.1078394E+04  0.7818608E-02  0.9226511E-01
          2   -1    0    0  501    0  0.00000000000E+00  0.00000000000E+00  0.11871543305E+04  0.11871543305E+04  0.25500000000E-02 0. -1.
         -2   -1    0    0    0  501 -0.00000000000E+00 -0.00000000000E+00 -0.15559358301E+04  0.15559358301E+04  0.25500000000E-02 0.  1.
    8880022    1    1    2    0    0  0.64481123338E+03  0.85074063013E+03  0.65035303239E+03  0.12593219867E+04  0.15294330000E+03 0.  0.
    8880022    1    1    2    0    0 -0.64481123338E+03 -0.85074063013E+03 -0.10191345320E+04  0.14837681739E+04  0.15294330000E+03 0.  0.
<mgrwt>
<rscale>  0 0.10783936E+04</rscale>
<asrwt>0</asrwt>
<pdfrwt beam="1">  1        2 0.18263913E+00 0.10783936E+04</pdfrwt>
<pdfrwt beam="2">  1       -2 0.23937474E+00 0.10783936E+04</pdfrwt>
<totfact> 0.14205209E+00</totfact>
</mgrwt>
</event>
<event>
 4    1  0.1033139E-008  0.5379962E+03  0.7818608E-02  0.1004311E+00
         -2   -1    0    0    0  501 -0.00000000000E+00  0.00000000000E+00  0.15661681033E+04  0.15661681033E+04  0.25500000000E-02 0.  1.
          2   -1    0    0  501    0  0.00000000000E+00 -0.00000000000E+00 -0.83261623010E+03  0.83261623011E+03  0.25500000000E-02 0. -1.
    8880022    1    1    2    0    0  0.24694589985E+03  0.45284208297E+03  0.14247185538E+04  0.15229126174E+04  0.15294330000E+03 0.  0.
    8880022    1    1    2    0    0 -0.24694589985E+03 -0.45284208297E+03 -0.69116668061E+03  0.87587171604E+03  0.15294330000E+03 0. -1.
<mgrwt>
<rscale>  0 0.53799617E+03</rscale>
<asrwt>0</asrwt>
<pdfrwt beam="1">  1        2 0.12809481E+00 0.53799617E+03</pdfrwt>
<pdfrwt beam="2">  1       -2 0.24094894E+00 0.53799617E+03</pdfrwt>
<totfact> 0.25551466E+00</totfact>
</mgrwt>
</event>
<event>
 4    1  0.1033139E-008  0.7243403E+03  0.7818608E-02  0.9676489E-01
          2   -1    0    0  501    0  0.00000000000E+00  0.00000000000E+00  0.67567637520E+03  0.67567637520E+03  0.25500000000E-02 0. -1.
         -2   -1    0    0    0  501 -0.00000000000E+00 -0.00000000000E+00 -0.10693987400E+04  0.10693987400E+04  0.25500000000E-02 0.  1.
    8880022    1    1    2    0    0 -0.42205558597E+03  0.56845956776E+03 -0.65349314202E+03  0.97556247238E+03  0.15294330000E+03 0.  0.
    8880022    1    1    2    0    0  0.42205558597E+03 -0.56845956776E+03  0.25977077718E+03  0.76951264286E+03  0.15294330000E+03 0.  0.
<mgrwt>
<rscale>  0 0.72434029E+03</rscale>
<asrwt>0</asrwt>
<pdfrwt beam="1">  1        2 0.10395021E+00 0.72434029E+03</pdfrwt>
<pdfrwt beam="2">  1       -2 0.16452288E+00 0.72434029E+03</pdfrwt>
<totfact> 0.10189733E+01</totfact>
</mgrwt>
</event>
<event>
 4    1  0.1033139E-008  0.1149612E+04  0.7818608E-02  0.9158141E-01
          2   -1    0    0  501    0  0.00000000000E+00  0.00000000000E+00  0.28084619434E+04  0.28084619434E+04  0.25500000000E-02 0. -1.
         -2   -1    0    0    0  501 -0.00000000000E+00 -0.00000000000E+00 -0.61541273402E+03  0.61541273402E+03  0.25500000000E-02 0.  1.
    8880022    1    1    2    0    0  0.10865511420E+04 -0.34296228201E+03  0.19270192675E+04  0.22438831122E+04  0.15294330000E+03 0.  0.
    8880022    1    1    2    0    0 -0.10865511420E+04  0.34296228201E+03  0.26602994187E+03  0.11799915652E+04  0.15294330000E+03 0.  0.
<mgrwt>
<rscale>  0 0.11496122E+04</rscale>
<asrwt>0</asrwt>
<pdfrwt beam="1">  1        2 0.43207107E+00 0.11496122E+04</pdfrwt>
<pdfrwt beam="2">  1       -2 0.94678882E-01 0.11496122E+04</pdfrwt>
<totfact> 0.21351812E+00</totfact>
</mgrwt>
</event>
<event>
 4    1  0.1033139E-008  0.8974012E+03  0.7818608E-02  0.9428836E-01
         -2   -1    0    0    0  501 -0.00000000000E+00  0.00000000000E+00  0.41258967213E+03  0.41258967214E+03  0.25500000000E-02 0.  1.
          2   -1    0    0  501    0  0.00000000000E+00 -0.00000000000E+00 -0.33822422107E+04  0.33822422107E+04  0.25500000000E-02 0. -1.
    8880022    1    1    2    0    0  0.75940257946E+03 -0.45303965362E+03 -0.27187320002E+04  0.28630110981E+04  0.15294330000E+03 0.  0.
    8880022    1    1    2    0    0 -0.75940257946E+03  0.45303965362E+03 -0.25092053838E+03  0.93182078483E+03  0.15294330000E+03 0.  0.
<mgrwt>
<rscale>  0 0.89740117E+03</rscale>
<asrwt>0</asrwt>
<pdfrwt beam="1">  1        2 0.52034494E+00 0.89740117E+03</pdfrwt>
<pdfrwt beam="2">  1       -2 0.63475336E-01 0.89740117E+03</pdfrwt>
<totfact> 0.23671031E+00</totfact>
</mgrwt>
</event>
<event>
 4    1  0.1033139E-008  0.1103728E+04  0.7818608E-02  0.9201566E-01
          2   -1    0    0  501    0  0.00000000000E+00  0.00000000000E+00  0.37965961850E+04  0.37965961850E+04  0.25500000000E-02 0. -1.
         -2   -1    0    0    0  501 -0.00000000000E+00 -0.00000000000E+00 -0.35674840916E+03  0.35674840917E+03  0.25500000000E-02 0.  1.
    8880022    1    1    2    0    0  0.86828004485E+02 -0.10896261977E+04  0.23784910136E+04  0.26221051672E+04  0.15294330000E+03 0.  0.
    8880022    1    1    2    0    0 -0.86828004485E+02  0.10896261977E+04  0.10613567622E+04  0.15312394270E+04  0.15294330000E+03 0.  0.
<mgrwt>
<rscale>  0 0.11037282E+04</rscale>
<asrwt>0</asrwt>
<pdfrwt beam="1">  1        2 0.58409175E+00 0.11037282E+04</pdfrwt>
<pdfrwt beam="2">  1       -2 0.54884368E-01 0.11037282E+04</pdfrwt>
<totfact> 0.15879994E+00</totfact>
</mgrwt>
</event>
<event>
 4    1  0.1033139E-008  0.6213121E+03  0.7818608E-02  0.9862151E-01
          2   -1    0    0  501    0  0.00000000000E+00  0.00000000000E+00  0.99099907500E+03  0.99099907500E+03  0.25500000000E-02 0. -1.
         -2   -1    0    0    0  501 -0.00000000000E+00 -0.00000000000E+00 -0.60854890497E+03  0.60854890497E+03  0.25500000000E-02 0.  1.
    8880022    1    1    2    0    0 -0.44326242472E+03  0.40762178881E+03 -0.28856961858E+03  0.68505560187E+03  0.15294330000E+03 0.  0.
    8880022    1    1    2    0    0  0.44326242472E+03 -0.40762178881E+03  0.67101978861E+03  0.91449237810E+03  0.15294330000E+03 0.  0.
<mgrwt>
<rscale>  0 0.62131212E+03</rscale>
<asrwt>0</asrwt>
<pdfrwt beam="1">  1        2 0.15246139E+00 0.62131212E+03</pdfrwt>
<pdfrwt beam="2">  1       -2 0.93622910E-01 0.62131212E+03</pdfrwt>
<totfact> 0.25371698E+01</totfact>
</mgrwt>
</event>
<event>
 4    1  0.1033139E-008  0.2223102E+03  0.7818608E-02  0.1132172E+00
         -2   -1    0    0    0  501 -0.00000000000E+00  0.00000000000E+00  0.17707054350E+03  0.17707054352E+03  0.25500000000E-02 0.  1.
          2   -1    0    0  501    0  0.00000000000E+00 -0.00000000000E+00 -0.11856970239E+04  0.11856970239E+04  0.25500000000E-02 0. -1.
    8880022    1    1    2    0    0  0.13516143642E+02  0.16077150743E+03  0.91499988445E+02  0.24040396137E+03  0.15294330000E+03 0.  0.
    8880022    1    1    2    0    0 -0.13516143642E+02 -0.16077150743E+03 -0.11001264688E+04  0.11223636061E+04  0.15294330000E+03 0. -1.
<mgrwt>
<rscale>  0 0.22231018E+03</rscale>
<asrwt>0</asrwt>
<pdfrwt beam="1">  1        2 0.18241492E+00 0.22231018E+03</pdfrwt>
<pdfrwt beam="2">  1       -2 0.27241623E-01 0.22231018E+03</pdfrwt>
<totfact> 0.25240817E+02</totfact>
</mgrwt>
</event>
<event>
 4    1  0.1033139E-008  0.7429195E+03  0.7818608E-02  0.9646525E-01
         -2   -1    0    0    0  501 -0.00000000000E+00  0.00000000000E+00  0.94776010447E+03  0.94776010447E+03  0.25500000000E-02 0.  1.
          2   -1    0    0  501    0  0.00000000000E+00 -0.00000000000E+00 -0.17051168531E+04  0.17051168531E+04  0.25500000000E-02 0. -1.
    8880022    1    1    2    0    0 -0.10694652220E+03 -0.71909675115E+03  0.69767425046E+03  0.10191558806E+04  0.15294330000E+03 0.  0.
    8880022    1    1    2    0    0  0.10694652220E+03  0.71909675115E+03 -0.14550309991E+04  0.16337210770E+04  0.15294330000E+03 0.  0.
<mgrwt>
<rscale>  0 0.74291948E+03</rscale>
<asrwt>0</asrwt>
<pdfrwt beam="1">  1        2 0.26232567E+00 0.74291948E+03</pdfrwt>
<pdfrwt beam="2">  1       -2 0.14580925E+00 0.74291948E+03</pdfrwt>
<totfact> 0.32462320E+00</totfact>
</mgrwt>
</event>
<event>
 4    1  0.1033139E-008  0.7776061E+03  0.7818608E-02  0.9593009E-01
         -2   -1    0    0    0  501 -0.00000000000E+00  0.00000000000E+00  0.21819631294E+04  0.21819631294E+04  0.25500000000E-02 0.  1.
          2   -1    0    0  501    0  0.00000000000E+00 -0.00000000000E+00 -0.37091336649E+03  0.37091336650E+03  0.25500000000E-02 0. -1.
    8880022    1    1    2    0    0  0.75661696036E+02 -0.75865333986E+03  0.26365991303E+03  0.82108938922E+03  0.15294330000E+03 0.  0.
    8880022    1    1    2    0    0 -0.75661696036E+02  0.75865333986E+03  0.15473898499E+04  0.17317871067E+04  0.15294330000E+03 0.  0.
<mgrwt>
<rscale>  0 0.77760609E+03</rscale>
<asrwt>0</asrwt>
<pdfrwt beam="1">  1        2 0.57063594E-01 0.77760609E+03</pdfrwt>
<pdfrwt beam="2">  1       -2 0.33568664E+00 0.77760609E+03</pdfrwt>
<totfact> 0.17309748E+00</totfact>
</mgrwt>
</event>
<event>
 4    1  0.1033139E-008  0.7084469E+03  0.7818608E-02  0.9702895E-01
         -2   -1    0    0    0  501 -0.00000000000E+00  0.00000000000E+00  0.77248752237E+03  0.77248752237E+03  0.25500000000E-02 0.  1.
          2   -1    0    0  501    0  0.00000000000E+00 -0.00000000000E+00 -0.83132283054E+03  0.83132283055E+03  0.25500000000E-02 0. -1.
    8880022    1    1    2    0    0  0.60455305565E+03 -0.33618596708E+03  0.34538697570E+03  0.78815557953E+03  0.15294330000E+03 0.  0.
    8880022    1    1    2    0    0 -0.60455305565E+03  0.33618596708E+03 -0.40422228387E+03  0.81565477339E+03  0.15294330000E+03 0.  0.
<mgrwt>
<rscale>  0 0.70844693E+03</rscale>
<asrwt>0</asrwt>
<pdfrwt beam="1">  1        2 0.12789582E+00 0.70844693E+03</pdfrwt>
<pdfrwt beam="2">  1       -2 0.11884423E+00 0.70844693E+03</pdfrwt>
<totfact> 0.18137451E+01</totfact>
</mgrwt>
</event>
<event>
 4    1  0.1033139E-008  0.4911759E+03  0.7818608E-02  0.1016108E+00
          2   -1    0    0  501    0  0.00000000000E+00  0.00000000000E+00  0.10810552211E+04  0.10810552211E+04  0.25500000000E-02 0. -1.
         -2   -1    0    0    0  501 -0.00000000000E+00 -0.00000000000E+00 -0.29450736262E+03  0.29450736263E+03  0.25500000000E-02 0.  1.
    8880022    1    1    2    0    0 -0.16302430695E+03  0.43736165842E+03  0.73178721307E+03  0.88134347625E+03  0.15294330000E+03 0.  0.
    8880022    1    1    2    0    0  0.16302430695E+03 -0.43736165842E+03  0.54760645425E+02  0.49421910749E+03  0.15294330000E+03 0.  0.
<mgrwt>
<rscale>  0 0.49117593E+03</rscale>
<asrwt>0</asrwt>
<pdfrwt beam="1">  1        2 0.16631619E+00 0.49117593E+03</pdfrwt>
<pdfrwt beam="2">  1       -2 0.45308825E-01 0.49117593E+03</pdfrwt>
<totfact> 0.10736425E+02</totfact>
</mgrwt>
</event>
<event>
 4    1  0.1033139E-008  0.1208608E+04  0.7818608E-02  0.9105355E-01
          2   -1    0    0  501    0  0.00000000000E+00  0.00000000000E+00  0.17756210827E+04  0.17756210827E+04  0.25500000000E-02 0. -1.
         -2   -1    0    0    0  501 -0.00000000000E+00 -0.00000000000E+00 -0.12623668820E+04  0.12623668820E+04  0.25500000000E-02 0.  1.
    8880022    1    1    2    0    0 -0.75461171340E+03  0.93161265677E+03  0.11531158316E+04  0.16704516618E+04  0.15294330000E+03 0.  0.
    8880022    1    1    2    0    0  0.75461171340E+03 -0.93161265677E+03 -0.63986163086E+03  0.13675363030E+04  0.15294330000E+03 0.  0.
<mgrwt>
<rscale>  0 0.12086077E+04</rscale>
<asrwt>0</asrwt>
<pdfrwt beam="1">  1        2 0.27317247E+00 0.12086077E+04</pdfrwt>
<pdfrwt beam="2">  1       -2 0.19421029E+00 0.12086077E+04</pdfrwt>
<totfact> 0.12536420E+00</totfact>
</mgrwt>
</event>
<event>
 4    1  0.1033139E-008  0.1156584E+04  0.7818608E-02  0.9151731E-01
         -2   -1    0    0    0  501 -0.00000000000E+00  0.00000000000E+00  0.84448402878E+03  0.84448402879E+03  0.25500000000E-02 0.  1.
          2   -1    0    0  501    0  0.00000000000E+00 -0.00000000000E+00 -0.19931893774E+04  0.19931893774E+04  0.25500000000E-02 0. -1.
    8880022    1    1    2    0    0  0.24778321565E+03  0.11193294684E+04 -0.12171961910E+04  0.16790631916E+04  0.15294330000E+03 0.  0.
    8880022    1    1    2    0    0 -0.24778321565E+03 -0.11193294684E+04  0.68490842440E+02  0.11586102146E+04  0.15294330000E+03 0.  0.
<mgrwt>
<rscale>  0 0.11565840E+04</rscale>
<asrwt>0</asrwt>
<pdfrwt beam="1">  1        2 0.30664452E+00 0.11565840E+04</pdfrwt>
<pdfrwt beam="2">  1       -2 0.12992062E+00 0.11565840E+04</pdfrwt>
<totfact> 0.28724416E+00</totfact>
</mgrwt>
</event>
<event>
 4    1  0.1033139E-008  0.6734918E+03  0.7818608E-02  0.9763670E-01
         -2   -1    0    0    0  501 -0.00000000000E+00  0.00000000000E+00  0.11716573499E+04  0.11716573499E+04  0.25500000000E-02 0.  1.
          2   -1    0    0  501    0  0.00000000000E+00 -0.00000000000E+00 -0.88931139222E+03  0.88931139222E+03  0.25500000000E-02 0. -1.
    8880022    1    1    2    0    0  0.49957184439E+03  0.42500289774E+03  0.91553143656E+03  0.11365689399E+04  0.15294330000E+03 0.  0.
    8880022    1    1    2    0    0 -0.49957184439E+03 -0.42500289774E+03 -0.63318547884E+03  0.92439980226E+03  0.15294330000E+03 0.  0.
<mgrwt>
<rscale>  0 0.67349175E+03</rscale>
<asrwt>0</asrwt>
<pdfrwt beam="1">  1        2 0.13681714E+00 0.67349175E+03</pdfrwt>
<pdfrwt beam="2">  1       -2 0.18025498E+00 0.67349175E+03</pdfrwt>
<totfact> 0.55515126E+00</totfact>
</mgrwt>
</event>
<event>
 4    1  0.1033139E-008  0.2005907E+04  0.7818608E-02  0.8603864E-01
         -2   -1    0    0    0  501 -0.00000000000E+00  0.00000000000E+00  0.18144219150E+04  0.18144219150E+04  0.25500000000E-02 0.  1.
          2   -1    0    0  501    0  0.00000000000E+00 -0.00000000000E+00 -0.23110151667E+04  0.23110151667E+04  0.25500000000E-02 0. -1.
    8880022    1    1    2    0    0 -0.84547645876E+03  0.18125782544E+04 -0.66300928303E+03  0.21126389500E+04  0.15294330000E+03 0.  0.
    8880022    1    1    2    0    0  0.84547645876E+03 -0.18125782544E+04  0.16641603129E+03  0.20127981317E+04  0.15294330000E+03 0.  0.
<mgrwt>
<rscale>  0 0.20059068E+04</rscale>
<asrwt>0</asrwt>
<pdfrwt beam="1">  1        2 0.35554079E+00 0.20059068E+04</pdfrwt>
<pdfrwt beam="2">  1       -2 0.27914183E+00 0.20059068E+04</pdfrwt>
<totfact> 0.16927887E-01</totfact>
</mgrwt>
</event>
<event>
 4    1  0.1033139E-008  0.1179126E+04  0.7818608E-02  0.9131326E-01
          2   -1    0    0  501    0  0.00000000000E+00  0.00000000000E+00  0.12897597049E+04  0.12897597049E+04  0.25500000000E-02 0. -1.
         -2   -1    0    0    0  501 -0.00000000000E+00 -0.00000000000E+00 -0.17293503122E+04  0.17293503122E+04  0.25500000000E-02 0.  1.
    8880022    1    1    2    0    0  0.84046730505E+03  0.81274956655E+03  0.70665151822E+03  0.13746618384E+04  0.15294330000E+03 0.  0.
    8880022    1    1    2    0    0 -0.84046730505E+03 -0.81274956655E+03 -0.11462421256E+04  0.16444481787E+04  0.15294330000E+03 0.  0.
<mgrwt>
<rscale>  0 0.11791263E+04</rscale>
<asrwt>0</asrwt>
<pdfrwt beam="1">  1        2 0.19842457E+00 0.11791263E+04</pdfrwt>
<pdfrwt beam="2">  1       -2 0.26605389E+00 0.11791263E+04</pdfrwt>
<totfact> 0.83793564E-01</totfact>
</mgrwt>
</event>
<event>
 4    1  0.1033139E-008  0.7361385E+03  0.7818608E-02  0.9657351E-01
          2   -1    0    0  501    0  0.00000000000E+00  0.00000000000E+00  0.83197850645E+03  0.83197850645E+03  0.25500000000E-02 0. -1.
         -2   -1    0    0    0  501 -0.00000000000E+00 -0.00000000000E+00 -0.76735289859E+03  0.76735289859E+03  0.25500000000E-02 0.  1.
    8880022    1    1    2    0    0 -0.71615176242E+03  0.75066140795E+02  0.34324535367E+03  0.81222983086E+03  0.15294330000E+03 0.  0.
    8880022    1    1    2    0    0  0.71615176242E+03 -0.75066140795E+02 -0.27861974582E+03  0.78710157418E+03  0.15294330000E+03 0.  0.
<mgrwt>
<rscale>  0 0.73613852E+03</rscale>
<asrwt>0</asrwt>
<pdfrwt beam="1">  1        2 0.12799669E+00 0.73613852E+03</pdfrwt>
<pdfrwt beam="2">  1       -2 0.11805429E+00 0.73613852E+03</pdfrwt>
<totfact> 0.18365621E+01</totfact>
</mgrwt>
</event>
<event>
 4    1  0.1033139E-008  0.4149812E+03  0.7818608E-02  0.1038712E+00
         -2   -1    0    0    0  501 -0.00000000000E+00  0.00000000000E+00  0.65922954845E+03  0.65922954845E+03  0.25500000000E-02 0.  1.
          2   -1    0    0  501    0  0.00000000000E+00 -0.00000000000E+00 -0.40947134009E+04  0.40947134009E+04  0.25500000000E-02 0. -1.
    8880022    1    1    2    0    0  0.25104712777E+03  0.29290460261E+03  0.58215887425E+03  0.71492543280E+03  0.15294330000E+03 0.  0.
    8880022    1    1    2    0    0 -0.25104712777E+03 -0.29290460261E+03 -0.40176427267E+04  0.40390175165E+04  0.15294330000E+03 0.  0.
<mgrwt>
<rscale>  0 0.41498123E+03</rscale>
<asrwt>0</asrwt>
<pdfrwt beam="1">  1        2 0.62995589E+00 0.41498123E+03</pdfrwt>
<pdfrwt beam="2">  1       -2 0.10141993E+00 0.41498123E+03</pdfrwt>
<totfact> 0.29037444E-01</totfact>
</mgrwt>
</event>
<event>
 4    1  0.1033139E-008  0.1158747E+04  0.7818608E-02  0.9149752E-01
          2   -1    0    0  501    0  0.00000000000E+00  0.00000000000E+00  0.17556486655E+04  0.17556486655E+04  0.25500000000E-02 0. -1.
         -2   -1    0    0    0  501 -0.00000000000E+00 -0.00000000000E+00 -0.12326942786E+04  0.12326942786E+04  0.25500000000E-02 0.  1.
    8880022    1    1    2    0    0  0.10206472954E+04 -0.52686055967E+03  0.11820398574E+04  0.16552682044E+04  0.15294330000E+03 0.  0.
    8880022    1    1    2    0    0 -0.10206472954E+04  0.52686055967E+03 -0.65908547052E+03  0.13330747397E+04  0.15294330000E+03 0.  0.
<mgrwt>
<rscale>  0 0.11587470E+04</rscale>
<asrwt>0</asrwt>
<pdfrwt beam="1">  1        2 0.27009980E+00 0.11587470E+04</pdfrwt>
<pdfrwt beam="2">  1       -2 0.18964527E+00 0.11587470E+04</pdfrwt>
<totfact> 0.13879200E+00</totfact>
</mgrwt>
</event>
<event>
 4    1  0.1033139E-008  0.8521158E+03  0.7818608E-02  0.9487502E-01
          2   -1    0    0  501    0  0.00000000000E+00  0.00000000000E+00  0.19792248662E+04  0.19792248662E+04  0.25500000000E-02 0. -1.
         -2   -1    0    0    0  501 -0.00000000000E+00 -0.00000000000E+00 -0.57630010847E+03  0.57630010847E+03  0.25500000000E-02 0.  1.
    8880022    1    1    2    0    0  0.74628559581E+03  0.38179511616E+03  0.14717522387E+04  0.17006340013E+04  0.15294330000E+03 0.  0.
    8880022    1    1    2    0    0 -0.74628559581E+03 -0.38179511616E+03 -0.68827480950E+02  0.85489097339E+03  0.15294330000E+03 0.  0.
<mgrwt>
<rscale>  0 0.85211581E+03</rscale>
<asrwt>0</asrwt>
<pdfrwt beam="1">  1        2 0.30449613E+00 0.85211581E+03</pdfrwt>
<pdfrwt beam="2">  1       -2 0.88661555E-01 0.85211581E+03</pdfrwt>
<totfact> 0.76551609E+00</totfact>
</mgrwt>
</event>
<event>
 4    1  0.1033139E-008  0.8216758E+03  0.7818608E-02  0.9529162E-01
          2   -1    0    0  501    0  0.00000000000E+00  0.00000000000E+00  0.28314409780E+04  0.28314409780E+04  0.25500000000E-02 0. -1.
         -2   -1    0    0    0  501 -0.00000000000E+00 -0.00000000000E+00 -0.50887544381E+03  0.50887544381E+03  0.25500000000E-02 0.  1.
    8880022    1    1    2    0    0  0.54000547963E+03 -0.60012788794E+03  0.23788062790E+04  0.25167181737E+04  0.15294330000E+03 0.  0.
    8880022    1    1    2    0    0 -0.54000547963E+03  0.60012788794E+03 -0.56240744778E+02  0.82359824812E+03  0.15294330000E+03 0.  0.
<mgrwt>
<rscale>  0 0.82167576E+03</rscale>
<asrwt>0</asrwt>
<pdfrwt beam="1">  1        2 0.43560632E+00 0.82167576E+03</pdfrwt>
<pdfrwt beam="2">  1       -2 0.78288527E-01 0.82167576E+03</pdfrwt>
<totfact> 0.33617179E+00</totfact>
</mgrwt>
</event>
<event>
 4    1  0.1033139E-008  0.6975544E+03  0.7818608E-02  0.9721424E-01
          2   -1    0    0  501    0  0.00000000000E+00  0.00000000000E+00  0.25230416472E+04  0.25230416472E+04  0.25500000000E-02 0. -1.
         -2   -1    0    0    0  501 -0.00000000000E+00 -0.00000000000E+00 -0.74230786882E+03  0.74230786883E+03  0.25500000000E-02 0.  1.
    8880022    1    1    2    0    0  0.65465032728E+03  0.18607363664E+03 -0.51429800020E+03  0.86665133432E+03  0.15294330000E+03 0.  0.
    8880022    1    1    2    0    0 -0.65465032728E+03 -0.18607363664E+03  0.22950317786E+04  0.23986981817E+04  0.15294330000E+03 0.  0.
<mgrwt>
<rscale>  0 0.69755437E+03</rscale>
<asrwt>0</asrwt>
<pdfrwt beam="1">  1        2 0.38816025E+00 0.69755437E+03</pdfrwt>
<pdfrwt beam="2">  1       -2 0.11420121E+00 0.69755437E+03</pdfrwt>
<totfact> 0.21516052E+00</totfact>
</mgrwt>
</event>
<event>
 4    1  0.1033139E-008  0.6191779E+03  0.7818608E-02  0.9866398E-01
         -2   -1    0    0    0  501 -0.00000000000E+00  0.00000000000E+00  0.47967955248E+03  0.47967955248E+03  0.25500000000E-02 0.  1.
          2   -1    0    0  501    0  0.00000000000E+00 -0.00000000000E+00 -0.19170175147E+04  0.19170175147E+04  0.25500000000E-02 0. -1.
    8880022    1    1    2    0    0  0.52699826823E+03 -0.28681428109E+03  0.19638541633E+03  0.64957562401E+03  0.15294330000E+03 0.  0.
    8880022    1    1    2    0    0 -0.52699826823E+03  0.28681428109E+03 -0.16337233785E+04  0.17471214432E+04  0.15294330000E+03 0.  0.
<mgrwt>
<rscale>  0 0.61917789E+03</rscale>
<asrwt>0</asrwt>
<pdfrwt beam="1">  1        2 0.29492577E+00 0.61917789E+03</pdfrwt>
<pdfrwt beam="2">  1       -2 0.73796855E-01 0.61917789E+03</pdfrwt>
<totfact> 0.12972294E+01</totfact>
</mgrwt>
</event>
<event>
 4    1  0.1033139E-008  0.1115388E+04  0.7818608E-02  0.9190322E-01
          2   -1    0    0  501    0  0.00000000000E+00  0.00000000000E+00  0.42100528859E+04  0.42100528859E+04  0.25500000000E-02 0. -1.
         -2   -1    0    0    0  501 -0.00000000000E+00 -0.00000000000E+00 -0.11236893058E+04  0.11236893058E+04  0.25500000000E-02 0.  1.
    8880022    1    1    2    0    0 -0.10003539739E+04  0.46903202306E+03  0.38326913201E+04  0.39916930643E+04  0.15294330000E+03 0.  0.
    8880022    1    1    2    0    0  0.10003539739E+04 -0.46903202306E+03 -0.74632774003E+03  0.13420491274E+04  0.15294330000E+03 0.  0.
<mgrwt>
<rscale>  0 0.11153882E+04</rscale>
<asrwt>0</asrwt>
<pdfrwt beam="1">  1        2 0.64770043E+00 0.11153882E+04</pdfrwt>
<pdfrwt beam="2">  1       -2 0.17287528E+00 0.11153882E+04</pdfrwt>
<totfact> 0.47739360E-02</totfact>
</mgrwt>
</event>
<event>
 4    1  0.1033139E-008  0.5427634E+03  0.7818608E-02  0.1003183E+00
         -2   -1    0    0    0  501 -0.00000000000E+00  0.00000000000E+00  0.51771575931E+03  0.51771575932E+03  0.25500000000E-02 0.  1.
          2   -1    0    0  501    0  0.00000000000E+00 -0.00000000000E+00 -0.18855570598E+04  0.18855570598E+04  0.25500000000E-02 0. -1.
    8880022    1    1    2    0    0  0.19413272872E+03  0.48323179607E+03 -0.16880029250E+04  0.17731175971E+04  0.15294330000E+03 0.  0.
    8880022    1    1    2    0    0 -0.19413272872E+03 -0.48323179607E+03  0.32016162451E+03  0.63015522208E+03  0.15294330000E+03 0.  0.
<mgrwt>
<rscale>  0 0.54276343E+03</rscale>
<asrwt>0</asrwt>
<pdfrwt beam="1">  1        2 0.29008570E+00 0.54276343E+03</pdfrwt>
<pdfrwt beam="2">  1       -2 0.79648579E-01 0.54276343E+03</pdfrwt>
<totfact> 0.11555395E+01</totfact>
</mgrwt>
</event>
<event>
 4    1  0.1033139E-008  0.1207709E+04  0.7818608E-02  0.9106135E-01
          2   -1    0    0  501    0  0.00000000000E+00  0.00000000000E+00  0.20747877134E+04  0.20747877134E+04  0.25500000000E-02 0. -1.
         -2   -1    0    0    0  501 -0.00000000000E+00 -0.00000000000E+00 -0.13181427593E+04  0.13181427593E+04  0.25500000000E-02 0.  1.
    8880022    1    1    2    0    0 -0.10105804273E+04 -0.64334826358E+03 -0.78059933079E+03  0.14380183436E+04  0.15294330000E+03 0.  0.
    8880022    1    1    2    0    0  0.10105804273E+04  0.64334826358E+03  0.15372442848E+04  0.19549121291E+04  0.15294330000E+03 0.  0.
<mgrwt>
<rscale>  0 0.12077092E+04</rscale>
<asrwt>0</asrwt>
<pdfrwt beam="1">  1        2 0.31919811E+00 0.12077092E+04</pdfrwt>
<pdfrwt beam="2">  1       -2 0.20279119E+00 0.12077092E+04</pdfrwt>
<totfact> 0.75144649E-01</totfact>
</mgrwt>
</event>
<event>
 4    1  0.1033139E-008  0.6328689E+03  0.7818608E-02  0.9839466E-01
          2   -1    0    0  501    0  0.00000000000E+00  0.00000000000E+00  0.24819661802E+04  0.24819661802E+04  0.25500000000E-02 0. -1.
         -2   -1    0    0    0  501 -0.00000000000E+00 -0.00000000000E+00 -0.46269898238E+03  0.46269898239E+03  0.25500000000E-02 0.  1.
    8880022    1    1    2    0    0  0.32253840730E+03 -0.52259006207E+03 -0.17852586482E+03  0.65756713314E+03  0.15294330000E+03 0.  0.
    8880022    1    1    2    0    0 -0.32253840730E+03  0.52259006207E+03  0.21977930627E+04  0.22870980295E+04  0.15294330000E+03 0.  0.
<mgrwt>
<rscale>  0 0.63286890E+03</rscale>
<asrwt>0</asrwt>
<pdfrwt beam="1">  1        2 0.38184095E+00 0.63286890E+03</pdfrwt>
<pdfrwt beam="2">  1       -2 0.71184459E-01 0.63286890E+03</pdfrwt>
<totfact> 0.68526153E+00</totfact>
</mgrwt>
</event>
<event>
 4    1  0.1033139E-008  0.1616250E+04  0.7818608E-02  0.8810627E-01
          2   -1    0    0  501    0  0.00000000000E+00  0.00000000000E+00  0.17274022435E+04  0.17274022435E+04  0.25500000000E-02 0. -1.
         -2   -1    0    0    0  501 -0.00000000000E+00 -0.00000000000E+00 -0.21141224848E+04  0.21141224848E+04  0.25500000000E-02 0.  1.
    8880022    1    1    2    0    0  0.64125770968E+03 -0.14756894922E+04 -0.12182120310E+04  0.20239325911E+04  0.15294330000E+03 0.  0.
    8880022    1    1    2    0    0 -0.64125770968E+03  0.14756894922E+04  0.83149178976E+03  0.18175921372E+04  0.15294330000E+03 0.  0.
<mgrwt>
<rscale>  0 0.16162495E+04</rscale>
<asrwt>0</asrwt>
<pdfrwt beam="1">  1        2 0.26575419E+00 0.16162495E+04</pdfrwt>
<pdfrwt beam="2">  1       -2 0.32524961E+00 0.16162495E+04</pdfrwt>
<totfact> 0.19511675E-01</totfact>
</mgrwt>
</event>
<event>
 4    1  0.1033139E-008  0.8526786E+03  0.7818608E-02  0.9486749E-01
         -2   -1    0    0    0  501 -0.00000000000E+00  0.00000000000E+00  0.41935527704E+03  0.41935527705E+03  0.25500000000E-02 0.  1.
          2   -1    0    0  501    0  0.00000000000E+00 -0.00000000000E+00 -0.19434109770E+04  0.19434109770E+04  0.25500000000E-02 0. -1.
    8880022    1    1    2    0    0  0.33382558746E+03 -0.76956460513E+03 -0.11500515355E+04  0.14316701406E+04  0.15294330000E+03 0.  0.
    8880022    1    1    2    0    0 -0.33382558746E+03  0.76956460513E+03 -0.37400416444E+03  0.93109611338E+03  0.15294330000E+03 0.  0.
<mgrwt>
<rscale>  0 0.85267864E+03</rscale>
<asrwt>0</asrwt>
<pdfrwt beam="1">  1        2 0.29898630E+00 0.85267864E+03</pdfrwt>
<pdfrwt beam="2">  1       -2 0.64516198E-01 0.85267864E+03</pdfrwt>
<totfact> 0.16245755E+01</totfact>
</mgrwt>
</event>
<event>
 4    1  0.1033139E-008  0.7978968E+03  0.7818608E-02  0.9563066E-01
         -2   -1    0    0    0  501 -0.00000000000E+00  0.00000000000E+00  0.14082036997E+04  0.14082036998E+04  0.25500000000E-02 0.  1.
          2   -1    0    0  501    0  0.00000000000E+00 -0.00000000000E+00 -0.10487987660E+04  0.10487987660E+04  0.25500000000E-02 0. -1.
    8880022    1    1    2    0    0  0.49575176489E+03  0.60619948410E+03  0.11063393165E+04  0.13640476396E+04  0.15294330000E+03 0.  0.
    8880022    1    1    2    0    0 -0.49575176489E+03 -0.60619948410E+03 -0.74693438267E+03  0.10929548261E+04  0.15294330000E+03 0. -1.
<mgrwt>
<rscale>  0 0.79789679E+03</rscale>
<asrwt>0</asrwt>
<pdfrwt beam="1">  1        2 0.16135366E+00 0.79789679E+03</pdfrwt>
<pdfrwt beam="2">  1       -2 0.21664672E+00 0.79789679E+03</pdfrwt>
<totfact> 0.24833392E+00</totfact>
</mgrwt>
</event>
<event>
 4    1  0.1033139E-008  0.1493111E+04  0.7818608E-02  0.8889047E-01
          2   -1    0    0  501    0  0.00000000000E+00  0.00000000000E+00  0.13774574579E+04  0.13774574579E+04  0.25500000000E-02 0. -1.
         -2   -1    0    0    0  501 -0.00000000000E+00 -0.00000000000E+00 -0.16715207785E+04  0.16715207785E+04  0.25500000000E-02 0.  1.
    8880022    1    1    2    0    0 -0.11545364026E+04  0.93436378116E+03 -0.41860701933E+03  0.15506816147E+04  0.15294330000E+03 0.  0.
    8880022    1    1    2    0    0  0.11545364026E+04 -0.93436378116E+03  0.12454369871E+03  0.14982966217E+04  0.15294330000E+03 0.  0.
<mgrwt>
<rscale>  0 0.14931114E+04</rscale>
<asrwt>0</asrwt>
<pdfrwt beam="1">  1        2 0.21191653E+00 0.14931114E+04</pdfrwt>
<pdfrwt beam="2">  1       -2 0.25715704E+00 0.14931114E+04</pdfrwt>
<totfact> 0.81588262E-01</totfact>
</mgrwt>
</event>
<event>
 4    1  0.1033139E-008  0.3342676E+03  0.7818608E-02  0.1069264E+00
         -2   -1    0    0    0  501 -0.00000000000E+00  0.00000000000E+00  0.19797118426E+04  0.19797118426E+04  0.25500000000E-02 0.  1.
          2   -1    0    0  501    0  0.00000000000E+00 -0.00000000000E+00 -0.13483437855E+04  0.13483437855E+04  0.25500000000E-02 0. -1.
    8880022    1    1    2    0    0 -0.15019256097E+03 -0.25648659340E+03  0.19445125171E+04  0.19730341508E+04  0.15294330000E+03 0.  1.
    8880022    1    1    2    0    0  0.15019256097E+03  0.25648659340E+03 -0.13131444600E+04  0.13550214773E+04  0.15294330000E+03 0.  0.
<mgrwt>
<rscale>  0 0.33426760E+03</rscale>
<asrwt>0</asrwt>
<pdfrwt beam="1">  1        2 0.20743751E+00 0.33426760E+03</pdfrwt>
<pdfrwt beam="2">  1       -2 0.30457105E+00 0.33426760E+03</pdfrwt>
<totfact> 0.55695466E-01</totfact>
</mgrwt>
</event>
<event>
 4    1  0.1033139E-008  0.4055282E+03  0.7818608E-02  0.1041882E+00
         -2   -1    0    0    0  501 -0.00000000000E+00  0.00000000000E+00  0.14182253141E+03  0.14182253143E+03  0.25500000000E-02 0.  1.
          2   -1    0    0  501    0  0.00000000000E+00 -0.00000000000E+00 -0.25282403807E+04  0.25282403807E+04  0.25500000000E-02 0. -1.
    8880022    1    1    2    0    0 -0.32533139916E+03 -0.18767255697E+03 -0.21754808741E+04  0.22129550819E+04  0.15294330000E+03 0.  0.
    8880022    1    1    2    0    0  0.32533139916E+03  0.18767255697E+03 -0.21093697513E+03  0.45710783018E+03  0.15294330000E+03 0.  0.
<mgrwt>
<rscale>  0 0.40552825E+03</rscale>
<asrwt>0</asrwt>
<pdfrwt beam="1">  1        2 0.38896003E+00 0.40552825E+03</pdfrwt>
<pdfrwt beam="2">  1       -2 0.21818853E-01 0.40552825E+03</pdfrwt>
<totfact> 0.67745047E+01</totfact>
</mgrwt>
</event>
<event>
 4    1  0.1033139E-008  0.5357108E+03  0.7818608E-02  0.1004856E+00
         -2   -1    0    0    0  501 -0.00000000000E+00  0.00000000000E+00  0.58088651374E+03  0.58088651374E+03  0.25500000000E-02 0.  1.
          2   -1    0    0  501    0  0.00000000000E+00 -0.00000000000E+00 -0.80406746383E+03  0.80406746383E+03  0.25500000000E-02 0. -1.
    8880022    1    1    2    0    0 -0.48082250867E+03  0.18001151953E+03  0.31839448290E+03  0.62318627372E+03  0.15294330000E+03 0.  0.
    8880022    1    1    2    0    0  0.48082250867E+03 -0.18001151953E+03 -0.54157543299E+03  0.76176770385E+03  0.15294330000E+03 0.  0.
<mgrwt>
<rscale>  0 0.53571082E+03</rscale>
<asrwt>0</asrwt>
<pdfrwt beam="1">  1        2 0.12370269E+00 0.53571082E+03</pdfrwt>
<pdfrwt beam="2">  1       -2 0.89367156E-01 0.53571082E+03</pdfrwt>
<totfact> 0.38072289E+01</totfact>
</mgrwt>
</event>
<event>
 4    1  0.1033139E-008  0.1132609E+04  0.7818608E-02  0.9173979E-01
          2   -1    0    0  501    0  0.00000000000E+00  0.00000000000E+00  0.22841273414E+04  0.22841273414E+04  0.25500000000E-02 0. -1.
         -2   -1    0    0    0  501 -0.00000000000E+00 -0.00000000000E+00 -0.84584478370E+03  0.84584478370E+03  0.25500000000E-02 0.  1.
    8880022    1    1    2    0    0  0.65059994673E+03 -0.91440258788E+03  0.16263320799E+04  0.19818577322E+04  0.15294330000E+03 0.  0.
    8880022    1    1    2    0    0 -0.65059994673E+03  0.91440258788E+03 -0.18804952222E+03  0.11481143929E+04  0.15294330000E+03 0.  0.
<mgrwt>
<rscale>  0 0.11326094E+04</rscale>
<asrwt>0</asrwt>
<pdfrwt beam="1">  1        2 0.35140421E+00 0.11326094E+04</pdfrwt>
<pdfrwt beam="2">  1       -2 0.13012997E+00 0.11326094E+04</pdfrwt>
<totfact> 0.19756288E+00</totfact>
</mgrwt>
</event>
<event>
 4    1  0.1033139E-008  0.3457741E+03  0.7818608E-02  0.1064363E+00
         -2   -1    0    0    0  501 -0.00000000000E+00  0.00000000000E+00  0.27083769362E+03  0.27083769363E+03  0.25500000000E-02 0.  1.
          2   -1    0    0  501    0  0.00000000000E+00 -0.00000000000E+00 -0.17560485409E+04  0.17560485409E+04  0.25500000000E-02 0. -1.
    8880022    1    1    2    0    0  0.31009110399E+03  0.34047818825E+01  0.13425131642E+03  0.37092203263E+03  0.15294330000E+03 0.  0.
    8880022    1    1    2    0    0 -0.31009110399E+03 -0.34047818825E+01 -0.16194621637E+04  0.16559642019E+04  0.15294330000E+03 0.  0.
<mgrwt>
<rscale>  0 0.34577411E+03</rscale>
<asrwt>0</asrwt>
<pdfrwt beam="1">  1        2 0.27016131E+00 0.34577411E+03</pdfrwt>
<pdfrwt beam="2">  1       -2 0.41667339E-01 0.34577411E+03</pdfrwt>
<totfact> 0.54557191E+01</totfact>
</mgrwt>
</event>
<event>
 4    1  0.1033139E-008  0.7601329E+03  0.7818608E-02  0.9619586E-01
          2   -1    0    0  501    0  0.00000000000E+00  0.00000000000E+00  0.25075717065E+04  0.25075717065E+04  0.25500000000E-02 0. -1.
         -2   -1    0    0    0  501 -0.00000000000E+00 -0.00000000000E+00 -0.50379730140E+03  0.50379730141E+03  0.25500000000E-02 0.  1.
    8880022    1    1    2    0    0  0.22673941845E+03  0.70922464909E+03 -0.10724920447E+03  0.76766165179E+03  0.15294330000E+03 0.  0.
    8880022    1    1    2    0    0 -0.22673941845E+03 -0.70922464909E+03  0.21110236096E+04  0.22437073561E+04  0.15294330000E+03 0.  0.
<mgrwt>
<rscale>  0 0.76013290E+03</rscale>
<asrwt>0</asrwt>
<pdfrwt beam="1">  1        2 0.38578026E+00 0.76013290E+03</pdfrwt>
<pdfrwt beam="2">  1       -2 0.77507278E-01 0.76013290E+03</pdfrwt>
<totfact> 0.53601108E+00</totfact>
</mgrwt>
</event>
<event>
 4    1  0.1033139E-008  0.4573194E+03  0.7818608E-02  0.1025562E+00
          2   -1    0    0  501    0  0.00000000000E+00  0.00000000000E+00  0.14197666315E+04  0.14197666315E+04  0.25500000000E-02 0. -1.
         -2   -1    0    0    0  501 -0.00000000000E+00 -0.00000000000E+00 -0.54542429736E+03  0.54542429736E+03  0.25500000000E-02 0.  1.
    8880022    1    1    2    0    0 -0.18982016962E+03  0.38693365015E+03 -0.40231444060E+03  0.60909597647E+03  0.15294330000E+03 0.  0.
    8880022    1    1    2    0    0  0.18982016962E+03 -0.38693365015E+03  0.12766567748E+04  0.13560949524E+04  0.15294330000E+03 0.  0.
<mgrwt>
<rscale>  0 0.45731936E+03</rscale>
<asrwt>0</asrwt>
<pdfrwt beam="1">  1        2 0.21842563E+00 0.45731936E+03</pdfrwt>
<pdfrwt beam="2">  1       -2 0.83911432E-01 0.45731936E+03</pdfrwt>
<totfact> 0.18722912E+01</totfact>
</mgrwt>
</event>
<event>
 4    1  0.1033139E-008  0.5385461E+03  0.7818608E-02  0.1004180E+00
          2   -1    0    0  501    0  0.00000000000E+00  0.00000000000E+00  0.24783227718E+04  0.24783227718E+04  0.25500000000E-02 0. -1.
         -2   -1    0    0    0  501 -0.00000000000E+00 -0.00000000000E+00 -0.65215624266E+03  0.65215624266E+03  0.25500000000E-02 0.  1.
    8880022    1    1    2    0    0  0.44765361868E+03 -0.25738389878E+03  0.23309457684E+04  0.23923503217E+04  0.15294330000E+03 0.  0.
    8880022    1    1    2    0    0 -0.44765361868E+03  0.25738389878E+03 -0.50477923924E+03  0.73812869274E+03  0.15294330000E+03 0.  1.
<mgrwt>
<rscale>  0 0.53854609E+03</rscale>
<asrwt>0</asrwt>
<pdfrwt beam="1">  1        2 0.38128043E+00 0.53854609E+03</pdfrwt>
<pdfrwt beam="2">  1       -2 0.10033173E+00 0.53854609E+03</pdfrwt>
<totfact> 0.32318782E+00</totfact>
</mgrwt>
</event>
<event>
 4    1  0.1033139E-008  0.3765405E+03  0.7818608E-02  0.1052220E+00
         -2   -1    0    0    0  501 -0.00000000000E+00  0.00000000000E+00  0.94021305568E+03  0.94021305569E+03  0.25500000000E-02 0.  1.
          2   -1    0    0  501    0  0.00000000000E+00 -0.00000000000E+00 -0.11562089824E+04  0.11562089824E+04  0.25500000000E-02 0. -1.
    8880022    1    1    2    0    0  0.32222419463E+02 -0.34256793109E+03 -0.10854653011E+04  0.11489202081E+04  0.15294330000E+03 0.  0.
    8880022    1    1    2    0    0 -0.32222419463E+02  0.34256793109E+03  0.86946937440E+03  0.94750182995E+03  0.15294330000E+03 0.  0.
<mgrwt>
<rscale>  0 0.37654047E+03</rscale>
<asrwt>0</asrwt>
<pdfrwt beam="1">  1        2 0.17787831E+00 0.37654047E+03</pdfrwt>
<pdfrwt beam="2">  1       -2 0.14464816E+00 0.37654047E+03</pdfrwt>
<totfact> 0.72613789E+00</totfact>
</mgrwt>
</event>
<event>
 4    1  0.1033139E-008  0.1108418E+04  0.7818608E-02  0.9197026E-01
          2   -1    0    0  501    0  0.00000000000E+00  0.00000000000E+00  0.59843880859E+03  0.59843880860E+03  0.25500000000E-02 0. -1.
         -2   -1    0    0    0  501 -0.00000000000E+00 -0.00000000000E+00 -0.24980610539E+04  0.24980610539E+04  0.25500000000E-02 0.  1.
    8880022    1    1    2    0    0  0.10478739514E+04 -0.32735101439E+03 -0.16033225504E+04  0.19491622196E+04  0.15294330000E+03 0.  0.
    8880022    1    1    2    0    0 -0.10478739514E+04  0.32735101439E+03 -0.29629969490E+03  0.11473376429E+04  0.15294330000E+03 0.  0.
<mgrwt>
<rscale>  0 0.11084179E+04</rscale>
<asrwt>0</asrwt>
<pdfrwt beam="1">  1        2 0.92067510E-01 0.11084179E+04</pdfrwt>
<pdfrwt beam="2">  1       -2 0.38431708E+00 0.11084179E+04</pdfrwt>
<totfact> 0.46836646E-01</totfact>
</mgrwt>
</event>
<event>
 4    1  0.1033139E-008  0.8025524E+03  0.7818608E-02  0.9556330E-01
         -2   -1    0    0    0  501 -0.00000000000E+00  0.00000000000E+00  0.51643595053E+03  0.51643595054E+03  0.25500000000E-02 0.  1.
          2   -1    0    0  501    0  0.00000000000E+00 -0.00000000000E+00 -0.17688890140E+04  0.17688890140E+04  0.25500000000E-02 0. -1.
    8880022    1    1    2    0    0 -0.76848920800E+03 -0.17355995430E+03 -0.12467817152E+04  0.14827525144E+04  0.15294330000E+03 0.  0.
    8880022    1    1    2    0    0  0.76848920800E+03  0.17355995430E+03 -0.56713482791E+01  0.80257245016E+03  0.15294330000E+03 0.  0.
<mgrwt>
<rscale>  0 0.80255241E+03</rscale>
<asrwt>0</asrwt>
<pdfrwt beam="1">  1        2 0.27213677E+00 0.80255241E+03</pdfrwt>
<pdfrwt beam="2">  1       -2 0.79451686E-01 0.80255241E+03</pdfrwt>
<totfact> 0.12889538E+01</totfact>
</mgrwt>
</event>
<event>
 4    1  0.1033139E-008  0.9950169E+03  0.7818608E-02  0.9314027E-01
         -2   -1    0    0    0  501 -0.00000000000E+00  0.00000000000E+00  0.70430793072E+03  0.70430793072E+03  0.25500000000E-02 0.  1.
          2   -1    0    0  501    0  0.00000000000E+00 -0.00000000000E+00 -0.24849613639E+04  0.24849613639E+04  0.25500000000E-02 0. -1.
    8880022    1    1    2    0    0  0.47006292246E+03 -0.86354374600E+03 -0.19412257487E+04  0.21813793830E+04  0.15294330000E+03 0.  0.
    8880022    1    1    2    0    0 -0.47006292246E+03  0.86354374600E+03  0.16057231552E+03  0.10078899116E+04  0.15294330000E+03 0.  0.
<mgrwt>
<rscale>  0 0.99501689E+03</rscale>
<asrwt>0</asrwt>
<pdfrwt beam="1">  1        2 0.38230174E+00 0.99501689E+03</pdfrwt>
<pdfrwt beam="2">  1       -2 0.10835507E+00 0.99501689E+03</pdfrwt>
<totfact> 0.24405467E+00</totfact>
</mgrwt>
</event>
<event>
 4    1  0.1033139E-008  0.3488464E+03  0.7818608E-02  0.1063090E+00
          2   -1    0    0  501    0  0.00000000000E+00  0.00000000000E+00  0.27237626886E+04  0.27237626886E+04  0.25500000000E-02 0. -1.
         -2   -1    0    0    0  501 -0.00000000000E+00 -0.00000000000E+00 -0.11511985169E+03  0.11511985172E+03  0.25500000000E-02 0.  1.
    8880022    1    1    2    0    0 -0.28105503843E+02 -0.31226952714E+03  0.24146612844E+04  0.24397300974E+04  0.15294330000E+03 0.  0.
    8880022    1    1    2    0    0  0.28105503843E+02  0.31226952714E+03  0.19398155250E+03  0.39915244287E+03  0.15294330000E+03 0.  0.
<mgrwt>
<rscale>  0 0.34884643E+03</rscale>
<asrwt>0</asrwt>
<pdfrwt beam="1">  1        2 0.41904041E+00 0.34884643E+03</pdfrwt>
<pdfrwt beam="2">  1       -2 0.17710747E-01 0.34884643E+03</pdfrwt>
<totfact> 0.76453915E+01</totfact>
</mgrwt>
</event>
<event>
 4    1  0.1033139E-008  0.7496972E+03  0.7818608E-02  0.9635825E-01
          2   -1    0    0  501    0  0.00000000000E+00  0.00000000000E+00  0.21881939032E+04  0.21881939032E+04  0.25500000000E-02 0. -1.
         -2   -1    0    0    0  501 -0.00000000000E+00 -0.00000000000E+00 -0.50914899550E+03  0.50914899550E+03  0.25500000000E-02 0.  1.
    8880022    1    1    2    0    0 -0.89312818539E+02 -0.72847615242E+03  0.17888983501E+04  0.19396399780E+04  0.15294330000E+03 0.  0.
    8880022    1    1    2    0    0  0.89312818539E+02  0.72847615242E+03 -0.10985344242E+03  0.75770292069E+03  0.15294330000E+03 0.  0.
<mgrwt>
<rscale>  0 0.74969723E+03</rscale>
<asrwt>0</asrwt>
<pdfrwt beam="1">  1        2 0.33664522E+00 0.74969723E+03</pdfrwt>
<pdfrwt beam="2">  1       -2 0.78330614E-01 0.74969723E+03</pdfrwt>
<totfact> 0.79072522E+00</totfact>
</mgrwt>
</event>
<event>
 4    1  0.1033139E-008  0.9313093E+03  0.7818608E-02  0.9387268E-01
         -2   -1    0    0    0  501 -0.00000000000E+00  0.00000000000E+00  0.11058078885E+04  0.11058078885E+04  0.25500000000E-02 0.  1.
          2   -1    0    0  501    0  0.00000000000E+00 -0.00000000000E+00 -0.18137576735E+04  0.18137576735E+04  0.25500000000E-02 0. -1.
    8880022    1    1    2    0    0  0.84583449216E+03  0.35848202261E+03 -0.14537223266E+04  0.17264546344E+04  0.15294330000E+03 0.  0.
    8880022    1    1    2    0    0 -0.84583449216E+03 -0.35848202261E+03  0.74577254161E+03  0.11931109276E+04  0.15294330000E+03 0.  0.
<mgrwt>
<rscale>  0 0.93130929E+03</rscale>
<asrwt>0</asrwt>
<pdfrwt beam="1">  1        2 0.27903964E+00 0.93130929E+03</pdfrwt>
<pdfrwt beam="2">  1       -2 0.17012429E+00 0.93130929E+03</pdfrwt>
<totfact> 0.18124132E+00</totfact>
</mgrwt>
</event>
<event>
 4    1  0.1033139E-008  0.9781148E+03  0.7818608E-02  0.9332879E-01
          2   -1    0    0  501    0  0.00000000000E+00  0.00000000000E+00  0.12428413261E+04  0.12428413261E+04  0.25500000000E-02 0. -1.
         -2   -1    0    0    0  501 -0.00000000000E+00 -0.00000000000E+00 -0.10985892112E+04  0.10985892112E+04  0.25500000000E-02 0.  1.
    8880022    1    1    2    0    0  0.30922432676E+03 -0.91525805100E+03 -0.56835850337E+03  0.11312559505E+04  0.15294330000E+03 0.  0.
    8880022    1    1    2    0    0 -0.30922432676E+03  0.91525805100E+03  0.71261061828E+03  0.12101745868E+04  0.15294330000E+03 0.  0.
<mgrwt>
<rscale>  0 0.97811484E+03</rscale>
<asrwt>0</asrwt>
<pdfrwt beam="1">  1        2 0.19120636E+00 0.97811484E+03</pdfrwt>
<pdfrwt beam="2">  1       -2 0.16901372E+00 0.97811484E+03</pdfrwt>
<totfact> 0.38449477E+00</totfact>
</mgrwt>
</event>
<event>
 4    1  0.1033139E-008  0.3323710E+03  0.7818608E-02  0.1070093E+00
          2   -1    0    0  501    0  0.00000000000E+00  0.00000000000E+00  0.36697251156E+03  0.36697251157E+03  0.25500000000E-02 0. -1.
         -2   -1    0    0    0  501 -0.00000000000E+00 -0.00000000000E+00 -0.10608295327E+04  0.10608295327E+04  0.25500000000E-02 0.  1.
    8880022    1    1    2    0    0 -0.21595194769E+03 -0.20110590273E+03 -0.95110543391E+03  0.10075078299E+04  0.15294330000E+03 0.  0.
    8880022    1    1    2    0    0  0.21595194769E+03  0.20110590273E+03  0.25724841273E+03  0.42029421444E+03  0.15294330000E+03 0.  0.
<mgrwt>
<rscale>  0 0.33237100E+03</rscale>
<asrwt>0</asrwt>
<pdfrwt beam="1">  1        2 0.56457310E-01 0.33237100E+03</pdfrwt>
<pdfrwt beam="2">  1       -2 0.16320454E+00 0.33237100E+03</pdfrwt>
<totfact> 0.22259439E+01</totfact>
</mgrwt>
</event>
<event>
 4    1  0.1033139E-008  0.1036916E+04  0.7818608E-02  0.9268958E-01
          2   -1    0    0  501    0  0.00000000000E+00  0.00000000000E+00  0.20712980360E+04  0.20712980360E+04  0.25500000000E-02 0. -1.
         -2   -1    0    0    0  501 -0.00000000000E+00 -0.00000000000E+00 -0.10863961850E+04  0.10863961850E+04  0.25500000000E-02 0.  1.
    8880022    1    1    2    0    0 -0.29772377927E+03  0.98140898298E+03  0.16333674507E+04  0.19347051255E+04  0.15294330000E+03 0.  0.
    8880022    1    1    2    0    0  0.29772377927E+03 -0.98140898298E+03 -0.64846559972E+03  0.12229890955E+04  0.15294330000E+03 0.  0.
<mgrwt>
<rscale>  0 0.10369160E+04</rscale>
<asrwt>0</asrwt>
<pdfrwt beam="1">  1        2 0.31866123E+00 0.10369160E+04</pdfrwt>
<pdfrwt beam="2">  1       -2 0.16713788E+00 0.10369160E+04</pdfrwt>
<totfact> 0.13530840E+00</totfact>
</mgrwt>
</event>
<event>
 4    1  0.1033139E-008  0.2662904E+03  0.7818608E-02  0.1103422E+00
          2   -1    0    0  501    0  0.00000000000E+00  0.00000000000E+00  0.60895336286E+03  0.60895336287E+03  0.25500000000E-02 0. -1.
         -2   -1    0    0    0  501 -0.00000000000E+00 -0.00000000000E+00 -0.27413882036E+03  0.27413882038E+03  0.25500000000E-02 0.  1.
    8880022    1    1    2    0    0  0.23562687475E+02 -0.21671111188E+03  0.50229241774E+03  0.56851405628E+03  0.15294330000E+03 0.  0.
    8880022    1    1    2    0    0 -0.23562687475E+02  0.21671111188E+03 -0.16747787524E+03  0.31457812696E+03  0.15294330000E+03 0.  0.
<mgrwt>
<rscale>  0 0.26629037E+03</rscale>
<asrwt>0</asrwt>
<pdfrwt beam="1">  1        2 0.93685131E-01 0.26629037E+03</pdfrwt>
<pdfrwt beam="2">  1       -2 0.42175204E-01 0.26629037E+03</pdfrwt>
<totfact> 0.26902552E+02</totfact>
</mgrwt>
</event>
<event>
 4    1  0.1033139E-008  0.7040337E+03  0.7818608E-02  0.9710359E-01
         -2   -1    0    0    0  501 -0.00000000000E+00  0.00000000000E+00  0.58214125496E+03  0.58214125496E+03  0.25500000000E-02 0.  1.
          2   -1    0    0  501    0  0.00000000000E+00 -0.00000000000E+00 -0.15045194423E+04  0.15045194423E+04  0.25500000000E-02 0. -1.
    8880022    1    1    2    0    0  0.33689678165E+03  0.59897610825E+03 -0.11485787917E+04  0.13471810247E+04  0.15294330000E+03 0.  0.
    8880022    1    1    2    0    0 -0.33689678165E+03 -0.59897610825E+03  0.22620060428E+03  0.73947967256E+03  0.15294330000E+03 0.  0.
<mgrwt>
<rscale>  0 0.70403372E+03</rscale>
<asrwt>0</asrwt>
<pdfrwt beam="1">  1        2 0.23146453E+00 0.70403372E+03</pdfrwt>
<pdfrwt beam="2">  1       -2 0.89560193E-01 0.70403372E+03</pdfrwt>
<totfact> 0.13902954E+01</totfact>
</mgrwt>
</event>
<event>
 4    1  0.1033139E-008  0.1138210E+04  0.7818608E-02  0.9168730E-01
         -2   -1    0    0    0  501 -0.00000000000E+00  0.00000000000E+00  0.76766984730E+03  0.76766984730E+03  0.25500000000E-02 0.  1.
          2   -1    0    0  501    0  0.00000000000E+00 -0.00000000000E+00 -0.22637769298E+04  0.22637769298E+04  0.25500000000E-02 0. -1.
    8880022    1    1    2    0    0 -0.10348026515E+04  0.44868067950E+03 -0.15127333923E+04  0.18931151177E+04  0.15294330000E+03 0.  0.
    8880022    1    1    2    0    0  0.10348026515E+04 -0.44868067950E+03  0.16626309817E+02  0.11383316594E+04  0.15294330000E+03 0.  0.
<mgrwt>
<rscale>  0 0.11382102E+04</rscale>
<asrwt>0</asrwt>
<pdfrwt beam="1">  1        2 0.34827337E+00 0.11382102E+04</pdfrwt>
<pdfrwt beam="2">  1       -2 0.11810305E+00 0.11382102E+04</pdfrwt>
<totfact> 0.25877164E+00</totfact>
</mgrwt>
</event>
<event>
 4    1  0.1033139E-008  0.4931493E+03  0.7818608E-02  0.1015583E+00
          2   -1    0    0  501    0  0.00000000000E+00  0.00000000000E+00  0.20696632867E+04  0.20696632867E+04  0.25500000000E-02 0. -1.
         -2   -1    0    0    0  501 -0.00000000000E+00 -0.00000000000E+00 -0.12801175202E+04  0.12801175202E+04  0.25500000000E-02 0.  1.
    8880022    1    1    2    0    0 -0.37908728777E+03  0.27585758804E+03  0.19909420993E+04  0.20511086457E+04  0.15294330000E+03 0.  0.
    8880022    1    1    2    0    0  0.37908728777E+03 -0.27585758804E+03 -0.12013963328E+04  0.12986721611E+04  0.15294330000E+03 0.  0.
<mgrwt>
<rscale>  0 0.49314930E+03</rscale>
<asrwt>0</asrwt>
<pdfrwt beam="1">  1        2 0.31840973E+00 0.49314930E+03</pdfrwt>
<pdfrwt beam="2">  1       -2 0.19694116E+00 0.49314930E+03</pdfrwt>
<totfact> 0.95101743E-01</totfact>
</mgrwt>
</event>
<event>
 4    1  0.1033139E-008  0.2618478E+03  0.7818608E-02  0.1106038E+00
          2   -1    0    0  501    0  0.00000000000E+00  0.00000000000E+00  0.25651946841E+04  0.25651946841E+04  0.25500000000E-02 0. -1.
         -2   -1    0    0    0  501 -0.00000000000E+00 -0.00000000000E+00 -0.12321401276E+03  0.12321401279E+03  0.25500000000E-02 0.  1.
    8880022    1    1    2    0    0  0.20657785330E+03  0.49982282714E+02  0.31486424696E+02  0.26373411993E+03  0.15294330000E+03 0.  1.
    8880022    1    1    2    0    0 -0.20657785330E+03 -0.49982282714E+02  0.24104942467E+04  0.24246745770E+04  0.15294330000E+03 0.  0.
<mgrwt>
<rscale>  0 0.26184784E+03</rscale>
<asrwt>0</asrwt>
<pdfrwt beam="1">  1        2 0.39464531E+00 0.26184784E+03</pdfrwt>
<pdfrwt beam="2">  1       -2 0.18956003E-01 0.26184784E+03</pdfrwt>
<totfact> 0.85971525E+01</totfact>
</mgrwt>
</event>
<event>
 4    1  0.1033139E-008  0.7872514E+03  0.7818608E-02  0.9578656E-01
         -2   -1    0    0    0  501 -0.00000000000E+00  0.00000000000E+00  0.98183533755E+03  0.98183533756E+03  0.25500000000E-02 0.  1.
          2   -1    0    0  501    0  0.00000000000E+00 -0.00000000000E+00 -0.18386644607E+04  0.18386644607E+04  0.25500000000E-02 0. -1.
    8880022    1    1    2    0    0  0.85481726877E+02 -0.76750631380E+03 -0.15712309856E+04  0.17574218419E+04  0.15294330000E+03 0.  0.
    8880022    1    1    2    0    0 -0.85481726877E+02  0.76750631380E+03  0.71440186239E+03  0.10630779564E+04  0.15294330000E+03 0.  0.
<mgrwt>
<rscale>  0 0.78725137E+03</rscale>
<asrwt>0</asrwt>
<pdfrwt beam="1">  1        2 0.28287145E+00 0.78725137E+03</pdfrwt>
<pdfrwt beam="2">  1       -2 0.15105159E+00 0.78725137E+03</pdfrwt>
<totfact> 0.24817942E+00</totfact>
</mgrwt>
</event>
<event>
 4    1  0.1033139E-008  0.7912217E+03  0.7818608E-02  0.9572811E-01
         -2   -1    0    0    0  501 -0.00000000000E+00  0.00000000000E+00  0.32505267943E+03  0.32505267944E+03  0.25500000000E-02 0.  1.
          2   -1    0    0  501    0  0.00000000000E+00 -0.00000000000E+00 -0.24968118120E+04  0.24968118120E+04  0.25500000000E-02 0. -1.
    8880022    1    1    2    0    0  0.11913972066E+03  0.76710223070E+03 -0.41122294583E+03  0.89170402577E+03  0.15294330000E+03 0.  0.
    8880022    1    1    2    0    0 -0.11913972066E+03 -0.76710223070E+03 -0.17605361867E+04  0.19301604656E+04  0.15294330000E+03 0.  0.
<mgrwt>
<rscale>  0 0.79122169E+03</rscale>
<asrwt>0</asrwt>
<pdfrwt beam="1">  1        2 0.38412488E+00 0.79122169E+03</pdfrwt>
<pdfrwt beam="2">  1       -2 0.50008106E-01 0.79122169E+03</pdfrwt>
<totfact> 0.13763439E+01</totfact>
</mgrwt>
</event>
<event>
 4    1  0.1033139E-008  0.9222012E+03  0.7818608E-02  0.9398247E-01
         -2   -1    0    0    0  501 -0.00000000000E+00  0.00000000000E+00  0.59438250538E+03  0.59438250538E+03  0.25500000000E-02 0.  1.
          2   -1    0    0  501    0  0.00000000000E+00 -0.00000000000E+00 -0.16499821634E+04  0.16499821634E+04  0.25500000000E-02 0. -1.
    8880022    1    1    2    0    0 -0.89848070406E+03 -0.14069795200E+03 -0.93678288490E+03  0.13145407243E+04  0.15294330000E+03 0.  0.
    8880022    1    1    2    0    0  0.89848070406E+03  0.14069795200E+03 -0.11881677314E+03  0.92982394455E+03  0.15294330000E+03 0.  0.
<mgrwt>
<rscale>  0 0.92220125E+03</rscale>
<asrwt>0</asrwt>
<pdfrwt beam="1">  1        2 0.25384341E+00 0.92220125E+03</pdfrwt>
<pdfrwt beam="2">  1       -2 0.91443463E-01 0.92220125E+03</pdfrwt>
<totfact> 0.10712452E+01</totfact>
</mgrwt>
</event>
<event>
 4    1  0.1033139E-008  0.1251860E+04  0.7818608E-02  0.9068636E-01
          2   -1    0    0  501    0  0.00000000000E+00  0.00000000000E+00  0.21103848174E+04  0.21103848174E+04  0.25500000000E-02 0. -1.
         -2   -1    0    0    0  501 -0.00000000000E+00 -0.00000000000E+00 -0.11149733260E+04  0.11149733260E+04  0.25500000000E-02 0.  1.
    8880022    1    1    2    0    0 -0.42671500377E+03 -0.11669090773E+04  0.14296927631E+04  0.19003093272E+04  0.15294330000E+03 0.  0.
    8880022    1    1    2    0    0  0.42671500377E+03  0.11669090773E+04 -0.43428127166E+03  0.13250488161E+04  0.15294330000E+03 0.  0.
<mgrwt>
<rscale>  0 0.12518603E+04</rscale>
<asrwt>0</asrwt>
<pdfrwt beam="1">  1        2 0.32467458E+00 0.12518603E+04</pdfrwt>
<pdfrwt beam="2">  1       -2 0.17153436E+00 0.12518603E+04</pdfrwt>
<totfact> 0.11649765E+00</totfact>
</mgrwt>
</event>
<event>
 4    1  0.1033139E-008  0.8694187E+03  0.7818608E-02  0.9464638E-01
          2   -1    0    0  501    0  0.00000000000E+00  0.00000000000E+00  0.18345889895E+04  0.18345889895E+04  0.25500000000E-02 0. -1.
         -2   -1    0    0    0  501 -0.00000000000E+00 -0.00000000000E+00 -0.11253719060E+04  0.11253719060E+04  0.25500000000E-02 0.  1.
    8880022    1    1    2    0    0 -0.34407085050E+03 -0.78365325349E+03  0.15329186748E+04  0.17623077168E+04  0.15294330000E+03 0.  0.
    8880022    1    1    2    0    0  0.34407085050E+03  0.78365325349E+03 -0.82370159137E+03  0.11976531787E+04  0.15294330000E+03 0.  0.
<mgrwt>
<rscale>  0 0.86941867E+03</rscale>
<asrwt>0</asrwt>
<pdfrwt beam="1">  1        2 0.28224446E+00 0.86941867E+03</pdfrwt>
<pdfrwt beam="2">  1       -2 0.17313414E+00 0.86941867E+03</pdfrwt>
<totfact> 0.16968542E+00</totfact>
</mgrwt>
</event>
<event>
 4    1  0.1033139E-008  0.9069980E+03  0.7818608E-02  0.9416876E-01
          2   -1    0    0  501    0  0.00000000000E+00  0.00000000000E+00  0.14492711537E+04  0.14492711537E+04  0.25500000000E-02 0. -1.
         -2   -1    0    0    0  501 -0.00000000000E+00 -0.00000000000E+00 -0.10101151711E+04  0.10101151711E+04  0.25500000000E-02 0.  1.
    8880022    1    1    2    0    0  0.47751425826E+03  0.75580019286E+03  0.10334612946E+04  0.13750227994E+04  0.15294330000E+03 0.  0.
    8880022    1    1    2    0    0 -0.47751425826E+03 -0.75580019286E+03 -0.59430531204E+03  0.10843635254E+04  0.15294330000E+03 0.  0.
<mgrwt>
<rscale>  0 0.90699804E+03</rscale>
<asrwt>0</asrwt>
<pdfrwt beam="1">  1        2 0.22296479E+00 0.90699804E+03</pdfrwt>
<pdfrwt beam="2">  1       -2 0.15540234E+00 0.90699804E+03</pdfrwt>
<totfact> 0.37106595E+00</totfact>
</mgrwt>
</event>
<event>
 4    1  0.1033139E-008  0.3346712E+03  0.7818608E-02  0.1069088E+00
          2   -1    0    0  501    0  0.00000000000E+00  0.00000000000E+00  0.27387682066E+04  0.27387682066E+04  0.25500000000E-02 0. -1.
         -2   -1    0    0    0  501 -0.00000000000E+00 -0.00000000000E+00 -0.69145045902E+02  0.69145045949E+02  0.25500000000E-02 0.  1.
    8880022    1    1    2    0    0  0.28784565857E+03  0.75881918504E+02  0.43743537154E+03  0.55077631213E+03  0.15294330000E+03 0.  0.
    8880022    1    1    2    0    0 -0.28784565857E+03 -0.75881918504E+02  0.22321877892E+04  0.22571369404E+04  0.15294330000E+03 0.  0.
<mgrwt>
<rscale>  0 0.33467124E+03</rscale>
<asrwt>0</asrwt>
<pdfrwt beam="1">  1        2 0.42134888E+00 0.33467124E+03</pdfrwt>
<pdfrwt beam="2">  1       -2 0.10637701E-01 0.33467124E+03</pdfrwt>
<totfact> 0.17474171E+02</totfact>
</mgrwt>
</event>
<event>
 4    1  0.1033139E-008  0.2632752E+03  0.7818608E-02  0.1105191E+00
         -2   -1    0    0    0  501 -0.00000000000E+00  0.00000000000E+00  0.72906165861E+03  0.72906165862E+03  0.25500000000E-02 0.  1.
          2   -1    0    0  501    0  0.00000000000E+00 -0.00000000000E+00 -0.86719982436E+03  0.86719982436E+03  0.25500000000E-02 0. -1.
    8880022    1    1    2    0    0 -0.78596029610E+02 -0.19936106167E+03 -0.82217986900E+03  0.86330386238E+03  0.15294330000E+03 0. -1.
    8880022    1    1    2    0    0  0.78596029610E+02  0.19936106167E+03  0.68404170326E+03  0.73295762060E+03  0.15294330000E+03 0.  0.
<mgrwt>
<rscale>  0 0.26327518E+03</rscale>
<asrwt>0</asrwt>
<pdfrwt beam="1">  1        2 0.13341536E+00 0.26327518E+03</pdfrwt>
<pdfrwt beam="2">  1       -2 0.11216333E+00 0.26327518E+03</pdfrwt>
<totfact> 0.21255750E+01</totfact>
</mgrwt>
</event>
<event>
 4    1  0.1033139E-008  0.5844899E+03  0.7818608E-02  0.9938118E-01
         -2   -1    0    0    0  501 -0.00000000000E+00  0.00000000000E+00  0.44864291240E+03  0.44864291241E+03  0.25500000000E-02 0.  1.
          2   -1    0    0  501    0  0.00000000000E+00 -0.00000000000E+00 -0.30636188426E+04  0.30636188426E+04  0.25500000000E-02 0. -1.
    8880022    1    1    2    0    0 -0.41310359362E+03  0.38416424969E+03 -0.28298086649E+04  0.28895407045E+04  0.15294330000E+03 0.  0.
    8880022    1    1    2    0    0  0.41310359362E+03 -0.38416424969E+03  0.21483273475E+03  0.62272105050E+03  0.15294330000E+03 0.  1.
<mgrwt>
<rscale>  0 0.58448987E+03</rscale>
<asrwt>0</asrwt>
<pdfrwt beam="1">  1        2 0.47132596E+00 0.58448987E+03</pdfrwt>
<pdfrwt beam="2">  1       -2 0.69021988E-01 0.58448987E+03</pdfrwt>
<totfact> 0.33806924E+00</totfact>
</mgrwt>
</event>
<event>
 4    1  0.1033139E-008  0.1024531E+04  0.7818608E-02  0.9282041E-01
          2   -1    0    0  501    0  0.00000000000E+00  0.00000000000E+00  0.13002584073E+04  0.13002584073E+04  0.25500000000E-02 0. -1.
         -2   -1    0    0    0  501 -0.00000000000E+00 -0.00000000000E+00 -0.23105823260E+04  0.23105823260E+04  0.25500000000E-02 0.  1.
    8880022    1    1    2    0    0 -0.63897612009E+03 -0.78611817948E+03 -0.19614314226E+04  0.22128888704E+04  0.15294330000E+03 0.  0.
    8880022    1    1    2    0    0  0.63897612009E+03  0.78611817948E+03  0.95110750385E+03  0.13979518629E+04  0.15294330000E+03 0.  0.
<mgrwt>
<rscale>  0 0.10245311E+04</rscale>
<asrwt>0</asrwt>
<pdfrwt beam="1">  1        2 0.20003975E+00 0.10245311E+04</pdfrwt>
<pdfrwt beam="2">  1       -2 0.35547421E+00 0.10245311E+04</pdfrwt>
<totfact> 0.23937510E-01</totfact>
</mgrwt>
</event>
<event>
 4    1  0.1033139E-008  0.1318624E+04  0.7818608E-02  0.9014925E-01
          2   -1    0    0  501    0  0.00000000000E+00  0.00000000000E+00  0.11998896212E+04  0.11998896212E+04  0.25500000000E-02 0. -1.
         -2   -1    0    0    0  501 -0.00000000000E+00 -0.00000000000E+00 -0.19178554538E+04  0.19178554538E+04  0.25500000000E-02 0.  1.
    8880022    1    1    2    0    0  0.42768756088E+03 -0.12379257513E+04  0.41169441869E+03  0.13813981189E+04  0.15294330000E+03 0. -1.
    8880022    1    1    2    0    0 -0.42768756088E+03  0.12379257513E+04 -0.11296602513E+04  0.17363469561E+04  0.15294330000E+03 0.  0.
<mgrwt>
<rscale>  0 0.13186237E+04</rscale>
<asrwt>0</asrwt>
<pdfrwt beam="1">  1        2 0.18459840E+00 0.13186237E+04</pdfrwt>
<pdfrwt beam="2">  1       -2 0.29505469E+00 0.13186237E+04</pdfrwt>
<totfact> 0.62140211E-01</totfact>
</mgrwt>
</event>
<event>
 4    1  0.1033139E-008  0.1420983E+04  0.7818608E-02  0.8938769E-01
         -2   -1    0    0    0  501 -0.00000000000E+00  0.00000000000E+00  0.25706551570E+04  0.25706551570E+04  0.25500000000E-02 0.  1.
          2   -1    0    0  501    0  0.00000000000E+00 -0.00000000000E+00 -0.16621280697E+04  0.16621280697E+04  0.25500000000E-02 0. -1.
    8880022    1    1    2    0    0  0.94229008147E+03 -0.10525634691E+04 -0.10827476087E+04  0.17864866334E+04  0.15294330000E+03 0.  0.
    8880022    1    1    2    0    0 -0.94229008147E+03  0.10525634691E+04  0.19912746961E+04  0.24462965933E+04  0.15294330000E+03 0.  0.
<mgrwt>
<rscale>  0 0.14209828E+04</rscale>
<asrwt>0</asrwt>
<pdfrwt beam="1">  1        2 0.25571201E+00 0.14209828E+04</pdfrwt>
<pdfrwt beam="2">  1       -2 0.39548541E+00 0.14209828E+04</pdfrwt>
<totfact> 0.77809786E-02</totfact>
</mgrwt>
</event>
<event>
 4    1  0.1033139E-008  0.1204342E+04  0.7818608E-02  0.9109065E-01
         -2   -1    0    0    0  501 -0.00000000000E+00  0.00000000000E+00  0.59265211632E+03  0.59265211632E+03  0.25500000000E-02 0.  1.
          2   -1    0    0  501    0  0.00000000000E+00 -0.00000000000E+00 -0.35213595347E+04  0.35213595347E+04  0.25500000000E-02 0. -1.
    8880022    1    1    2    0    0  0.10304193579E+04 -0.60438635119E+03 -0.32834800354E+03  0.12482992346E+04  0.15294330000E+03 0.  0.
    8880022    1    1    2    0    0 -0.10304193579E+04  0.60438635119E+03 -0.26003594149E+04  0.28657124165E+04  0.15294330000E+03 0.  0.
<mgrwt>
<rscale>  0 0.12043415E+04</rscale>
<asrwt>0</asrwt>
<pdfrwt beam="1">  1        2 0.54174761E+00 0.12043415E+04</pdfrwt>
<pdfrwt beam="2">  1       -2 0.91177251E-01 0.12043415E+04</pdfrwt>
<totfact> 0.80671753E-01</totfact>
</mgrwt>
</event>
<event>
 4    1  0.1033139E-008  0.4945061E+03  0.7818608E-02  0.1015223E+00
          2   -1    0    0  501    0  0.00000000000E+00  0.00000000000E+00  0.12258789670E+04  0.12258789670E+04  0.25500000000E-02 0. -1.
         -2   -1    0    0    0  501 -0.00000000000E+00 -0.00000000000E+00 -0.43152021244E+03  0.43152021245E+03  0.25500000000E-02 0.  1.
    8880022    1    1    2    0    0  0.20862847284E+03 -0.42144842193E+03 -0.21050736388E+03  0.53744731397E+03  0.15294330000E+03 0.  0.
    8880022    1    1    2    0    0 -0.20862847284E+03  0.42144842193E+03  0.10048661185E+04  0.11199518655E+04  0.15294330000E+03 0.  0.
<mgrwt>
<rscale>  0 0.49450608E+03</rscale>
<asrwt>0</asrwt>
<pdfrwt beam="1">  1        2 0.18859676E+00 0.49450608E+03</pdfrwt>
<pdfrwt beam="2">  1       -2 0.66387725E-01 0.49450608E+03</pdfrwt>
<totfact> 0.40074089E+01</totfact>
</mgrwt>
</event>
<event>
 4    1  0.1033139E-008  0.6331065E+03  0.7818608E-02  0.9839005E-01
          2   -1    0    0  501    0  0.00000000000E+00  0.00000000000E+00  0.54325181019E+03  0.54325181020E+03  0.25500000000E-02 0. -1.
         -2   -1    0    0    0  501 -0.00000000000E+00 -0.00000000000E+00 -0.12429468309E+04  0.12429468309E+04  0.25500000000E-02 0.  1.
    8880022    1    1    2    0    0  0.44136284977E+03 -0.42735356732E+03  0.21949321035E+03  0.67007548758E+03  0.15294330000E+03 0.  0.
    8880022    1    1    2    0    0 -0.44136284977E+03  0.42735356732E+03 -0.91918823102E+03  0.11161231535E+04  0.15294330000E+03 0.  0.
<mgrwt>
<rscale>  0 0.63310654E+03</rscale>
<asrwt>0</asrwt>
<pdfrwt beam="1">  1        2 0.83577202E-01 0.63310654E+03</pdfrwt>
<pdfrwt beam="2">  1       -2 0.19122259E+00 0.63310654E+03</pdfrwt>
<totfact> 0.87755737E+00</totfact>
</mgrwt>
</event>
<event>
 4    1  0.1033139E-008  0.1302918E+04  0.7818608E-02  0.9027254E-01
          2   -1    0    0  501    0  0.00000000000E+00  0.00000000000E+00  0.19452339542E+04  0.19452339542E+04  0.25500000000E-02 0. -1.
         -2   -1    0    0    0  501 -0.00000000000E+00 -0.00000000000E+00 -0.10050953917E+04  0.10050953917E+04  0.25500000000E-02 0.  1.
    8880022    1    1    2    0    0 -0.94647611995E+03  0.88226258800E+03 -0.65334549850E+02  0.13045553174E+04  0.15294330000E+03 0.  0.
    8880022    1    1    2    0    0  0.94647611995E+03 -0.88226258800E+03  0.10054731124E+04  0.16457740284E+04  0.15294330000E+03 0.  0.
<mgrwt>
<rscale>  0 0.13029183E+04</rscale>
<asrwt>0</asrwt>
<pdfrwt beam="1">  1        2 0.29926676E+00 0.13029183E+04</pdfrwt>
<pdfrwt beam="2">  1       -2 0.15463006E+00 0.13029183E+04</pdfrwt>
<totfact> 0.19048278E+00</totfact>
</mgrwt>
</event>
<event>
 4    1  0.1033139E-008  0.5260811E+03  0.7818608E-02  0.1007187E+00
         -2   -1    0    0    0  501 -0.00000000000E+00  0.00000000000E+00  0.52903022700E+03  0.52903022701E+03  0.25500000000E-02 0.  1.
          2   -1    0    0  501    0  0.00000000000E+00 -0.00000000000E+00 -0.19718371458E+04  0.19718371458E+04  0.25500000000E-02 0. -1.
    8880022    1    1    2    0    0 -0.25599310323E+02  0.50270706346E+03  0.35039387201E+03  0.63208957822E+03  0.15294330000E+03 0.  0.
    8880022    1    1    2    0    0  0.25599310323E+02 -0.50270706346E+03 -0.17932007908E+04  0.18687777946E+04  0.15294330000E+03 0.  0.
<mgrwt>
<rscale>  0 0.52608114E+03</rscale>
<asrwt>0</asrwt>
<pdfrwt beam="1">  1        2 0.30335956E+00 0.52608114E+03</pdfrwt>
<pdfrwt beam="2">  1       -2 0.81389267E-01 0.52608114E+03</pdfrwt>
<totfact> 0.99262664E+00</totfact>
</mgrwt>
</event>
<event>
 4    1  0.1033139E-008  0.4926351E+03  0.7818608E-02  0.1015719E+00
          2   -1    0    0  501    0  0.00000000000E+00  0.00000000000E+00  0.24145461663E+04  0.24145461663E+04  0.25500000000E-02 0. -1.
         -2   -1    0    0    0  501 -0.00000000000E+00 -0.00000000000E+00 -0.14171059231E+03  0.14171059234E+03  0.25500000000E-02 0.  1.
    8880022    1    1    2    0    0 -0.19898381346E+03 -0.42391410035E+03  0.44726144084E+03  0.66538122304E+03  0.15294330000E+03 0.  0.
    8880022    1    1    2    0    0  0.19898381346E+03  0.42391410035E+03  0.18255741331E+04  0.18908755356E+04  0.15294330000E+03 0.  0.
<mgrwt>
<rscale>  0 0.49263513E+03</rscale>
<asrwt>0</asrwt>
<pdfrwt beam="1">  1        2 0.37146859E+00 0.49263513E+03</pdfrwt>
<pdfrwt beam="2">  1       -2 0.21801632E-01 0.49263513E+03</pdfrwt>
<totfact> 0.77023441E+01</totfact>
</mgrwt>
</event>
<event>
 4    1  0.1033139E-008  0.1038737E+04  0.7818608E-02  0.9267050E-01
         -2   -1    0    0    0  501 -0.00000000000E+00  0.00000000000E+00  0.80339347246E+03  0.80339347246E+03  0.25500000000E-02 0.  1.
          2   -1    0    0  501    0  0.00000000000E+00 -0.00000000000E+00 -0.20132440455E+04  0.20132440455E+04  0.25500000000E-02 0. -1.
    8880022    1    1    2    0    0 -0.99187993399E+03  0.26787598516E+03  0.20764727021E+03  0.10592886239E+04  0.15294330000E+03 0.  0.
    8880022    1    1    2    0    0  0.99187993399E+03 -0.26787598516E+03 -0.14174978433E+04  0.17573488941E+04  0.15294330000E+03 0.  0.
<mgrwt>
<rscale>  0 0.10387372E+04</rscale>
<asrwt>0</asrwt>
<pdfrwt beam="1">  1        2 0.30972985E+00 0.10387372E+04</pdfrwt>
<pdfrwt beam="2">  1       -2 0.12359900E+00 0.10387372E+04</pdfrwt>
<totfact> 0.32207925E+00</totfact>
</mgrwt>
</event>
<event>
 4    1  0.1033139E-008  0.5875202E+03  0.7818608E-02  0.9931641E-01
          2   -1    0    0  501    0  0.00000000000E+00  0.00000000000E+00  0.22073650944E+04  0.22073650944E+04  0.25500000000E-02 0. -1.
         -2   -1    0    0    0  501 -0.00000000000E+00 -0.00000000000E+00 -0.60344398622E+03  0.60344398623E+03  0.25500000000E-02 0.  1.
    8880022    1    1    2    0    0 -0.40229543418E+03 -0.39993341853E+03  0.20116375385E+04  0.20956778366E+04  0.15294330000E+03 0.  0.
    8880022    1    1    2    0    0  0.40229543418E+03  0.39993341853E+03 -0.40771643030E+03  0.71513124402E+03  0.15294330000E+03 0.  1.
<mgrwt>
<rscale>  0 0.58752022E+03</rscale>
<asrwt>0</asrwt>
<pdfrwt beam="1">  1        2 0.33959463E+00 0.58752022E+03</pdfrwt>
<pdfrwt beam="2">  1       -2 0.92837537E-01 0.58752022E+03</pdfrwt>
<totfact> 0.54052466E+00</totfact>
</mgrwt>
</event>
<event>
 4    1  0.1033139E-008  0.2137729E+03  0.7818608E-02  0.1138613E+00
         -2   -1    0    0    0  501 -0.00000000000E+00  0.00000000000E+00  0.22342727510E+03  0.22342727512E+03  0.25500000000E-02 0.  1.
          2   -1    0    0  501    0  0.00000000000E+00 -0.00000000000E+00 -0.18956633448E+04  0.18956633448E+04  0.25500000000E-02 0. -1.
    8880022    1    1    2    0    0 -0.14540465201E+03  0.34127794576E+02 -0.18368715201E+04  0.18492690052E+04  0.15294330000E+03 0. -1.
    8880022    1    1    2    0    0  0.14540465201E+03 -0.34127794576E+02  0.16463545045E+03  0.26982161468E+03  0.15294330000E+03 0.  0.
<mgrwt>
<rscale>  0 0.21377295E+03</rscale>
<asrwt>0</asrwt>
<pdfrwt beam="1">  1        2 0.29164050E+00 0.21377295E+03</pdfrwt>
<pdfrwt beam="2">  1       -2 0.34373428E-01 0.21377295E+03</pdfrwt>
<totfact> 0.69186638E+01</totfact>
</mgrwt>
</event>
<event>
 4    1  0.1033139E-008  0.1102624E+04  0.7818608E-02  0.9202638E-01
         -2   -1    0    0    0  501 -0.00000000000E+00  0.00000000000E+00  0.78965357006E+03  0.78965357007E+03  0.25500000000E-02 0.  1.
          2   -1    0    0  501    0  0.00000000000E+00 -0.00000000000E+00 -0.17162767519E+04  0.17162767519E+04  0.25500000000E-02 0. -1.
    8880022    1    1    2    0    0  0.24530890023E+03 -0.10640540617E+04 -0.86527881722E+03  0.14016014367E+04  0.15294330000E+03 0.  0.
    8880022    1    1    2    0    0 -0.24530890023E+03  0.10640540617E+04 -0.61344364633E+02  0.11043288853E+04  0.15294330000E+03 0.  0.
<mgrwt>
<rscale>  0 0.11026238E+04</rscale>
<asrwt>0</asrwt>
<pdfrwt beam="1">  1        2 0.26404258E+00 0.11026238E+04</pdfrwt>
<pdfrwt beam="2">  1       -2 0.12148516E+00 0.11026238E+04</pdfrwt>
<totfact> 0.48694981E+00</totfact>
</mgrwt>
</event>
<event>
 4    1  0.1033139E-008  0.6990086E+03  0.7818608E-02  0.9718929E-01
          2   -1    0    0  501    0  0.00000000000E+00  0.00000000000E+00  0.26853884047E+04  0.26853884047E+04  0.25500000000E-02 0. -1.
         -2   -1    0    0    0  501 -0.00000000000E+00 -0.00000000000E+00 -0.31791641944E+03  0.31791641945E+03  0.25500000000E-02 0.  1.
    8880022    1    1    2    0    0  0.68207106831E+03 -0.60036968696E+00  0.21657662803E+04  0.22757760295E+04  0.15294330000E+03 0.  0.
    8880022    1    1    2    0    0 -0.68207106831E+03  0.60036968696E+00  0.20170570504E+03  0.72752879471E+03  0.15294330000E+03 0.  0.
<mgrwt>
<rscale>  0 0.69900855E+03</rscale>
<asrwt>0</asrwt>
<pdfrwt beam="1">  1        2 0.41313667E+00 0.69900855E+03</pdfrwt>
<pdfrwt beam="2">  1       -2 0.48910220E-01 0.69900855E+03</pdfrwt>
<totfact> 0.11397201E+01</totfact>
</mgrwt>
</event>
<event>
 4    1  0.1033139E-008  0.9620221E+03  0.7818608E-02  0.9351208E-01
          2   -1    0    0  501    0  0.00000000000E+00  0.00000000000E+00  0.17336362875E+04  0.17336362875E+04  0.25500000000E-02 0. -1.
         -2   -1    0    0    0  501 -0.00000000000E+00 -0.00000000000E+00 -0.10385460452E+04  0.10385460452E+04  0.25500000000E-02 0.  1.
    8880022    1    1    2    0    0 -0.90413745245E+03 -0.29091290057E+03 -0.61872299246E+03  0.11438114543E+04  0.15294330000E+03 0.  0.
    8880022    1    1    2    0    0  0.90413745245E+03  0.29091290057E+03  0.13138132348E+04  0.16283708784E+04  0.15294330000E+03 0.  0.
<mgrwt>
<rscale>  0 0.96202209E+03</rscale>
<asrwt>0</asrwt>
<pdfrwt beam="1">  1        2 0.26671327E+00 0.96202209E+03</pdfrwt>
<pdfrwt beam="2">  1       -2 0.15977632E+00 0.96202209E+03</pdfrwt>
<totfact> 0.23739569E+00</totfact>
</mgrwt>
</event>
<event>
 4    1  0.1033139E-008  0.5949175E+03  0.7818608E-02  0.9916007E-01
         -2   -1    0    0    0  501 -0.00000000000E+00  0.00000000000E+00  0.51264776768E+03  0.51264776769E+03  0.25500000000E-02 0.  1.
          2   -1    0    0  501    0  0.00000000000E+00 -0.00000000000E+00 -0.10888761192E+04  0.10888761192E+04  0.25500000000E-02 0. -1.
    8880022    1    1    2    0    0  0.10525942057E+03  0.56520405054E+03  0.19630448754E+03  0.62646809114E+03  0.15294330000E+03 0.  0.
    8880022    1    1    2    0    0 -0.10525942057E+03 -0.56520405054E+03 -0.77253283903E+03  0.97505579571E+03  0.15294330000E+03 0.  0.
<mgrwt>
<rscale>  0 0.59491749E+03</rscale>
<asrwt>0</asrwt>
<pdfrwt beam="1">  1        2 0.16751940E+00 0.59491749E+03</pdfrwt>
<pdfrwt beam="2">  1       -2 0.78868888E-01 0.59491749E+03</pdfrwt>
<totfact> 0.32688419E+01</totfact>
</mgrwt>
</event>
<event>
 4    1  0.1033139E-008  0.1400102E+04  0.7818608E-02  0.8953745E-01
          2   -1    0    0  501    0  0.00000000000E+00  0.00000000000E+00  0.15551542981E+04  0.15551542981E+04  0.25500000000E-02 0. -1.
         -2   -1    0    0    0  501 -0.00000000000E+00 -0.00000000000E+00 -0.15532669348E+04  0.15532669348E+04  0.25500000000E-02 0.  1.
    8880022    1    1    2    0    0  0.12802608644E+04 -0.54573500238E+03  0.67569081271E+03  0.15546203077E+04  0.15294330000E+03 0.  0.
    8880022    1    1    2    0    0 -0.12802608644E+04  0.54573500238E+03 -0.67380344944E+03  0.15538009252E+04  0.15294330000E+03 0.  0.
<mgrwt>
<rscale>  0 0.14001022E+04</rscale>
<asrwt>0</asrwt>
<pdfrwt beam="1">  1        2 0.23925451E+00 0.14001022E+04</pdfrwt>
<pdfrwt beam="2">  1       -2 0.23896414E+00 0.14001022E+04</pdfrwt>
<totfact> 0.84358615E-01</totfact>
</mgrwt>
</event>
<event>
 4    1  0.1033139E-008  0.6838667E+03  0.7818608E-02  0.9745227E-01
         -2   -1    0    0    0  501 -0.00000000000E+00  0.00000000000E+00  0.31914182174E+03  0.31914182175E+03  0.25500000000E-02 0.  1.
          2   -1    0    0  501    0  0.00000000000E+00 -0.00000000000E+00 -0.20310643850E+04  0.20310643850E+04  0.25500000000E-02 0. -1.
    8880022    1    1    2    0    0 -0.26848655361E+03  0.61007949531E+03 -0.23582143225E+03  0.72338469779E+03  0.15294330000E+03 0.  0.
    8880022    1    1    2    0    0  0.26848655361E+03 -0.61007949531E+03 -0.14761011310E+04  0.16268215090E+04  0.15294330000E+03 0.  0.
<mgrwt>
<rscale>  0 0.68386671E+03</rscale>
<asrwt>0</asrwt>
<pdfrwt beam="1">  1        2 0.31247144E+00 0.68386671E+03</pdfrwt>
<pdfrwt beam="2">  1       -2 0.49098743E-01 0.68386671E+03</pdfrwt>
<totfact> 0.26309293E+01</totfact>
</mgrwt>
</event>
<event>
 4    1  0.1033139E-008  0.8627120E+03  0.7818608E-02  0.9473432E-01
         -2   -1    0    0    0  501 -0.00000000000E+00  0.00000000000E+00  0.26012877854E+03  0.26012877855E+03  0.25500000000E-02 0.  1.
          2   -1    0    0  501    0  0.00000000000E+00 -0.00000000000E+00 -0.30603159039E+04  0.30603159039E+04  0.25500000000E-02 0. -1.
    8880022    1    1    2    0    0 -0.78541678580E+03  0.32249154648E+03 -0.97657576972E+03  0.13030626278E+04  0.15294330000E+03 0.  0.
    8880022    1    1    2    0    0  0.78541678580E+03 -0.32249154648E+03 -0.18236113556E+04  0.20173820546E+04  0.15294330000E+03 0.  0.
<mgrwt>
<rscale>  0 0.86271199E+03</rscale>
<asrwt>0</asrwt>
<pdfrwt beam="1">  1        2 0.47081781E+00 0.86271199E+03</pdfrwt>
<pdfrwt beam="2">  1       -2 0.40019814E-01 0.86271199E+03</pdfrwt>
<totfact> 0.98485701E+00</totfact>
</mgrwt>
</event>
<event>
 4    1  0.1033139E-008  0.7958018E+03  0.7818608E-02  0.9566114E-01
          2   -1    0    0  501    0  0.00000000000E+00  0.00000000000E+00  0.99379216589E+03  0.99379216589E+03  0.25500000000E-02 0. -1.
         -2   -1    0    0    0  501 -0.00000000000E+00 -0.00000000000E+00 -0.11882210663E+04  0.11882210663E+04  0.25500000000E-02 0.  1.
    8880022    1    1    2    0    0  0.31936916036E+03  0.71267954961E+03  0.64570310370E+03  0.10248087393E+04  0.15294330000E+03 0.  0.
    8880022    1    1    2    0    0 -0.31936916036E+03 -0.71267954961E+03 -0.84013200411E+03  0.11572044929E+04  0.15294330000E+03 0.  0.
<mgrwt>
<rscale>  0 0.79580177E+03</rscale>
<asrwt>0</asrwt>
<pdfrwt beam="1">  1        2 0.15289110E+00 0.79580177E+03</pdfrwt>
<pdfrwt beam="2">  1       -2 0.18280324E+00 0.79580177E+03</pdfrwt>
<totfact> 0.44768607E+00</totfact>
</mgrwt>
</event>
<event>
 4    1  0.1033139E-008  0.1984602E+04  0.7818608E-02  0.8613854E-01
         -2   -1    0    0    0  501 -0.00000000000E+00  0.00000000000E+00  0.17938935896E+04  0.17938935896E+04  0.25500000000E-02 0.  1.
          2   -1    0    0  501    0  0.00000000000E+00 -0.00000000000E+00 -0.30050907859E+04  0.30050907859E+04  0.25500000000E-02 0. -1.
    8880022    1    1    2    0    0  0.52413378003E+03 -0.19080194671E+04 -0.18509745500E+04  0.27138078311E+04  0.15294330000E+03 0.  0.
    8880022    1    1    2    0    0 -0.52413378003E+03  0.19080194671E+04  0.63977735377E+03  0.20851765444E+04  0.15294330000E+03 0.  0.
<mgrwt>
<rscale>  0 0.19846023E+04</rscale>
<asrwt>0</asrwt>
<pdfrwt beam="1">  1        2 0.46232166E+00 0.19846023E+04</pdfrwt>
<pdfrwt beam="2">  1       -2 0.27598363E+00 0.19846023E+04</pdfrwt>
<totfact> 0.68348515E-02</totfact>
</mgrwt>
</event>
<event>
 4    1  0.1033139E-008  0.1455448E+04  0.7818608E-02  0.8914632E-01
          2   -1    0    0  501    0  0.00000000000E+00  0.00000000000E+00  0.21059943156E+04  0.21059943156E+04  0.25500000000E-02 0. -1.
         -2   -1    0    0    0  501 -0.00000000000E+00 -0.00000000000E+00 -0.15242727379E+04  0.15242727379E+04  0.25500000000E-02 0.  1.
    8880022    1    1    2    0    0 -0.14264479808E+04  0.24532178584E+03  0.13494232655E+04  0.19847597898E+04  0.15294330000E+03 0.  0.
    8880022    1    1    2    0    0  0.14264479808E+04 -0.24532178584E+03 -0.76770168788E+03  0.16455072637E+04  0.15294330000E+03 0.  0.
<mgrwt>
<rscale>  0 0.14554478E+04</rscale>
<asrwt>0</asrwt>
<pdfrwt beam="1">  1        2 0.32399913E+00 0.14554478E+04</pdfrwt>
<pdfrwt beam="2">  1       -2 0.23450350E+00 0.14554478E+04</pdfrwt>
<totfact> 0.44029527E-01</totfact>
</mgrwt>
</event>
<event>
 4    1  0.1033139E-008  0.2842264E+03  0.7818608E-02  0.1093403E+00
          2   -1    0    0  501    0  0.00000000000E+00  0.00000000000E+00  0.21074919479E+04  0.21074919479E+04  0.25500000000E-02 0. -1.
         -2   -1    0    0    0  501 -0.00000000000E+00 -0.00000000000E+00 -0.63902942351E+02  0.63902942402E+02  0.25500000000E-02 0.  1.
    8880022    1    1    2    0    0  0.73090476502E+02  0.22814644351E+03  0.17085791687E+04  0.17320587305E+04  0.15294330000E+03 0. -1.
    8880022    1    1    2    0    0 -0.73090476502E+02 -0.22814644351E+03  0.33500983684E+03  0.43933615971E+03  0.15294330000E+03 0.  0.
<mgrwt>
<rscale>  0 0.28422644E+03</rscale>
<asrwt>0</asrwt>
<pdfrwt beam="1">  1        2 0.32422949E+00 0.28422644E+03</pdfrwt>
<pdfrwt beam="2">  1       -2 0.98312230E-02 0.28422644E+03</pdfrwt>
<totfact> 0.44429311E+02</totfact>
</mgrwt>
</event>
<event>
 4    1  0.1033139E-008  0.5923454E+03  0.7818608E-02  0.9921415E-01
          2   -1    0    0  501    0  0.00000000000E+00  0.00000000000E+00  0.22522467585E+04  0.22522467585E+04  0.25500000000E-02 0. -1.
         -2   -1    0    0    0  501 -0.00000000000E+00 -0.00000000000E+00 -0.87302501590E+03  0.87302501591E+03  0.25500000000E-02 0.  1.
    8880022    1    1    2    0    0  0.55613346152E+03  0.13489635067E+03  0.21059778258E+04  0.21876964388E+04  0.15294330000E+03 0.  0.
    8880022    1    1    2    0    0 -0.55613346152E+03 -0.13489635067E+03 -0.72675608322E+03  0.93757533562E+03  0.15294330000E+03 0.  0.
<mgrwt>
<rscale>  0 0.59234543E+03</rscale>
<asrwt>0</asrwt>
<pdfrwt beam="1">  1        2 0.34649949E+00 0.59234543E+03</pdfrwt>
<pdfrwt beam="2">  1       -2 0.13431154E+00 0.59234543E+03</pdfrwt>
<totfact> 0.20830954E+00</totfact>
</mgrwt>
</event>
<event>
 4    1  0.1033139E-008  0.7887762E+03  0.7818608E-02  0.9576407E-01
          2   -1    0    0  501    0  0.00000000000E+00  0.00000000000E+00  0.18178525101E+04  0.18178525101E+04  0.25500000000E-02 0. -1.
         -2   -1    0    0    0  501 -0.00000000000E+00 -0.00000000000E+00 -0.91185472442E+03  0.91185472443E+03  0.25500000000E-02 0.  1.
    8880022    1    1    2    0    0  0.48689522835E+03  0.60142271588E+03 -0.62572025581E+03  0.10068235884E+04  0.15294330000E+03 0.  0.
    8880022    1    1    2    0    0 -0.48689522835E+03 -0.60142271588E+03  0.15317180415E+04  0.17228836462E+04  0.15294330000E+03 0.  0.
<mgrwt>
<rscale>  0 0.78877620E+03</rscale>
<asrwt>0</asrwt>
<pdfrwt beam="1">  1        2 0.27966961E+00 0.78877620E+03</pdfrwt>
<pdfrwt beam="2">  1       -2 0.14028534E+00 0.78877620E+03</pdfrwt>
<totfact> 0.30922445E+00</totfact>
</mgrwt>
</event>
<event>
 4    1  0.1033139E-008  0.1006455E+04  0.7818608E-02  0.9301493E-01
         -2   -1    0    0    0  501 -0.00000000000E+00  0.00000000000E+00  0.10569484152E+04  0.10569484152E+04  0.25500000000E-02 0.  1.
          2   -1    0    0  501    0  0.00000000000E+00 -0.00000000000E+00 -0.25564022002E+04  0.25564022002E+04  0.25500000000E-02 0. -1.
    8880022    1    1    2    0    0 -0.29601342983E+03 -0.94970315783E+03 -0.21781529414E+04  0.23994378358E+04  0.15294330000E+03 0.  0.
    8880022    1    1    2    0    0  0.29601342983E+03  0.94970315783E+03  0.67869915635E+03  0.12139127796E+04  0.15294330000E+03 0.  0.
<mgrwt>
<rscale>  0 0.10064550E+04</rscale>
<asrwt>0</asrwt>
<pdfrwt beam="1">  1        2 0.39329264E+00 0.10064550E+04</pdfrwt>
<pdfrwt beam="2">  1       -2 0.16260745E+00 0.10064550E+04</pdfrwt>
<totfact> 0.78229099E-01</totfact>
</mgrwt>
</event>
<event>
 4    1  0.1033139E-008  0.9417485E+03  0.7818608E-02  0.9374848E-01
          2   -1    0    0  501    0  0.00000000000E+00  0.00000000000E+00  0.24626746987E+04  0.24626746987E+04  0.25500000000E-02 0. -1.
         -2   -1    0    0    0  501 -0.00000000000E+00 -0.00000000000E+00 -0.81196132348E+03  0.81196132349E+03  0.25500000000E-02 0.  1.
    8880022    1    1    2    0    0 -0.63364396730E+03  0.67970132109E+03  0.20467404301E+04  0.22530061262E+04  0.15294330000E+03 0.  0.
    8880022    1    1    2    0    0  0.63364396730E+03 -0.67970132109E+03 -0.39602705492E+03  0.10216298960E+04  0.15294330000E+03 0.  0.
<mgrwt>
<rscale>  0 0.94174849E+03</rscale>
<asrwt>0</asrwt>
<pdfrwt beam="1">  1        2 0.37887303E+00 0.94174849E+03</pdfrwt>
<pdfrwt beam="2">  1       -2 0.12491713E+00 0.94174849E+03</pdfrwt>
<totfact> 0.17836511E+00</totfact>
</mgrwt>
</event>
<event>
 4    1  0.1033139E-008  0.9191568E+03  0.7818608E-02  0.9401946E-01
         -2   -1    0    0    0  501 -0.00000000000E+00  0.00000000000E+00  0.11490299443E+04  0.11490299443E+04  0.25500000000E-02 0.  1.
          2   -1    0    0  501    0  0.00000000000E+00 -0.00000000000E+00 -0.11620453103E+04  0.11620453103E+04  0.25500000000E-02 0. -1.
    8880022    1    1    2    0    0 -0.90496208042E+03 -0.50011901266E+02  0.69377169083E+03  0.11515938387E+04  0.15294330000E+03 0.  0.
    8880022    1    1    2    0    0  0.90496208042E+03  0.50011901266E+02 -0.70678705681E+03  0.11594814160E+04  0.15294330000E+03 0.  0.
<mgrwt>
<rscale>  0 0.91915679E+03</rscale>
<asrwt>0</asrwt>
<pdfrwt beam="1">  1        2 0.17877620E+00 0.91915679E+03</pdfrwt>
<pdfrwt beam="2">  1       -2 0.17677384E+00 0.91915679E+03</pdfrwt>
<totfact> 0.38137921E+00</totfact>
</mgrwt>
</event>
<event>
 4    1  0.1033139E-008  0.4892476E+03  0.7818608E-02  0.1016624E+00
         -2   -1    0    0    0  501 -0.00000000000E+00  0.00000000000E+00  0.25026736417E+03  0.25026736418E+03  0.25500000000E-02 0.  1.
          2   -1    0    0  501    0  0.00000000000E+00 -0.00000000000E+00 -0.15645462548E+04  0.15645462548E+04  0.25500000000E-02 0. -1.
    8880022    1    1    2    0    0  0.11832075444E+03 -0.44941267374E+03 -0.91419943147E+02  0.49771559276E+03  0.15294330000E+03 0.  1.
    8880022    1    1    2    0    0 -0.11832075444E+03  0.44941267374E+03 -0.12228589475E+04  0.13170980262E+04  0.15294330000E+03 0.  0.
<mgrwt>
<rscale>  0 0.48924759E+03</rscale>
<asrwt>0</asrwt>
<pdfrwt beam="1">  1        2 0.24069942E+00 0.48924759E+03</pdfrwt>
<pdfrwt beam="2">  1       -2 0.38502672E-01 0.48924759E+03</pdfrwt>
<totfact> 0.78349818E+01</totfact>
</mgrwt>
</event>
<event>
 4    1  0.1033139E-008  0.1681771E+04  0.7818608E-02  0.8771830E-01
          2   -1    0    0  501    0  0.00000000000E+00  0.00000000000E+00  0.25770725414E+04  0.25770725414E+04  0.25500000000E-02 0. -1.
         -2   -1    0    0    0  501 -0.00000000000E+00 -0.00000000000E+00 -0.16735475616E+04  0.16735475616E+04  0.25500000000E-02 0.  1.
    8880022    1    1    2    0    0  0.13503367796E+04 -0.99073285703E+03  0.16986582928E+04  0.23903540869E+04  0.15294330000E+03 0.  0.
    8880022    1    1    2    0    0 -0.13503367796E+04  0.99073285703E+03 -0.79513331300E+03  0.18602660161E+04  0.15294330000E+03 0.  0.
<mgrwt>
<rscale>  0 0.16817707E+04</rscale>
<asrwt>0</asrwt>
<pdfrwt beam="1">  1        2 0.39647270E+00 0.16817707E+04</pdfrwt>
<pdfrwt beam="2">  1       -2 0.25746886E+00 0.16817707E+04</pdfrwt>
<totfact> 0.16664596E-01</totfact>
</mgrwt>
</event>
<event>
 4    1  0.1033139E-008  0.5097600E+03  0.7818608E-02  0.1011262E+00
          2   -1    0    0  501    0  0.00000000000E+00  0.00000000000E+00  0.18276279859E+04  0.18276279859E+04  0.25500000000E-02 0. -1.
         -2   -1    0    0    0  501 -0.00000000000E+00 -0.00000000000E+00 -0.24066006558E+03  0.24066006559E+03  0.25500000000E-02 0.  1.
    8880022    1    1    2    0    0  0.10528004898E+03 -0.47474174736E+03  0.13195416317E+03  0.52656164843E+03  0.15294330000E+03 0.  1.
    8880022    1    1    2    0    0 -0.10528004898E+03  0.47474174736E+03  0.14550137572E+04  0.15417264031E+04  0.15294330000E+03 0.  0.
<mgrwt>
<rscale>  0 0.50976001E+03</rscale>
<asrwt>0</asrwt>
<pdfrwt beam="1">  1        2 0.28117353E+00 0.50976001E+03</pdfrwt>
<pdfrwt beam="2">  1       -2 0.37024626E-01 0.50976001E+03</pdfrwt>
<totfact> 0.60685029E+01</totfact>
</mgrwt>
</event>
<event>
 4    1  0.1033139E-008  0.3362879E+03  0.7818608E-02  0.1068388E+00
         -2   -1    0    0    0  501 -0.00000000000E+00  0.00000000000E+00  0.17477210670E+03  0.17477210671E+03  0.25500000000E-02 0.  1.
          2   -1    0    0  501    0  0.00000000000E+00 -0.00000000000E+00 -0.22301730446E+04  0.22301730446E+04  0.25500000000E-02 0. -1.
    8880022    1    1    2    0    0  0.22493204161E+03 -0.19774590315E+03 -0.14580904822E+02  0.33660380473E+03  0.15294330000E+03 0.  0.
    8880022    1    1    2    0    0 -0.22493204161E+03  0.19774590315E+03 -0.20408200331E+04  0.20683413466E+04  0.15294330000E+03 0.  0.
<mgrwt>
<rscale>  0 0.33628785E+03</rscale>
<asrwt>0</asrwt>
<pdfrwt beam="1">  1        2 0.34310352E+00 0.33628785E+03</pdfrwt>
<pdfrwt beam="2">  1       -2 0.26888018E-01 0.33628785E+03</pdfrwt>
<totfact> 0.69297278E+01</totfact>
</mgrwt>
</event>
<event>
 4    1  0.1033139E-008  0.1032962E+04  0.7818608E-02  0.9273113E-01
         -2   -1    0    0    0  501 -0.00000000000E+00  0.00000000000E+00  0.10838467986E+04  0.10838467986E+04  0.25500000000E-02 0.  1.
          2   -1    0    0  501    0  0.00000000000E+00 -0.00000000000E+00 -0.17289104587E+04  0.17289104587E+04  0.25500000000E-02 0. -1.
    8880022    1    1    2    0    0 -0.89308659012E+03  0.49599945160E+03 -0.12453837897E+04  0.16180208744E+04  0.15294330000E+03 0.  0.
    8880022    1    1    2    0    0  0.89308659012E+03 -0.49599945160E+03  0.60032012966E+03  0.11947363829E+04  0.15294330000E+03 0.  0.
<mgrwt>
<rscale>  0 0.10329621E+04</rscale>
<asrwt>0</asrwt>
<pdfrwt beam="1">  1        2 0.26598622E+00 0.10329621E+04</pdfrwt>
<pdfrwt beam="2">  1       -2 0.16674566E+00 0.10329621E+04</pdfrwt>
<totfact> 0.21044670E+00</totfact>
</mgrwt>
</event>
<event>
 4    1  0.1033139E-008  0.7505098E+03  0.7818608E-02  0.9634551E-01
          2   -1    0    0  501    0  0.00000000000E+00  0.00000000000E+00  0.13676735547E+04  0.13676735547E+04  0.25500000000E-02 0. -1.
         -2   -1    0    0    0  501 -0.00000000000E+00 -0.00000000000E+00 -0.10037149234E+04  0.10037149234E+04  0.25500000000E-02 0.  1.
    8880022    1    1    2    0    0  0.35915218239E+03 -0.64100161320E+03  0.10924833258E+04  0.13254375989E+04  0.15294330000E+03 0.  0.
    8880022    1    1    2    0    0 -0.35915218239E+03  0.64100161320E+03 -0.72852469451E+03  0.10459508792E+04  0.15294330000E+03 0.  0.
<mgrwt>
<rscale>  0 0.75050983E+03</rscale>
<asrwt>0</asrwt>
<pdfrwt beam="1">  1        2 0.21041132E+00 0.75050983E+03</pdfrwt>
<pdfrwt beam="2">  1       -2 0.15441768E+00 0.75050983E+03</pdfrwt>
<totfact> 0.42902394E+00</totfact>
</mgrwt>
</event>
<event>
 4    1  0.1033139E-008  0.7637015E+03  0.7818608E-02  0.9614097E-01
          2   -1    0    0  501    0  0.00000000000E+00  0.00000000000E+00  0.17926532214E+04  0.17926532214E+04  0.25500000000E-02 0. -1.
         -2   -1    0    0    0  501 -0.00000000000E+00 -0.00000000000E+00 -0.11511670872E+04  0.11511670872E+04  0.25500000000E-02 0.  1.
    8880022    1    1    2    0    0  0.62727185190E+03  0.40789495997E+03  0.15674202817E+04  0.17435728454E+04  0.15294330000E+03 0.  0.
    8880022    1    1    2    0    0 -0.62727185190E+03 -0.40789495997E+03 -0.92593414746E+03  0.12002474632E+04  0.15294330000E+03 0.  0.
<mgrwt>
<rscale>  0 0.76370146E+03</rscale>
<asrwt>0</asrwt>
<pdfrwt beam="1">  1        2 0.27579280E+00 0.76370146E+03</pdfrwt>
<pdfrwt beam="2">  1       -2 0.17710263E+00 0.76370146E+03</pdfrwt>
<totfact> 0.17087763E+00</totfact>
</mgrwt>
</event>
<event>
 4    1  0.1033139E-008  0.1000543E+04  0.7818608E-02  0.9307949E-01
          2   -1    0    0  501    0  0.00000000000E+00  0.00000000000E+00  0.12258104644E+04  0.12258104644E+04  0.25500000000E-02 0. -1.
         -2   -1    0    0    0  501 -0.00000000000E+00 -0.00000000000E+00 -0.16066210499E+04  0.16066210499E+04  0.25500000000E-02 0.  1.
    8880022    1    1    2    0    0 -0.37154101255E+02 -0.98808663064E+03 -0.11834567340E+04  0.15497280765E+04  0.15294330000E+03 0.  0.
    8880022    1    1    2    0    0  0.37154101255E+02  0.98808663064E+03  0.80264614846E+03  0.12827034379E+04  0.15294330000E+03 0.  0.
<mgrwt>
<rscale>  0 0.10005435E+04</rscale>
<asrwt>0</asrwt>
<pdfrwt beam="1">  1        2 0.18858622E+00 0.10005435E+04</pdfrwt>
<pdfrwt beam="2">  1       -2 0.24717247E+00 0.10005435E+04</pdfrwt>
<totfact> 0.12186624E+00</totfact>
</mgrwt>
</event>
<event>
 4    1  0.1033139E-008  0.3459438E+03  0.7818608E-02  0.1064292E+00
         -2   -1    0    0    0  501 -0.00000000000E+00  0.00000000000E+00  0.16636810630E+04  0.16636810630E+04  0.25500000000E-02 0.  1.
          2   -1    0    0  501    0  0.00000000000E+00 -0.00000000000E+00 -0.14913146248E+03  0.14913146250E+03  0.25500000000E-02 0. -1.
    8880022    1    1    2    0    0 -0.12655736804E+03 -0.28331734438E+03  0.14094083623E+04  0.14512439732E+04  0.15294330000E+03 0.  0.
    8880022    1    1    2    0    0  0.12655736804E+03  0.28331734438E+03  0.10514123823E+03  0.36156855231E+03  0.15294330000E+03 0. -1.
<mgrwt>
<rscale>  0 0.34594384E+03</rscale>
<asrwt>0</asrwt>
<pdfrwt beam="1">  1        2 0.22943303E-01 0.34594384E+03</pdfrwt>
<pdfrwt beam="2">  1       -2 0.25595092E+00 0.34594384E+03</pdfrwt>
<totfact> 0.15495210E+01</totfact>
</mgrwt>
</event>
<event>
 4    1  0.1033139E-008  0.7103208E+03  0.7818608E-02  0.9699743E-01
         -2   -1    0    0    0  501 -0.00000000000E+00  0.00000000000E+00  0.23100268696E+04  0.23100268696E+04  0.25500000000E-02 0.  1.
          2   -1    0    0  501    0  0.00000000000E+00 -0.00000000000E+00 -0.10370838394E+04  0.10370838394E+04  0.25500000000E-02 0. -1.
    8880022    1    1    2    0    0 -0.32522740106E+03  0.61269173374E+03 -0.85044298732E+03  0.11080654090E+04  0.15294330000E+03 0.  0.
    8880022    1    1    2    0    0  0.32522740106E+03 -0.61269173374E+03  0.21233860175E+04  0.22390453000E+04  0.15294330000E+03 0.  0.
<mgrwt>
<rscale>  0 0.71032083E+03</rscale>
<asrwt>0</asrwt>
<pdfrwt beam="1">  1        2 0.15955136E+00 0.71032083E+03</pdfrwt>
<pdfrwt beam="2">  1       -2 0.35538874E+00 0.71032083E+03</pdfrwt>
<totfact> 0.36723296E-01</totfact>
</mgrwt>
</event>
<event>
 4    1  0.1033139E-008  0.8125070E+03  0.7818608E-02  0.9542088E-01
         -2   -1    0    0    0  501 -0.00000000000E+00  0.00000000000E+00  0.42356056245E+03  0.42356056246E+03  0.25500000000E-02 0.  1.
          2   -1    0    0  501    0  0.00000000000E+00 -0.00000000000E+00 -0.19488429002E+04  0.19488429002E+04  0.25500000000E-02 0. -1.
    8880022    1    1    2    0    0 -0.34758454866E+02 -0.79722502680E+03 -0.12934396726E+04  0.15274664425E+04  0.15294330000E+03 0.  0.
    8880022    1    1    2    0    0  0.34758454866E+02  0.79722502680E+03 -0.23184266520E+03  0.84493702012E+03  0.15294330000E+03 0.  0.
<mgrwt>
<rscale>  0 0.81250695E+03</rscale>
<asrwt>0</asrwt>
<pdfrwt beam="1">  1        2 0.29982198E+00 0.81250695E+03</pdfrwt>
<pdfrwt beam="2">  1       -2 0.65163165E-01 0.81250695E+03</pdfrwt>
<totfact> 0.15873270E+01</totfact>
</mgrwt>
</event>
<event>
 4    1  0.1033139E-008  0.5988841E+03  0.7818608E-02  0.9907724E-01
          2   -1    0    0  501    0  0.00000000000E+00  0.00000000000E+00  0.29643440588E+04  0.29643440588E+04  0.25500000000E-02 0. -1.
         -2   -1    0    0    0  501 -0.00000000000E+00 -0.00000000000E+00 -0.27286160703E+03  0.27286160704E+03  0.25500000000E-02 0.  1.
    8880022    1    1    2    0    0 -0.53942492886E+03 -0.21045493525E+03  0.25532891734E+04  0.26225841817E+04  0.15294330000E+03 0.  0.
    8880022    1    1    2    0    0  0.53942492886E+03  0.21045493525E+03  0.13819327834E+03  0.61462148419E+03  0.15294330000E+03 0.  1.
<mgrwt>
<rscale>  0 0.59888412E+03</rscale>
<asrwt>0</asrwt>
<pdfrwt beam="1">  1        2 0.45605292E+00 0.59888412E+03</pdfrwt>
<pdfrwt beam="2">  1       -2 0.41978710E-01 0.59888412E+03</pdfrwt>
<totfact> 0.10787251E+01</totfact>
</mgrwt>
</event>
<event>
 4    1  0.1033139E-008  0.2533494E+04  0.7818608E-02  0.8391149E-01
          2   -1    0    0  501    0  0.00000000000E+00  0.00000000000E+00  0.40064620986E+04  0.40064620986E+04  0.25500000000E-02 0. -1.
         -2   -1    0    0    0  501 -0.00000000000E+00 -0.00000000000E+00 -0.17924350673E+04  0.17924350673E+04  0.25500000000E-02 0.  1.
    8880022    1    1    2    0    0  0.24742957731E+04  0.52255070052E+03  0.20519429112E+04  0.32602239450E+04  0.15294330000E+03 0.  0.
    8880022    1    1    2    0    0 -0.24742957731E+04 -0.52255070052E+03  0.16208412016E+03  0.25386732209E+04  0.15294330000E+03 0.  0.
<mgrwt>
<rscale>  0 0.25334937E+04</rscale>
<asrwt>0</asrwt>
<pdfrwt beam="1">  1        2 0.61637877E+00 0.25334937E+04</pdfrwt>
<pdfrwt beam="2">  1       -2 0.27575925E+00 0.25334937E+04</pdfrwt>
<totfact> 0.12675554E-02</totfact>
</mgrwt>
</event>
<event>
 4    1  0.1033139E-008  0.1155379E+04  0.7818608E-02  0.9152836E-01
         -2   -1    0    0    0  501 -0.00000000000E+00  0.00000000000E+00  0.12688141610E+04  0.12688141610E+04  0.25500000000E-02 0.  1.
          2   -1    0    0  501    0  0.00000000000E+00 -0.00000000000E+00 -0.26199718060E+04  0.26199718060E+04  0.25500000000E-02 0. -1.
    8880022    1    1    2    0    0 -0.47656379479E+03 -0.10413429559E+04  0.82857808583E+03  0.14217740677E+04  0.15294330000E+03 0.  0.
    8880022    1    1    2    0    0  0.47656379479E+03  0.10413429559E+04 -0.21797357308E+04  0.24670118993E+04  0.15294330000E+03 0.  0.
<mgrwt>
<rscale>  0 0.11553787E+04</rscale>
<asrwt>0</asrwt>
<pdfrwt beam="1">  1        2 0.40307259E+00 0.11553787E+04</pdfrwt>
<pdfrwt beam="2">  1       -2 0.19520218E+00 0.11553787E+04</pdfrwt>
<totfact> 0.41689866E-01</totfact>
</mgrwt>
</event>
<event>
 4    1  0.1033139E-008  0.9750183E+03  0.7818608E-02  0.9336377E-01
          2   -1    0    0  501    0  0.00000000000E+00  0.00000000000E+00  0.24371379497E+04  0.24371379497E+04  0.25500000000E-02 0. -1.
         -2   -1    0    0    0  501 -0.00000000000E+00 -0.00000000000E+00 -0.68871342254E+03  0.68871342254E+03  0.25500000000E-02 0.  1.
    8880022    1    1    2    0    0 -0.63430151377E+02 -0.96085671436E+03 -0.15497324791E+03  0.98725749945E+03  0.15294330000E+03 0.  0.
    8880022    1    1    2    0    0  0.63430151377E+02  0.96085671436E+03  0.19033977751E+04  0.21385938728E+04  0.15294330000E+03 0.  0.
<mgrwt>
<rscale>  0 0.97501829E+03</rscale>
<asrwt>0</asrwt>
<pdfrwt beam="1">  1        2 0.37494430E+00 0.97501829E+03</pdfrwt>
<pdfrwt beam="2">  1       -2 0.10595591E+00 0.97501829E+03</pdfrwt>
<totfact> 0.27509313E+00</totfact>
</mgrwt>
</event>
<event>
 4    1  0.1033139E-008  0.9591183E+03  0.7818608E-02  0.9354556E-01
          2   -1    0    0  501    0  0.00000000000E+00  0.00000000000E+00  0.22457589381E+04  0.22457589381E+04  0.25500000000E-02 0. -1.
         -2   -1    0    0    0  501 -0.00000000000E+00 -0.00000000000E+00 -0.74057860891E+03  0.74057860891E+03  0.25500000000E-02 0.  1.
    8880022    1    1    2    0    0 -0.83509937793E+03  0.44623467298E+03 -0.24559265550E+03  0.99006250300E+03  0.15294330000E+03 0.  0.
    8880022    1    1    2    0    0  0.83509937793E+03 -0.44623467298E+03  0.17507729846E+04  0.19962750440E+04  0.15294330000E+03 0.  0.
<mgrwt>
<rscale>  0 0.95911835E+03</rscale>
<asrwt>0</asrwt>
<pdfrwt beam="1">  1        2 0.34550138E+00 0.95911835E+03</pdfrwt>
<pdfrwt beam="2">  1       -2 0.11393517E+00 0.95911835E+03</pdfrwt>
<totfact> 0.29607596E+00</totfact>
</mgrwt>
</event>
<event>
 4    1  0.1033139E-008  0.1078145E+04  0.7818608E-02  0.9226759E-01
         -2   -1    0    0    0  501 -0.00000000000E+00  0.00000000000E+00  0.74807747931E+03  0.74807747932E+03  0.25500000000E-02 0.  1.
          2   -1    0    0  501    0  0.00000000000E+00 -0.00000000000E+00 -0.25017297672E+04  0.25017297672E+04  0.25500000000E-02 0. -1.
    8880022    1    1    2    0    0  0.10644808423E+04 -0.76722835721E+02  0.12336926480E+03  0.10851808539E+04  0.15294330000E+03 0.  0.
    8880022    1    1    2    0    0 -0.10644808423E+04  0.76722835721E+02 -0.18770215527E+04  0.21646263926E+04  0.15294330000E+03 0.  0.
<mgrwt>
<rscale>  0 0.10781454E+04</rscale>
<asrwt>0</asrwt>
<pdfrwt beam="1">  1        2 0.38488150E+00 0.10781454E+04</pdfrwt>
<pdfrwt beam="2">  1       -2 0.11508884E+00 0.10781454E+04</pdfrwt>
<totfact> 0.20370461E+00</totfact>
</mgrwt>
</event>
<event>
 4    1  0.1033139E-008  0.4840121E+03  0.7818608E-02  0.1018038E+00
         -2   -1    0    0    0  501 -0.00000000000E+00  0.00000000000E+00  0.28520301546E+03  0.28520301547E+03  0.25500000000E-02 0.  1.
          2   -1    0    0  501    0  0.00000000000E+00 -0.00000000000E+00 -0.11558584589E+04  0.11558584589E+04  0.25500000000E-02 0. -1.
    8880022    1    1    2    0    0  0.42759491907E+03 -0.16744734485E+03 -0.47742779671E+02  0.48636103271E+03  0.15294330000E+03 0.  0.
    8880022    1    1    2    0    0 -0.42759491907E+03  0.16744734485E+03 -0.82291266381E+03  0.95470044170E+03  0.15294330000E+03 0.  0.
<mgrwt>
<rscale>  0 0.48401207E+03</rscale>
<asrwt>0</asrwt>
<pdfrwt beam="1">  1        2 0.17782438E+00 0.48401207E+03</pdfrwt>
<pdfrwt beam="2">  1       -2 0.43877388E-01 0.48401207E+03</pdfrwt>
<totfact> 0.10327592E+02</totfact>
</mgrwt>
</event>
<event>
 4    1  0.1033139E-008  0.6507489E+03  0.7818608E-02  0.9805375E-01
          2   -1    0    0  501    0  0.00000000000E+00  0.00000000000E+00  0.20201238790E+04  0.20201238790E+04  0.25500000000E-02 0. -1.
         -2   -1    0    0    0  501 -0.00000000000E+00 -0.00000000000E+00 -0.33338982619E+03  0.33338982620E+03  0.25500000000E-02 0.  1.
    8880022    1    1    2    0    0  0.60213272218E+03  0.19369751363E+03  0.15603423505E+04  0.16906041658E+04  0.15294330000E+03 0.  0.
    8880022    1    1    2    0    0 -0.60213272218E+03 -0.19369751363E+03  0.12639170232E+03  0.66290953933E+03  0.15294330000E+03 0.  1.
<mgrwt>
<rscale>  0 0.65074895E+03</rscale>
<asrwt>0</asrwt>
<pdfrwt beam="1">  1        2 0.31078828E+00 0.65074895E+03</pdfrwt>
<pdfrwt beam="2">  1       -2 0.51290743E-01 0.65074895E+03</pdfrwt>
<totfact> 0.24529165E+01</totfact>
</mgrwt>
</event>
<event>
 4    1  0.1033139E-008  0.3801476E+03  0.7818608E-02  0.1050879E+00
         -2   -1    0    0    0  501 -0.00000000000E+00  0.00000000000E+00  0.42235367343E+03  0.42235367343E+03  0.25500000000E-02 0.  1.
          2   -1    0    0  501    0  0.00000000000E+00 -0.00000000000E+00 -0.18269213395E+04  0.18269213395E+04  0.25500000000E-02 0. -1.
    8880022    1    1    2    0    0  0.34792204441E+03 -0.84154198442E+01 -0.17161510301E+04  0.17577504315E+04  0.15294330000E+03 0. -1.
    8880022    1    1    2    0    0 -0.34792204441E+03  0.84154198442E+01  0.31158336411E+03  0.49152458136E+03  0.15294330000E+03 0.  0.
<mgrwt>
<rscale>  0 0.38014763E+03</rscale>
<asrwt>0</asrwt>
<pdfrwt beam="1">  1        2 0.28106482E+00 0.38014763E+03</pdfrwt>
<pdfrwt beam="2">  1       -2 0.64977489E-01 0.38014763E+03</pdfrwt>
<totfact> 0.20116250E+01</totfact>
</mgrwt>
</event>
<event>
 4    1  0.1033139E-008  0.9105142E+03  0.7818608E-02  0.9412533E-01
          2   -1    0    0  501    0  0.00000000000E+00  0.00000000000E+00  0.14179551584E+04  0.14179551584E+04  0.25500000000E-02 0. -1.
         -2   -1    0    0    0  501 -0.00000000000E+00 -0.00000000000E+00 -0.17947903368E+04  0.17947903368E+04  0.25500000000E-02 0.  1.
    8880022    1    1    2    0    0 -0.78836739437E+03 -0.42909362064E+03 -0.15074446603E+04  0.17610864659E+04  0.15294330000E+03 0.  1.
    8880022    1    1    2    0    0  0.78836739437E+03  0.42909362064E+03  0.11306094819E+04  0.14516590293E+04  0.15294330000E+03 0.  0.
<mgrwt>
<rscale>  0 0.91051422E+03</rscale>
<asrwt>0</asrwt>
<pdfrwt beam="1">  1        2 0.21814695E+00 0.91051422E+03</pdfrwt>
<pdfrwt beam="2">  1       -2 0.27612159E+00 0.91051422E+03</pdfrwt>
<totfact> 0.63844130E-01</totfact>
</mgrwt>
</event>
<event>
 4    1  0.1033139E-008  0.9038163E+03  0.7818608E-02  0.9420823E-01
          2   -1    0    0  501    0  0.00000000000E+00  0.00000000000E+00  0.22688751390E+04  0.22688751390E+04  0.25500000000E-02 0. -1.
         -2   -1    0    0    0  501 -0.00000000000E+00 -0.00000000000E+00 -0.73785463182E+03  0.73785463183E+03  0.25500000000E-02 0.  1.
    8880022    1    1    2    0    0 -0.29047002071E+03  0.84209233830E+03  0.18412788044E+04  0.20511439803E+04  0.15294330000E+03 0.  0.
    8880022    1    1    2    0    0  0.29047002071E+03 -0.84209233830E+03 -0.31025829722E+03  0.95558579059E+03  0.15294330000E+03 0.  0.
<mgrwt>
<rscale>  0 0.90381635E+03</rscale>
<asrwt>0</asrwt>
<pdfrwt beam="1">  1        2 0.34905771E+00 0.90381635E+03</pdfrwt>
<pdfrwt beam="2">  1       -2 0.11351610E+00 0.90381635E+03</pdfrwt>
<totfact> 0.29235800E+00</totfact>
</mgrwt>
</event>
<event>
 4    1  0.1033139E-008  0.5447089E+03  0.7818608E-02  0.1002726E+00
         -2   -1    0    0    0  501 -0.00000000000E+00  0.00000000000E+00  0.45756634065E+03  0.45756634065E+03  0.25500000000E-02 0.  1.
          2   -1    0    0  501    0  0.00000000000E+00 -0.00000000000E+00 -0.33199372261E+04  0.33199372261E+04  0.25500000000E-02 0. -1.
    8880022    1    1    2    0    0 -0.40520925260E+03  0.33033565632E+03 -0.31254713169E+04  0.31725823535E+04  0.15294330000E+03 0.  0.
    8880022    1    1    2    0    0  0.40520925260E+03 -0.33033565632E+03  0.26310043140E+03  0.60492121326E+03  0.15294330000E+03 0.  0.
<mgrwt>
<rscale>  0 0.54470895E+03</rscale>
<asrwt>0</asrwt>
<pdfrwt beam="1">  1        2 0.51075956E+00 0.54470895E+03</pdfrwt>
<pdfrwt beam="2">  1       -2 0.70394823E-01 0.54470895E+03</pdfrwt>
<totfact> 0.22582440E+00</totfact>
</mgrwt>
</event>
<event>
 4    1  0.1033139E-008  0.5373339E+03  0.7818608E-02  0.1004469E+00
         -2   -1    0    0    0  501 -0.00000000000E+00  0.00000000000E+00  0.37438801650E+03  0.37438801651E+03  0.25500000000E-02 0.  1.
          2   -1    0    0  501    0  0.00000000000E+00 -0.00000000000E+00 -0.21563372215E+04  0.21563372215E+04  0.25500000000E-02 0. -1.
    8880022    1    1    2    0    0  0.36637208597E+03 -0.36208774018E+03  0.12317775960E+03  0.55127166664E+03  0.15294330000E+03 0.  0.
    8880022    1    1    2    0    0 -0.36637208597E+03  0.36208774018E+03 -0.19051269646E+04  0.19794535714E+04  0.15294330000E+03 0.  0.
<mgrwt>
<rscale>  0 0.53733387E+03</rscale>
<asrwt>0</asrwt>
<pdfrwt beam="1">  1        2 0.33174418E+00 0.53733387E+03</pdfrwt>
<pdfrwt beam="2">  1       -2 0.57598158E-01 0.53733387E+03</pdfrwt>
<totfact> 0.16620859E+01</totfact>
</mgrwt>
</event>
<event>
 4    1  0.1033139E-008  0.1267815E+04  0.7818608E-02  0.9055485E-01
          2   -1    0    0  501    0  0.00000000000E+00  0.00000000000E+00  0.98149006871E+03  0.98149006871E+03  0.25500000000E-02 0. -1.
         -2   -1    0    0    0  501 -0.00000000000E+00 -0.00000000000E+00 -0.21566131109E+04  0.21566131109E+04  0.25500000000E-02 0.  1.
    8880022    1    1    2    0    0  0.12585365194E+04  0.70693309129E+01  0.18212064221E+03  0.12808293124E+04  0.15294330000E+03 0.  0.
    8880022    1    1    2    0    0 -0.12585365194E+04 -0.70693309129E+01 -0.13572436844E+04  0.18572738673E+04  0.15294330000E+03 0.  0.
<mgrwt>
<rscale>  0 0.12678154E+04</rscale>
<asrwt>0</asrwt>
<pdfrwt beam="1">  1        2 0.15099847E+00 0.12678154E+04</pdfrwt>
<pdfrwt beam="2">  1       -2 0.33178663E+00 0.12678154E+04</pdfrwt>
<totfact> 0.50985743E-01</totfact>
</mgrwt>
</event>
<event>
 4    1  0.1033139E-008  0.1338414E+04  0.7818608E-02  0.8999645E-01
         -2   -1    0    0    0  501 -0.00000000000E+00  0.00000000000E+00  0.11588634311E+04  0.11588634311E+04  0.25500000000E-02 0.  1.
          2   -1    0    0  501    0  0.00000000000E+00 -0.00000000000E+00 -0.18399348046E+04  0.18399348046E+04  0.25500000000E-02 0. -1.
    8880022    1    1    2    0    0  0.13244700373E+04 -0.11722042351E+03 -0.94005153074E+03  0.16355580213E+04  0.15294330000E+03 0.  0.
    8880022    1    1    2    0    0 -0.13244700373E+04  0.11722042351E+03  0.25898015720E+03  0.13632402145E+04  0.15294330000E+03 0.  0.
<mgrwt>
<rscale>  0 0.13384144E+04</rscale>
<asrwt>0</asrwt>
<pdfrwt beam="1">  1        2 0.28306689E+00 0.13384144E+04</pdfrwt>
<pdfrwt beam="2">  1       -2 0.17828668E+00 0.13384144E+04</pdfrwt>
<totfact> 0.14616270E+00</totfact>
</mgrwt>
</event>
<event>
 4    1  0.1033139E-008  0.5942937E+03  0.7818608E-02  0.9917316E-01
          2   -1    0    0  501    0  0.00000000000E+00  0.00000000000E+00  0.13597136326E+04  0.13597136326E+04  0.25500000000E-02 0. -1.
         -2   -1    0    0    0  501 -0.00000000000E+00 -0.00000000000E+00 -0.32102210469E+03  0.32102210470E+03  0.25500000000E-02 0.  1.
    8880022    1    1    2    0    0  0.13269548660E+03 -0.55873539578E+03  0.88648855675E+03  0.10672614248E+04  0.15294330000E+03 0.  0.
    8880022    1    1    2    0    0 -0.13269548660E+03  0.55873539578E+03  0.15220297120E+03  0.61347431252E+03  0.15294330000E+03 0.  0.
<mgrwt>
<rscale>  0 0.59429369E+03</rscale>
<asrwt>0</asrwt>
<pdfrwt beam="1">  1        2 0.20918671E+00 0.59429369E+03</pdfrwt>
<pdfrwt beam="2">  1       -2 0.49388016E-01 0.59429369E+03</pdfrwt>
<totfact> 0.61381632E+01</totfact>
</mgrwt>
</event>
<event>
 4    1  0.1033139E-008  0.4791895E+03  0.7818608E-02  0.1019358E+00
          2   -1    0    0  501    0  0.00000000000E+00  0.00000000000E+00  0.16181081367E+04  0.16181081367E+04  0.25500000000E-02 0. -1.
         -2   -1    0    0    0  501 -0.00000000000E+00 -0.00000000000E+00 -0.18538954425E+03  0.18538954426E+03  0.25500000000E-02 0.  1.
    8880022    1    1    2    0    0  0.27133708747E+03 -0.36415259594E+03  0.11530713418E+04  0.12486777408E+04  0.15294330000E+03 0.  0.
    8880022    1    1    2    0    0 -0.27133708747E+03  0.36415259594E+03  0.27964725068E+03  0.55481994015E+03  0.15294330000E+03 0.  0.
<mgrwt>
<rscale>  0 0.47918950E+03</rscale>
<asrwt>0</asrwt>
<pdfrwt beam="1">  1        2 0.24893971E+00 0.47918950E+03</pdfrwt>
<pdfrwt beam="2">  1       -2 0.28521469E-01 0.47918950E+03</pdfrwt>
<totfact> 0.12876487E+02</totfact>
</mgrwt>
</event>
<event>
 4    1  0.1033139E-008  0.1567489E+04  0.7818608E-02  0.8840774E-01
         -2   -1    0    0    0  501 -0.00000000000E+00  0.00000000000E+00  0.30945426074E+04  0.30945426074E+04  0.25500000000E-02 0.  1.
          2   -1    0    0  501    0  0.00000000000E+00 -0.00000000000E+00 -0.98386822196E+03  0.98386822196E+03  0.25500000000E-02 0. -1.
    8880022    1    1    2    0    0  0.95646176809E+03  0.12323998878E+04  0.19511883618E+04  0.25028296533E+04  0.15294330000E+03 0.  0.
    8880022    1    1    2    0    0 -0.95646176809E+03 -0.12323998878E+04  0.15948602359E+03  0.15755811760E+04  0.15294330000E+03 0.  0.
<mgrwt>
<rscale>  0 0.15674885E+04</rscale>
<asrwt>0</asrwt>
<pdfrwt beam="1">  1        2 0.15136434E+00 0.15674885E+04</pdfrwt>
<pdfrwt beam="2">  1       -2 0.47608347E+00 0.15674885E+04</pdfrwt>
<totfact> 0.56644093E-02</totfact>
</mgrwt>
</event>
<event>
 4    1  0.1033139E-008  0.3484439E+03  0.7818608E-02  0.1063256E+00
          2   -1    0    0  501    0  0.00000000000E+00  0.00000000000E+00  0.97610702928E+03  0.97610702929E+03  0.25500000000E-02 0. -1.
         -2   -1    0    0    0  501 -0.00000000000E+00 -0.00000000000E+00 -0.30312438796E+03  0.30312438797E+03  0.25500000000E-02 0.  1.
    8880022    1    1    2    0    0 -0.25482887019E+02  0.31204502560E+03 -0.15466387846E+03  0.38122702403E+03  0.15294330000E+03 0.  0.
    8880022    1    1    2    0    0  0.25482887019E+02 -0.31204502560E+03  0.82764651978E+03  0.89800439323E+03  0.15294330000E+03 0. -1.
<mgrwt>
<rscale>  0 0.34844387E+03</rscale>
<asrwt>0</asrwt>
<pdfrwt beam="1">  1        2 0.15017031E+00 0.34844387E+03</pdfrwt>
<pdfrwt beam="2">  1       -2 0.46634522E-01 0.34844387E+03</pdfrwt>
<totfact> 0.11987527E+02</totfact>
</mgrwt>
</event>
<event>
 4    1  0.1033139E-008  0.2168039E+04  0.7818608E-02  0.8531850E-01
         -2   -1    0    0    0  501 -0.00000000000E+00  0.00000000000E+00  0.17495271093E+04  0.17495271093E+04  0.25500000000E-02 0.  1.
          2   -1    0    0  501    0  0.00000000000E+00 -0.00000000000E+00 -0.31802931280E+04  0.31802931280E+04  0.25500000000E-02 0. -1.
    8880022    1    1    2    0    0  0.17178647544E+04 -0.13137518598E+04  0.25572389734E+03  0.21830688556E+04  0.15294330000E+03 0.  0.
    8880022    1    1    2    0    0 -0.17178647544E+04  0.13137518598E+04 -0.16864899160E+04  0.27467513817E+04  0.15294330000E+03 0.  0.
<mgrwt>
<rscale>  0 0.21680394E+04</rscale>
<asrwt>0</asrwt>
<pdfrwt beam="1">  1        2 0.48927587E+00 0.21680394E+04</pdfrwt>
<pdfrwt beam="2">  1       -2 0.26915802E+00 0.21680394E+04</pdfrwt>
<totfact> 0.57087212E-02</totfact>
</mgrwt>
</event>
<event>
 4    1  0.1033139E-008  0.1664994E+03  0.7818608E-02  0.1181548E+00
          2   -1    0    0  501    0  0.00000000000E+00  0.00000000000E+00  0.18023705811E+04  0.18023705811E+04  0.25500000000E-02 0. -1.
         -2   -1    0    0    0  501 -0.00000000000E+00 -0.00000000000E+00 -0.45050489640E+02  0.45050489712E+02  0.25500000000E-02 0.  1.
    8880022    1    1    2    0    0 -0.58165193605E+02  0.30776567909E+02  0.16282816228E+04  0.16367721537E+04  0.15294330000E+03 0.  0.
    8880022    1    1    2    0    0  0.58165193605E+02 -0.30776567909E+02  0.12903846864E+03  0.21064891712E+03  0.15294330000E+03 0.  1.
<mgrwt>
<rscale>  0 0.16649937E+03</rscale>
<asrwt>0</asrwt>
<pdfrwt beam="1">  1        2 0.27728779E+00 0.16649937E+03</pdfrwt>
<pdfrwt beam="2">  1       -2 0.69308443E-02 0.16649937E+03</pdfrwt>
<totfact> 0.11305705E+03</totfact>
</mgrwt>
</event>
<event>
 4    1  0.1033139E-008  0.3269160E+03  0.7818608E-02  0.1072510E+00
          2   -1    0    0  501    0  0.00000000000E+00  0.00000000000E+00  0.18938193197E+04  0.18938193197E+04  0.25500000000E-02 0. -1.
         -2   -1    0    0    0  501 -0.00000000000E+00 -0.00000000000E+00 -0.27943214883E+03  0.27943214885E+03  0.25500000000E-02 0.  1.
    8880022    1    1    2    0    0  0.25966592902E+02  0.28776407089E+03 -0.16352493405E+03  0.36553314694E+03  0.15294330000E+03 0.  0.
    8880022    1    1    2    0    0 -0.25966592902E+02 -0.28776407089E+03  0.17779121049E+04  0.18077183216E+04  0.15294330000E+03 0. -1.
<mgrwt>
<rscale>  0 0.32691601E+03</rscale>
<asrwt>0</asrwt>
<pdfrwt beam="1">  1        2 0.29135683E+00 0.32691601E+03</pdfrwt>
<pdfrwt beam="2">  1       -2 0.42989559E-01 0.32691601E+03</pdfrwt>
<totfact> 0.43613692E+01</totfact>
</mgrwt>
</event>
<event>
 4    1  0.1033139E-008  0.2057852E+04  0.7818608E-02  0.8580041E-01
          2   -1    0    0  501    0  0.00000000000E+00  0.00000000000E+00  0.42195774701E+04  0.42195774701E+04  0.25500000000E-02 0. -1.
         -2   -1    0    0    0  501 -0.00000000000E+00 -0.00000000000E+00 -0.11531197440E+04  0.11531197440E+04  0.25500000000E-02 0.  1.
    8880022    1    1    2    0    0 -0.18400266069E+04 -0.90866073910E+03  0.56588858374E+03  0.21342408007E+04  0.15294330000E+03 0.  0.
    8880022    1    1    2    0    0  0.18400266069E+04  0.90866073910E+03  0.25005691424E+04  0.32384564134E+04  0.15294330000E+03 0.  0.
<mgrwt>
<rscale>  0 0.20578518E+04</rscale>
<asrwt>0</asrwt>
<pdfrwt beam="1">  1        2 0.64916576E+00 0.20578518E+04</pdfrwt>
<pdfrwt beam="2">  1       -2 0.17740304E+00 0.20578518E+04</pdfrwt>
<totfact> 0.37849967E-02</totfact>
</mgrwt>
</event>
<event>
 4    1  0.1033139E-008  0.1395062E+04  0.7818608E-02  0.8957400E-01
         -2   -1    0    0    0  501 -0.00000000000E+00  0.00000000000E+00  0.86309585856E+03  0.86309585857E+03  0.25500000000E-02 0.  1.
          2   -1    0    0  501    0  0.00000000000E+00 -0.00000000000E+00 -0.23116017772E+04  0.23116017772E+04  0.25500000000E-02 0. -1.
    8880022    1    1    2    0    0 -0.10312462147E+04 -0.92700502858E+03 -0.97285058842E+03  0.17007754110E+04  0.15294330000E+03 0.  0.
    8880022    1    1    2    0    0  0.10312462147E+04  0.92700502858E+03 -0.47565533022E+03  0.14739222247E+04  0.15294330000E+03 0.  0.
<mgrwt>
<rscale>  0 0.13950623E+04</rscale>
<asrwt>0</asrwt>
<pdfrwt beam="1">  1        2 0.35563104E+00 0.13950623E+04</pdfrwt>
<pdfrwt beam="2">  1       -2 0.13278398E+00 0.13950623E+04</pdfrwt>
<totfact> 0.17582471E+00</totfact>
</mgrwt>
</event>
<event>
 4    1  0.1033139E-008  0.1388726E+04  0.7818608E-02  0.8962020E-01
         -2   -1    0    0    0  501 -0.00000000000E+00  0.00000000000E+00  0.14400754174E+04  0.14400754174E+04  0.25500000000E-02 0.  1.
          2   -1    0    0  501    0  0.00000000000E+00 -0.00000000000E+00 -0.21488141911E+04  0.21488141911E+04  0.25500000000E-02 0. -1.
    8880022    1    1    2    0    0 -0.56098722800E+03  0.12611345042E+04  0.74708862860E+03  0.15769273857E+04  0.15294330000E+03 0.  0.
    8880022    1    1    2    0    0  0.56098722800E+03 -0.12611345042E+04 -0.14558274023E+04  0.20119622228E+04  0.15294330000E+03 0.  0.
<mgrwt>
<rscale>  0 0.13887255E+04</rscale>
<asrwt>0</asrwt>
<pdfrwt beam="1">  1        2 0.33058680E+00 0.13887255E+04</pdfrwt>
<pdfrwt beam="2">  1       -2 0.22155007E+00 0.13887255E+04</pdfrwt>
<totfact> 0.50638773E-01</totfact>
</mgrwt>
</event>
<event>
 4    1  0.1033139E-008  0.3569972E+03  0.7818608E-02  0.1059779E+00
          2   -1    0    0  501    0  0.00000000000E+00  0.00000000000E+00  0.36780163486E+04  0.36780163486E+04  0.25500000000E-02 0. -1.
         -2   -1    0    0    0  501 -0.00000000000E+00 -0.00000000000E+00 -0.37131583238E+03  0.37131583238E+03  0.25500000000E-02 0.  1.
    8880022    1    1    2    0    0  0.31811045254E+03  0.53489320126E+02 -0.27453214248E+03  0.45034977256E+03  0.15294330000E+03 0.  1.
    8880022    1    1    2    0    0 -0.31811045254E+03 -0.53489320126E+02  0.35812326587E+04  0.35989824084E+04  0.15294330000E+03 0.  0.
<mgrwt>
<rscale>  0 0.35699723E+03</rscale>
<asrwt>0</asrwt>
<pdfrwt beam="1">  1        2 0.56584864E+00 0.35699723E+03</pdfrwt>
<pdfrwt beam="2">  1       -2 0.57125516E-01 0.35699723E+03</pdfrwt>
<totfact> 0.21739118E+00</totfact>
</mgrwt>
</event>
<event>
 4    1  0.1033139E-008  0.9000111E+03  0.7818608E-02  0.9425568E-01
         -2   -1    0    0    0  501 -0.00000000000E+00  0.00000000000E+00  0.15973838190E+04  0.15973838190E+04  0.25500000000E-02 0.  1.
          2   -1    0    0  501    0  0.00000000000E+00 -0.00000000000E+00 -0.60457869564E+03  0.60457869565E+03  0.25500000000E-02 0. -1.
    8880022    1    1    2    0    0  0.47336962739E+03  0.75003302812E+03  0.93850911777E+03  0.13003151020E+04  0.15294330000E+03 0.  0.
    8880022    1    1    2    0    0 -0.47336962739E+03 -0.75003302812E+03  0.54296005547E+02  0.90164741259E+03  0.15294330000E+03 0.  0.
<mgrwt>
<rscale>  0 0.90001111E+03</rscale>
<asrwt>0</asrwt>
<pdfrwt beam="1">  1        2 0.93012108E-01 0.90001111E+03</pdfrwt>
<pdfrwt beam="2">  1       -2 0.24575136E+00 0.90001111E+03</pdfrwt>
<totfact> 0.33859383E+00</totfact>
</mgrwt>
</event>
<event>
 4    1  0.1033139E-008  0.2047782E+04  0.7818608E-02  0.8584601E-01
          2   -1    0    0  501    0  0.00000000000E+00  0.00000000000E+00  0.30992376373E+04  0.30992376373E+04  0.25500000000E-02 0. -1.
         -2   -1    0    0    0  501 -0.00000000000E+00 -0.00000000000E+00 -0.16645678570E+04  0.16645678570E+04  0.25500000000E-02 0.  1.
    8880022    1    1    2    0    0  0.17729306539E+04  0.10132791207E+04  0.17477635503E+04  0.26922271005E+04  0.15294330000E+03 0.  0.
    8880022    1    1    2    0    0 -0.17729306539E+04 -0.10132791207E+04 -0.31309376996E+03  0.20715783938E+04  0.15294330000E+03 0.  0.
<mgrwt>
<rscale>  0 0.20477816E+04</rscale>
<asrwt>0</asrwt>
<pdfrwt beam="1">  1        2 0.47680579E+00 0.20477816E+04</pdfrwt>
<pdfrwt beam="2">  1       -2 0.25608736E+00 0.20477816E+04</pdfrwt>
<totfact> 0.78453414E-02</totfact>
</mgrwt>
</event>
<event>
 4    1  0.1033139E-008  0.7570612E+03  0.7818608E-02  0.9624337E-01
          2   -1    0    0  501    0  0.00000000000E+00  0.00000000000E+00  0.18872236133E+04  0.18872236133E+04  0.25500000000E-02 0. -1.
         -2   -1    0    0    0  501 -0.00000000000E+00 -0.00000000000E+00 -0.53143417558E+03  0.53143417559E+03  0.25500000000E-02 0.  1.
    8880022    1    1    2    0    0 -0.65653203899E+01  0.74142224612E+03 -0.11376380231E+03  0.76556117078E+03  0.15294330000E+03 0.  0.
    8880022    1    1    2    0    0  0.65653203899E+01 -0.74142224612E+03  0.14695532400E+04  0.16530966181E+04  0.15294330000E+03 0.  0.
<mgrwt>
<rscale>  0 0.75706123E+03</rscale>
<asrwt>0</asrwt>
<pdfrwt beam="1">  1        2 0.29034209E+00 0.75706123E+03</pdfrwt>
<pdfrwt beam="2">  1       -2 0.81759104E-01 0.75706123E+03</pdfrwt>
<totfact> 0.10479394E+01</totfact>
</mgrwt>
</event>
<event>
 4    1  0.1033139E-008  0.5138424E+03  0.7818608E-02  0.1010228E+00
          2   -1    0    0  501    0  0.00000000000E+00  0.00000000000E+00  0.37198744353E+04  0.37198744353E+04  0.25500000000E-02 0. -1.
         -2   -1    0    0    0  501 -0.00000000000E+00 -0.00000000000E+00 -0.20149446444E+03  0.20149446446E+03  0.25500000000E-02 0.  1.
    8880022    1    1    2    0    0 -0.22886268675E+03 -0.43389431329E+03  0.33371886954E+04  0.33765163180E+04  0.15294330000E+03 0.  0.
    8880022    1    1    2    0    0  0.22886268675E+03  0.43389431329E+03  0.18119127551E+03  0.54485258174E+03  0.15294330000E+03 0.  0.
<mgrwt>
<rscale>  0 0.51384244E+03</rscale>
<asrwt>0</asrwt>
<pdfrwt beam="1">  1        2 0.57228836E+00 0.51384244E+03</pdfrwt>
<pdfrwt beam="2">  1       -2 0.30999149E-01 0.51384244E+03</pdfrwt>
<totfact> 0.63018569E+00</totfact>
</mgrwt>
</event>
<event>
 4    1  0.1033139E-008  0.7820329E+03  0.7818608E-02  0.9586394E-01
         -2   -1    0    0    0  501 -0.00000000000E+00  0.00000000000E+00  0.52709591812E+03  0.52709591813E+03  0.25500000000E-02 0.  1.
          2   -1    0    0  501    0  0.00000000000E+00 -0.00000000000E+00 -0.18277277430E+04  0.18277277430E+04  0.25500000000E-02 0. -1.
    8880022    1    1    2    0    0 -0.91680073305E+02 -0.76143195409E+03  0.61197908656E+02  0.78442379718E+03  0.15294330000E+03 0.  0.
    8880022    1    1    2    0    0  0.91680073305E+02  0.76143195409E+03 -0.13618297335E+04  0.15703998639E+04  0.15294330000E+03 0.  0.
<mgrwt>
<rscale>  0 0.78203293E+03</rscale>
<asrwt>0</asrwt>
<pdfrwt beam="1">  1        2 0.28118888E+00 0.78203293E+03</pdfrwt>
<pdfrwt beam="2">  1       -2 0.81091681E-01 0.78203293E+03</pdfrwt>
<totfact> 0.11462912E+01</totfact>
</mgrwt>
</event>
<event>
 4    1  0.1033139E-008  0.8041590E+03  0.7818608E-02  0.9554017E-01
          2   -1    0    0  501    0  0.00000000000E+00  0.00000000000E+00  0.87160497429E+03  0.87160497429E+03  0.25500000000E-02 0. -1.
         -2   -1    0    0    0  501 -0.00000000000E+00 -0.00000000000E+00 -0.91162748677E+03  0.91162748678E+03  0.25500000000E-02 0.  1.
    8880022    1    1    2    0    0 -0.49688003775E+03  0.61350656935E+03  0.36467284617E+03  0.88298245753E+03  0.15294330000E+03 0.  0.
    8880022    1    1    2    0    0  0.49688003775E+03 -0.61350656935E+03 -0.40469535865E+03  0.90025000354E+03  0.15294330000E+03 0.  0.
<mgrwt>
<rscale>  0 0.80415902E+03</rscale>
<asrwt>0</asrwt>
<pdfrwt beam="1">  1        2 0.13409307E+00 0.80415902E+03</pdfrwt>
<pdfrwt beam="2">  1       -2 0.14025038E+00 0.80415902E+03</pdfrwt>
<totfact> 0.11074476E+01</totfact>
</mgrwt>
</event>
<event>
 4    1  0.1033139E-008  0.6710466E+03  0.7818608E-02  0.9768069E-01
          2   -1    0    0  501    0  0.00000000000E+00  0.00000000000E+00  0.78190915883E+03  0.78190915883E+03  0.25500000000E-02 0. -1.
         -2   -1    0    0    0  501 -0.00000000000E+00 -0.00000000000E+00 -0.97222773910E+03  0.97222773910E+03  0.25500000000E-02 0.  1.
    8880022    1    1    2    0    0  0.15407325647E+03  0.63495928737E+03  0.46482429200E+03  0.81631191368E+03  0.15294330000E+03 0.  0.
    8880022    1    1    2    0    0 -0.15407325647E+03 -0.63495928737E+03 -0.65514287228E+03  0.93782498425E+03  0.15294330000E+03 0.  1.
<mgrwt>
<rscale>  0 0.67104658E+03</rscale>
<asrwt>0</asrwt>
<pdfrwt beam="1">  1        2 0.12029372E+00 0.67104658E+03</pdfrwt>
<pdfrwt beam="2">  1       -2 0.14957350E+00 0.67104658E+03</pdfrwt>
<totfact> 0.10991754E+01</totfact>
</mgrwt>
</event>
<event>
 4    1  0.1033139E-008  0.3819878E+03  0.7818608E-02  0.1050201E+00
          2   -1    0    0  501    0  0.00000000000E+00  0.00000000000E+00  0.54181279358E+03  0.54181279358E+03  0.25500000000E-02 0. -1.
         -2   -1    0    0    0  501 -0.00000000000E+00 -0.00000000000E+00 -0.43574407826E+03  0.43574407827E+03  0.25500000000E-02 0.  1.
    8880022    1    1    2    0    0 -0.16340714371E+03  0.30954991317E+03  0.35511270891E+03  0.52155510966E+03  0.15294330000E+03 0.  0.
    8880022    1    1    2    0    0  0.16340714371E+03 -0.30954991317E+03 -0.24904399359E+03  0.45600176219E+03  0.15294330000E+03 0.  0.
<mgrwt>
<rscale>  0 0.38198782E+03</rscale>
<asrwt>0</asrwt>
<pdfrwt beam="1">  1        2 0.83355814E-01 0.38198782E+03</pdfrwt>
<pdfrwt beam="2">  1       -2 0.67037551E-01 0.38198782E+03</pdfrwt>
<totfact> 0.11871409E+02</totfact>
</mgrwt>
</event>
<event>
 4    1  0.1033139E-008  0.1585739E+04  0.7818608E-02  0.8829358E-01
         -2   -1    0    0    0  501 -0.00000000000E+00  0.00000000000E+00  0.11708233015E+04  0.11708233015E+04  0.25500000000E-02 0.  1.
          2   -1    0    0  501    0  0.00000000000E+00 -0.00000000000E+00 -0.22627526739E+04  0.22627526739E+04  0.25500000000E-02 0. -1.
    8880022    1    1    2    0    0  0.91128310983E+03  0.12886964272E+04 -0.15882930515E+03  0.15936730496E+04  0.15294330000E+03 0.  0.
    8880022    1    1    2    0    0 -0.91128310983E+03 -0.12886964272E+04 -0.93310006730E+03  0.18399029258E+04  0.15294330000E+03 0.  0.
<mgrwt>
<rscale>  0 0.15857386E+04</rscale>
<asrwt>0</asrwt>
<pdfrwt beam="1">  1        2 0.34811579E+00 0.15857386E+04</pdfrwt>
<pdfrwt beam="2">  1       -2 0.18012666E+00 0.15857386E+04</pdfrwt>
<totfact> 0.80349675E-01</totfact>
</mgrwt>
</event>
<event>
 4    1  0.1033139E-008  0.9877246E+03  0.7818608E-02  0.9322112E-01
          2   -1    0    0  501    0  0.00000000000E+00  0.00000000000E+00  0.24727373246E+04  0.24727373246E+04  0.25500000000E-02 0. -1.
         -2   -1    0    0    0  501 -0.00000000000E+00 -0.00000000000E+00 -0.79525040911E+03  0.79525040912E+03  0.25500000000E-02 0.  1.
    8880022    1    1    2    0    0 -0.17376493869E+03  0.96021556612E+03 -0.32113493019E+03  0.10386180644E+04  0.15294330000E+03 0.  0.
    8880022    1    1    2    0    0  0.17376493869E+03 -0.96021556612E+03  0.19986218457E+04  0.22293696693E+04  0.15294330000E+03 0.  0.
<mgrwt>
<rscale>  0 0.98772458E+03</rscale>
<asrwt>0</asrwt>
<pdfrwt beam="1">  1        2 0.38042113E+00 0.98772458E+03</pdfrwt>
<pdfrwt beam="2">  1       -2 0.12234622E+00 0.98772458E+03</pdfrwt>
<totfact> 0.18417174E+00</totfact>
</mgrwt>
</event>
<event>
 4    1  0.1033139E-008  0.8153554E+03  0.7818608E-02  0.9538053E-01
          2   -1    0    0  501    0  0.00000000000E+00  0.00000000000E+00  0.18773242990E+04  0.18773242990E+04  0.25500000000E-02 0. -1.
         -2   -1    0    0    0  501 -0.00000000000E+00 -0.00000000000E+00 -0.55884745552E+03  0.55884745552E+03  0.25500000000E-02 0.  1.
    8880022    1    1    2    0    0 -0.46961982268E+02  0.79950444416E+03 -0.78013175522E+02  0.81907905149E+03  0.15294330000E+03 0.  0.
    8880022    1    1    2    0    0  0.46961982268E+02 -0.79950444416E+03  0.13964900190E+04  0.16170927030E+04  0.15294330000E+03 0.  0.
<mgrwt>
<rscale>  0 0.81535541E+03</rscale>
<asrwt>0</asrwt>
<pdfrwt beam="1">  1        2 0.28881913E+00 0.81535541E+03</pdfrwt>
<pdfrwt beam="2">  1       -2 0.85976531E-01 0.81535541E+03</pdfrwt>
<totfact> 0.93871567E+00</totfact>
</mgrwt>
</event>
<event>
 4    1  0.1033139E-008  0.8370610E+03  0.7818608E-02  0.9507870E-01
          2   -1    0    0  501    0  0.00000000000E+00  0.00000000000E+00  0.10758679074E+04  0.10758679074E+04  0.25500000000E-02 0. -1.
         -2   -1    0    0    0  501 -0.00000000000E+00 -0.00000000000E+00 -0.10466514289E+04  0.10466514289E+04  0.25500000000E-02 0.  1.
    8880022    1    1    2    0    0 -0.82286405886E+03 -0.13196644433E+02  0.66688750040E+03  0.10702382922E+04  0.15294330000E+03 0.  0.
    8880022    1    1    2    0    0  0.82286405886E+03  0.13196644433E+02 -0.63767102185E+03  0.10522810442E+04  0.15294330000E+03 0.  0.
<mgrwt>
<rscale>  0 0.83706097E+03</rscale>
<asrwt>0</asrwt>
<pdfrwt beam="1">  1        2 0.16551814E+00 0.83706097E+03</pdfrwt>
<pdfrwt beam="2">  1       -2 0.16102330E+00 0.83706097E+03</pdfrwt>
<totfact> 0.56329140E+00</totfact>
</mgrwt>
</event>
<event>
 4    1  0.1033139E-008  0.1208578E+04  0.7818608E-02  0.9105382E-01
          2   -1    0    0  501    0  0.00000000000E+00  0.00000000000E+00  0.27858124743E+04  0.27858124743E+04  0.25500000000E-02 0. -1.
         -2   -1    0    0    0  501 -0.00000000000E+00 -0.00000000000E+00 -0.67221044015E+03  0.67221044016E+03  0.25500000000E-02 0.  1.
    8880022    1    1    2    0    0  0.93991838785E+03  0.74419175855E+03  0.18677882685E+04  0.22247005682E+04  0.15294330000E+03 0.  0.
    8880022    1    1    2    0    0 -0.93991838785E+03 -0.74419175855E+03  0.24581376565E+03  0.12333223462E+04  0.15294330000E+03 0.  0.
<mgrwt>
<rscale>  0 0.12085775E+04</rscale>
<asrwt>0</asrwt>
<pdfrwt beam="1">  1        2 0.42858653E+00 0.12085775E+04</pdfrwt>
<pdfrwt beam="2">  1       -2 0.10341699E+00 0.12085775E+04</pdfrwt>
<totfact> 0.17722391E+00</totfact>
</mgrwt>
</event>
<event>
 4    1  0.1033139E-008  0.1296769E+04  0.7818608E-02  0.9032131E-01
         -2   -1    0    0    0  501 -0.00000000000E+00  0.00000000000E+00  0.22652846515E+04  0.22652846515E+04  0.25500000000E-02 0.  1.
          2   -1    0    0  501    0  0.00000000000E+00 -0.00000000000E+00 -0.12616160618E+04  0.12616160618E+04  0.25500000000E-02 0. -1.
    8880022    1    1    2    0    0  0.98145356360E+02  0.12839728863E+04 -0.62952082258E+03  0.14414947114E+04  0.15294330000E+03 0.  0.
    8880022    1    1    2    0    0 -0.98145356360E+02 -0.12839728863E+04  0.16331894122E+04  0.20854060019E+04  0.15294330000E+03 0.  0.
<mgrwt>
<rscale>  0 0.12967693E+04</rscale>
<asrwt>0</asrwt>
<pdfrwt beam="1">  1        2 0.19409478E+00 0.12967693E+04</pdfrwt>
<pdfrwt beam="2">  1       -2 0.34850533E+00 0.12967693E+04</pdfrwt>
<totfact> 0.26798069E-01</totfact>
</mgrwt>
</event>
<event>
 4    1  0.1033139E-008  0.5761342E+03  0.7818608E-02  0.9956196E-01
         -2   -1    0    0    0  501 -0.00000000000E+00  0.00000000000E+00  0.55302300212E+03  0.55302300212E+03  0.25500000000E-02 0.  1.
          2   -1    0    0  501    0  0.00000000000E+00 -0.00000000000E+00 -0.16656236464E+04  0.16656236464E+04  0.25500000000E-02 0. -1.
    8880022    1    1    2    0    0  0.32088054616E+03  0.45340344150E+03  0.33091404673E+03  0.66440557268E+03  0.15294330000E+03 0.  0.
    8880022    1    1    2    0    0 -0.32088054616E+03 -0.45340344150E+03 -0.14435146910E+04  0.15542410758E+04  0.15294330000E+03 0.  0.
<mgrwt>
<rscale>  0 0.57613424E+03</rscale>
<asrwt>0</asrwt>
<pdfrwt beam="1">  1        2 0.25624979E+00 0.57613424E+03</pdfrwt>
<pdfrwt beam="2">  1       -2 0.85080463E-01 0.57613424E+03</pdfrwt>
<totfact> 0.13012083E+01</totfact>
</mgrwt>
</event>
<event>
 4    1  0.1033139E-008  0.1527407E+04  0.7818608E-02  0.8866429E-01
         -2   -1    0    0    0  501 -0.00000000000E+00  0.00000000000E+00  0.11725387723E+04  0.11725387723E+04  0.25500000000E-02 0.  1.
          2   -1    0    0  501    0  0.00000000000E+00 -0.00000000000E+00 -0.35596285006E+04  0.35596285006E+04  0.25500000000E-02 0. -1.
    8880022    1    1    2    0    0  0.62166212328E+03  0.13867647747E+04 -0.27648880339E+04  0.31587304141E+04  0.15294330000E+03 0.  0.
    8880022    1    1    2    0    0 -0.62166212328E+03 -0.13867647747E+04  0.37779830564E+03  0.15734368588E+04  0.15294330000E+03 0.  0.
<mgrwt>
<rscale>  0 0.15274069E+04</rscale>
<asrwt>0</asrwt>
<pdfrwt beam="1">  1        2 0.54763515E+00 0.15274069E+04</pdfrwt>
<pdfrwt beam="2">  1       -2 0.18039058E+00 0.15274069E+04</pdfrwt>
<totfact> 0.12588967E-01</totfact>
</mgrwt>
</event>
<event>
 4    1  0.1033139E-008  0.4097474E+03  0.7818608E-02  0.1040456E+00
          2   -1    0    0  501    0  0.00000000000E+00  0.00000000000E+00  0.65889295061E+03  0.65889295061E+03  0.25500000000E-02 0. -1.
         -2   -1    0    0    0  501 -0.00000000000E+00 -0.00000000000E+00 -0.29260814635E+03  0.29260814636E+03  0.25500000000E-02 0.  1.
    8880022    1    1    2    0    0  0.14224434789E+03  0.35251636679E+03  0.12153471016E+02  0.40992755852E+03  0.15294330000E+03 0.  0.
    8880022    1    1    2    0    0 -0.14224434789E+03 -0.35251636679E+03  0.35413133324E+03  0.54157353846E+03  0.15294330000E+03 0.  0.
<mgrwt>
<rscale>  0 0.40974736E+03</rscale>
<asrwt>0</asrwt>
<pdfrwt beam="1">  1        2 0.10136815E+00 0.40974736E+03</pdfrwt>
<pdfrwt beam="2">  1       -2 0.45016638E-01 0.40974736E+03</pdfrwt>
<totfact> 0.21301388E+02</totfact>
</mgrwt>
</event>
<event>
 4    1  0.1033139E-008  0.8892475E+03  0.7818608E-02  0.9439123E-01
         -2   -1    0    0    0  501 -0.00000000000E+00  0.00000000000E+00  0.68958590194E+03  0.68958590194E+03  0.25500000000E-02 0.  1.
          2   -1    0    0  501    0  0.00000000000E+00 -0.00000000000E+00 -0.11678051312E+04  0.11678051312E+04  0.25500000000E-02 0. -1.
    8880022    1    1    2    0    0 -0.19734929180E+03  0.85347685602E+03 -0.11431715458E+03  0.89656541957E+03  0.15294330000E+03 0. -1.
    8880022    1    1    2    0    0  0.19734929180E+03 -0.85347685602E+03 -0.36390207468E+03  0.96082561357E+03  0.15294330000E+03 0.  0.
<mgrwt>
<rscale>  0 0.88924751E+03</rscale>
<asrwt>0</asrwt>
<pdfrwt beam="1">  1        2 0.17966233E+00 0.88924751E+03</pdfrwt>
<pdfrwt beam="2">  1       -2 0.10609014E+00 0.88924751E+03</pdfrwt>
<totfact> 0.14255395E+01</totfact>
</mgrwt>
</event>
<event>
 4    1  0.1033139E-008  0.6854888E+03  0.7818608E-02  0.9742375E-01
          2   -1    0    0  501    0  0.00000000000E+00  0.00000000000E+00  0.16630118195E+04  0.16630118196E+04  0.25500000000E-02 0. -1.
         -2   -1    0    0    0  501 -0.00000000000E+00 -0.00000000000E+00 -0.96676961037E+03  0.96676961037E+03  0.25500000000E-02 0.  1.
    8880022    1    1    2    0    0  0.32893862571E+02 -0.66739887994E+03 -0.75805388630E+03  0.10220276996E+04  0.15294330000E+03 0.  0.
    8880022    1    1    2    0    0 -0.32893862571E+02  0.66739887994E+03  0.14542960955E+04  0.16077537304E+04  0.15294330000E+03 0.  0.
<mgrwt>
<rscale>  0 0.68548882E+03</rscale>
<asrwt>0</asrwt>
<pdfrwt beam="1">  1        2 0.25584797E+00 0.68548882E+03</pdfrwt>
<pdfrwt beam="2">  1       -2 0.14873379E+00 0.68548882E+03</pdfrwt>
<totfact> 0.32818417E+00</totfact>
</mgrwt>
</event>
<event>
 4    1  0.1033139E-008  0.4629165E+03  0.7818608E-02  0.1023939E+00
         -2   -1    0    0    0  501 -0.00000000000E+00  0.00000000000E+00  0.41665374535E+03  0.41665374536E+03  0.25500000000E-02 0.  1.
          2   -1    0    0  501    0  0.00000000000E+00 -0.00000000000E+00 -0.16074187402E+04  0.16074187402E+04  0.25500000000E-02 0. -1.
    8880022    1    1    2    0    0 -0.42660610756E+03 -0.94378387876E+02 -0.14299510878E+04  0.15030142440E+04  0.15294330000E+03 0.  0.
    8880022    1    1    2    0    0  0.42660610756E+03  0.94378387876E+02  0.23918609290E+03  0.52105824162E+03  0.15294330000E+03 0.  0.
<mgrwt>
<rscale>  0 0.46291652E+03</rscale>
<asrwt>0</asrwt>
<pdfrwt beam="1">  1        2 0.24729519E+00 0.46291652E+03</pdfrwt>
<pdfrwt beam="2">  1       -2 0.64100577E-01 0.46291652E+03</pdfrwt>
<totfact> 0.26633201E+01</totfact>
</mgrwt>
</event>
<event>
 4    1  0.1033139E-008  0.5626663E+03  0.7818608E-02  0.9986040E-01
         -2   -1    0    0    0  501 -0.00000000000E+00  0.00000000000E+00  0.15976801869E+04  0.15976801869E+04  0.25500000000E-02 0.  1.
          2   -1    0    0  501    0  0.00000000000E+00 -0.00000000000E+00 -0.22489314468E+04  0.22489314468E+04  0.25500000000E-02 0. -1.
    8880022    1    1    2    0    0  0.54141643110E+03  0.83625123234E+01 -0.21622445939E+04  0.22342549139E+04  0.15294330000E+03 0.  0.
    8880022    1    1    2    0    0 -0.54141643110E+03 -0.83625123234E+01  0.15109933339E+04  0.16123567198E+04  0.15294330000E+03 0.  0.
<mgrwt>
<rscale>  0 0.56266627E+03</rscale>
<asrwt>0</asrwt>
<pdfrwt beam="1">  1        2 0.34598945E+00 0.56266627E+03</pdfrwt>
<pdfrwt beam="2">  1       -2 0.24579695E+00 0.56266627E+03</pdfrwt>
<totfact> 0.36923207E-01</totfact>
</mgrwt>
</event>
<event>
 4    1  0.1033139E-008  0.7313870E+03  0.7818608E-02  0.9665012E-01
         -2   -1    0    0    0  501 -0.00000000000E+00  0.00000000000E+00  0.65151964323E+03  0.65151964324E+03  0.25500000000E-02 0.  1.
          2   -1    0    0  501    0  0.00000000000E+00 -0.00000000000E+00 -0.23405268018E+04  0.23405268018E+04  0.25500000000E-02 0. -1.
    8880022    1    1    2    0    0 -0.67563482787E+03 -0.23463355052E+03  0.36089110083E+03  0.81557915823E+03  0.15294330000E+03 0.  0.
    8880022    1    1    2    0    0  0.67563482787E+03  0.23463355052E+03 -0.20498982593E+04  0.21764672868E+04  0.15294330000E+03 0.  0.
<mgrwt>
<rscale>  0 0.73138702E+03</rscale>
<asrwt>0</asrwt>
<pdfrwt beam="1">  1        2 0.36008104E+00 0.73138702E+03</pdfrwt>
<pdfrwt beam="2">  1       -2 0.10023379E+00 0.73138702E+03</pdfrwt>
<totfact> 0.37045259E+00</totfact>
</mgrwt>
</event>
<event>
 4    1  0.1033139E-008  0.7197862E+03  0.7818608E-02  0.9683981E-01
         -2   -1    0    0    0  501 -0.00000000000E+00  0.00000000000E+00  0.36036868027E+03  0.36036868028E+03  0.25500000000E-02 0.  1.
          2   -1    0    0  501    0  0.00000000000E+00 -0.00000000000E+00 -0.15295760370E+04  0.15295760370E+04  0.25500000000E-02 0. -1.
    8880022    1    1    2    0    0  0.68751610005E+03  0.14839879525E+03 -0.81623592273E+03  0.10882707957E+04  0.15294330000E+03 0. -1.
    8880022    1    1    2    0    0 -0.68751610005E+03 -0.14839879525E+03 -0.35297143400E+03  0.80167392155E+03  0.15294330000E+03 0.  0.
<mgrwt>
<rscale>  0 0.71978625E+03</rscale>
<asrwt>0</asrwt>
<pdfrwt beam="1">  1        2 0.23531939E+00 0.71978625E+03</pdfrwt>
<pdfrwt beam="2">  1       -2 0.55441336E-01 0.71978625E+03</pdfrwt>
<totfact> 0.38342779E+01</totfact>
</mgrwt>
</event>
<event>
 4    1  0.1033139E-008  0.8889213E+03  0.7818608E-02  0.9439537E-01
          2   -1    0    0  501    0  0.00000000000E+00  0.00000000000E+00  0.10662812548E+04  0.10662812548E+04  0.25500000000E-02 0. -1.
         -2   -1    0    0    0  501 -0.00000000000E+00 -0.00000000000E+00 -0.87957391662E+03  0.87957391662E+03  0.25500000000E-02 0.  1.
    8880022    1    1    2    0    0  0.72271206011E+03  0.49444578715E+03  0.47944245911E+03  0.10099733080E+04  0.15294330000E+03 0.  0.
    8880022    1    1    2    0    0 -0.72271206011E+03 -0.49444578715E+03 -0.29273512093E+03  0.93588186343E+03  0.15294330000E+03 0.  0.
<mgrwt>
<rscale>  0 0.88892126E+03</rscale>
<asrwt>0</asrwt>
<pdfrwt beam="1">  1        2 0.16404327E+00 0.88892126E+03</pdfrwt>
<pdfrwt beam="2">  1       -2 0.13531906E+00 0.88892126E+03</pdfrwt>
<totfact> 0.89884927E+00</totfact>
</mgrwt>
</event>
<event>
 4    1  0.1033139E-008  0.3302013E+03  0.7818608E-02  0.1071048E+00
          2   -1    0    0  501    0  0.00000000000E+00  0.00000000000E+00  0.26007374893E+04  0.26007374893E+04  0.25500000000E-02 0. -1.
         -2   -1    0    0    0  501 -0.00000000000E+00 -0.00000000000E+00 -0.19389894416E+03  0.19389894417E+03  0.25500000000E-02 0.  1.
    8880022    1    1    2    0    0 -0.25889975175E+03 -0.13642641228E+03  0.24404879900E+04  0.24627250212E+04  0.15294330000E+03 0. -1.
    8880022    1    1    2    0    0  0.25889975175E+03  0.13642641228E+03 -0.33649444931E+02  0.33191141226E+03  0.15294330000E+03 0.  0.
<mgrwt>
<rscale>  0 0.33020130E+03</rscale>
<asrwt>0</asrwt>
<pdfrwt beam="1">  1        2 0.40011344E+00 0.33020130E+03</pdfrwt>
<pdfrwt beam="2">  1       -2 0.29830609E-01 0.33020130E+03</pdfrwt>
<totfact> 0.36049584E+01</totfact>
</mgrwt>
</event>
<event>
 4    1  0.1033139E-008  0.3300552E+03  0.7818608E-02  0.1071112E+00
          2   -1    0    0  501    0  0.00000000000E+00  0.00000000000E+00  0.31242515346E+04  0.31242515346E+04  0.25500000000E-02 0. -1.
         -2   -1    0    0    0  501 -0.00000000000E+00 -0.00000000000E+00 -0.53573299240E+02  0.53573299300E+02  0.25500000000E-02 0.  1.
    8880022    1    1    2    0    0 -0.28230258613E+03 -0.76485495220E+02  0.24742145512E+04  0.24961318233E+04  0.15294330000E+03 0.  0.
    8880022    1    1    2    0    0  0.28230258613E+03  0.76485495220E+02  0.59646368419E+03  0.68169301059E+03  0.15294330000E+03 0.  0.
<mgrwt>
<rscale>  0 0.33005520E+03</rscale>
<asrwt>0</asrwt>
<pdfrwt beam="1">  1        2 0.48065398E+00 0.33005520E+03</pdfrwt>
<pdfrwt beam="2">  1       -2 0.82420478E-02 0.33005520E+03</pdfrwt>
<totfact> 0.15569823E+02</totfact>
</mgrwt>
</event>
<event>
 4    1  0.1033139E-008  0.1526527E+04  0.7818608E-02  0.8867002E-01
         -2   -1    0    0    0  501 -0.00000000000E+00  0.00000000000E+00  0.11553732207E+04  0.11553732207E+04  0.25500000000E-02 0.  1.
          2   -1    0    0  501    0  0.00000000000E+00 -0.00000000000E+00 -0.22815724590E+04  0.22815724590E+04  0.25500000000E-02 0. -1.
    8880022    1    1    2    0    0  0.31420224872E+03 -0.14859917433E+04 -0.11483881745E+04  0.19102569373E+04  0.15294330000E+03 0.  0.
    8880022    1    1    2    0    0 -0.31420224872E+03  0.14859917433E+04  0.22188936269E+02  0.15266887424E+04  0.15294330000E+03 0.  0.
<mgrwt>
<rscale>  0 0.15265275E+04</rscale>
<asrwt>0</asrwt>
<pdfrwt beam="1">  1        2 0.35101115E+00 0.15265275E+04</pdfrwt>
<pdfrwt beam="2">  1       -2 0.17774973E+00 0.15265275E+04</pdfrwt>
<totfact> 0.81926076E-01</totfact>
</mgrwt>
</event>
<event>
 4    1  0.1033139E-008  0.4772385E+03  0.7818608E-02  0.1019897E+00
          2   -1    0    0  501    0  0.00000000000E+00  0.00000000000E+00  0.17116318368E+04  0.17116318368E+04  0.25500000000E-02 0. -1.
         -2   -1    0    0    0  501 -0.00000000000E+00 -0.00000000000E+00 -0.17865644435E+03  0.17865644437E+03  0.25500000000E-02 0.  1.
    8880022    1    1    2    0    0 -0.25580535526E+03 -0.37273117489E+03  0.12439457125E+04  0.13323503657E+04  0.15294330000E+03 0. -1.
    8880022    1    1    2    0    0  0.25580535526E+03  0.37273117489E+03  0.28902967994E+03  0.55793791538E+03  0.15294330000E+03 0.  0.
<mgrwt>
<rscale>  0 0.47723847E+03</rscale>
<asrwt>0</asrwt>
<pdfrwt beam="1">  1        2 0.26332797E+00 0.47723847E+03</pdfrwt>
<pdfrwt beam="2">  1       -2 0.27485607E-01 0.47723847E+03</pdfrwt>
<totfact> 0.12265770E+02</totfact>
</mgrwt>
</event>
<event>
 4    1  0.1033139E-008  0.1758462E+04  0.7818608E-02  0.8728706E-01
         -2   -1    0    0    0  501 -0.00000000000E+00  0.00000000000E+00  0.85792025219E+03  0.85792025220E+03  0.25500000000E-02 0.  1.
          2   -1    0    0  501    0  0.00000000000E+00 -0.00000000000E+00 -0.45228391181E+04  0.45228391181E+04  0.25500000000E-02 0. -1.
    8880022    1    1    2    0    0  0.17389860659E+04 -0.21148533163E+03 -0.30448989010E+04  0.35161910575E+04  0.15294330000E+03 0.  0.
    8880022    1    1    2    0    0 -0.17389860659E+04  0.21148533163E+03 -0.62001996493E+03  0.18645683127E+04  0.15294330000E+03 0.  1.
<mgrwt>
<rscale>  0 0.17584625E+04</rscale>
<asrwt>0</asrwt>
<pdfrwt beam="1">  1        2 0.69582139E+00 0.17584625E+04</pdfrwt>
<pdfrwt beam="2">  1       -2 0.13198773E+00 0.17584625E+04</pdfrwt>
<totfact> 0.45915282E-02</totfact>
</mgrwt>
</event>
<event>
 4    1  0.1033139E-008  0.3907697E+03  0.7818608E-02  0.1047023E+00
         -2   -1    0    0    0  501 -0.00000000000E+00  0.00000000000E+00  0.28457220270E+03  0.28457220271E+03  0.25500000000E-02 0.  1.
          2   -1    0    0  501    0  0.00000000000E+00 -0.00000000000E+00 -0.15697590109E+04  0.15697590109E+04  0.25500000000E-02 0. -1.
    8880022    1    1    2    0    0  0.28012585345E+03 -0.22547465761E+03 -0.13947785559E+04  0.14484847904E+04  0.15294330000E+03 0.  0.
    8880022    1    1    2    0    0 -0.28012585345E+03  0.22547465761E+03  0.10959174777E+03  0.40584642316E+03  0.15294330000E+03 0.  0.
<mgrwt>
<rscale>  0 0.39076971E+03</rscale>
<asrwt>0</asrwt>
<pdfrwt beam="1">  1        2 0.24150138E+00 0.39076971E+03</pdfrwt>
<pdfrwt beam="2">  1       -2 0.43780340E-01 0.39076971E+03</pdfrwt>
<totfact> 0.61694358E+01</totfact>
</mgrwt>
</event>
<event>
 4    1  0.1033139E-008  0.6167101E+03  0.7818608E-02  0.9871332E-01
         -2   -1    0    0    0  501 -0.00000000000E+00  0.00000000000E+00  0.65667405594E+03  0.65667405594E+03  0.25500000000E-02 0.  1.
          2   -1    0    0  501    0  0.00000000000E+00 -0.00000000000E+00 -0.94056926317E+03  0.94056926317E+03  0.25500000000E-02 0. -1.
    8880022    1    1    2    0    0  0.59664372704E+03  0.30918478183E+02  0.35308563120E+03  0.71063408678E+03  0.15294330000E+03 0.  0.
    8880022    1    1    2    0    0 -0.59664372704E+03 -0.30918478183E+02 -0.63698083844E+03  0.88660923233E+03  0.15294330000E+03 0.  0.
<mgrwt>
<rscale>  0 0.61671010E+03</rscale>
<asrwt>0</asrwt>
<pdfrwt beam="1">  1        2 0.14470296E+00 0.61671010E+03</pdfrwt>
<pdfrwt beam="2">  1       -2 0.10102678E+00 0.61671010E+03</pdfrwt>
<totfact> 0.22887813E+01</totfact>
</mgrwt>
</event>
<event>
 4    1  0.1033139E-008  0.1146772E+04  0.7818608E-02  0.9160767E-01
          2   -1    0    0  501    0  0.00000000000E+00  0.00000000000E+00  0.17311689027E+04  0.17311689027E+04  0.25500000000E-02 0. -1.
         -2   -1    0    0    0  501 -0.00000000000E+00 -0.00000000000E+00 -0.10088750452E+04  0.10088750452E+04  0.25500000000E-02 0.  1.
    8880022    1    1    2    0    0  0.10827656180E+04  0.34541758827E+03 -0.31978347661E+03  0.11905241781E+04  0.15294330000E+03 0.  0.
    8880022    1    1    2    0    0 -0.10827656180E+04 -0.34541758827E+03  0.10420773340E+04  0.15495197698E+04  0.15294330000E+03 0.  0.
<mgrwt>
<rscale>  0 0.11467721E+04</rscale>
<asrwt>0</asrwt>
<pdfrwt beam="1">  1        2 0.26633368E+00 0.11467721E+04</pdfrwt>
<pdfrwt beam="2">  1       -2 0.15521154E+00 0.11467721E+04</pdfrwt>
<totfact> 0.25192005E+00</totfact>
</mgrwt>
</event>
<event>
 4    1  0.1033139E-008  0.6261863E+03  0.7818608E-02  0.9852519E-01
          2   -1    0    0  501    0  0.00000000000E+00  0.00000000000E+00  0.13400455861E+04  0.13400455861E+04  0.25500000000E-02 0. -1.
         -2   -1    0    0    0  501 -0.00000000000E+00 -0.00000000000E+00 -0.58878629576E+03  0.58878629577E+03  0.25500000000E-02 0.  1.
    8880022    1    1    2    0    0 -0.27909517924E+00  0.60722115816E+03  0.10596381289E+04  0.12308298948E+04  0.15294330000E+03 0.  0.
    8880022    1    1    2    0    0  0.27909517924E+00 -0.60722115816E+03 -0.30837883855E+03  0.69800198703E+03  0.15294330000E+03 0.  0.
<mgrwt>
<rscale>  0 0.62618629E+03</rscale>
<asrwt>0</asrwt>
<pdfrwt beam="1">  1        2 0.20616086E+00 0.62618629E+03</pdfrwt>
<pdfrwt beam="2">  1       -2 0.90582507E-01 0.62618629E+03</pdfrwt>
<totfact> 0.16937261E+01</totfact>
</mgrwt>
</event>
<event>
 4    1  0.1033139E-008  0.6759313E+03  0.7818608E-02  0.9759302E-01
         -2   -1    0    0    0  501 -0.00000000000E+00  0.00000000000E+00  0.99505868162E+03  0.99505868162E+03  0.25500000000E-02 0.  1.
          2   -1    0    0  501    0  0.00000000000E+00 -0.00000000000E+00 -0.24009237784E+04  0.24009237784E+04  0.25500000000E-02 0. -1.
    8880022    1    1    2    0    0 -0.32444229708E+03  0.57291240543E+03 -0.22299547814E+04  0.23301462204E+04  0.15294330000E+03 0.  0.
    8880022    1    1    2    0    0  0.32444229708E+03 -0.57291240543E+03  0.82408968459E+03  0.10658362396E+04  0.15294330000E+03 0.  0.
<mgrwt>
<rscale>  0 0.67593127E+03</rscale>
<asrwt>0</asrwt>
<pdfrwt beam="1">  1        2 0.36937289E+00 0.67593127E+03</pdfrwt>
<pdfrwt beam="2">  1       -2 0.15308595E+00 0.67593127E+03</pdfrwt>
<totfact> 0.12021326E+00</totfact>
</mgrwt>
</event>
<event>
 4    1  0.1033139E-008  0.1411197E+04  0.7818608E-02  0.8945753E-01
          2   -1    0    0  501    0  0.00000000000E+00  0.00000000000E+00  0.13671949471E+04  0.13671949471E+04  0.25500000000E-02 0. -1.
         -2   -1    0    0    0  501 -0.00000000000E+00 -0.00000000000E+00 -0.18358588198E+04  0.18358588198E+04  0.25500000000E-02 0.  1.
    8880022    1    1    2    0    0 -0.11716073012E+04  0.77163600690E+03  0.49357108536E+03  0.14950216937E+04  0.15294330000E+03 0.  0.
    8880022    1    1    2    0    0  0.11716073012E+04 -0.77163600690E+03 -0.96223495811E+03  0.17080320732E+04  0.15294330000E+03 0.  0.
<mgrwt>
<rscale>  0 0.14111972E+04</rscale>
<asrwt>0</asrwt>
<pdfrwt beam="1">  1        2 0.21033768E+00 0.14111972E+04</pdfrwt>
<pdfrwt beam="2">  1       -2 0.28243982E+00 0.14111972E+04</pdfrwt>
<totfact> 0.58468476E-01</totfact>
</mgrwt>
</event>
<event>
 4    1  0.1033139E-008  0.5410368E+03  0.7818608E-02  0.1003590E+00
          2   -1    0    0  501    0  0.00000000000E+00  0.00000000000E+00  0.30799788067E+03  0.30799788068E+03  0.25500000000E-02 0. -1.
         -2   -1    0    0    0  501 -0.00000000000E+00 -0.00000000000E+00 -0.96842032720E+03  0.96842032721E+03  0.25500000000E-02 0.  1.
    8880022    1    1    2    0    0  0.40973893421E+03 -0.31850152993E+03 -0.41727242700E+03  0.68325482079E+03  0.15294330000E+03 0.  0.
    8880022    1    1    2    0    0 -0.40973893421E+03  0.31850152993E+03 -0.24315001954E+03  0.59316338710E+03  0.15294330000E+03 0.  0.
<mgrwt>
<rscale>  0 0.54103685E+03</rscale>
<asrwt>0</asrwt>
<pdfrwt beam="1">  1        2 0.47384290E-01 0.54103685E+03</pdfrwt>
<pdfrwt beam="2">  1       -2 0.14898774E+00 0.54103685E+03</pdfrwt>
<totfact> 0.33459746E+01</totfact>
</mgrwt>
</event>
<event>
 4    1  0.1033139E-008  0.1065958E+04  0.7818608E-02  0.9239022E-01
         -2   -1    0    0    0  501 -0.00000000000E+00  0.00000000000E+00  0.44510519166E+03  0.44510519167E+03  0.25500000000E-02 0.  1.
          2   -1    0    0  501    0  0.00000000000E+00 -0.00000000000E+00 -0.27311607025E+04  0.27311607025E+04  0.25500000000E-02 0. -1.
    8880022    1    1    2    0    0  0.10327896119E+04 -0.21498811636E+03 -0.15488716406E+04  0.18802311785E+04  0.15294330000E+03 0.  0.
    8880022    1    1    2    0    0 -0.10327896119E+04  0.21498811636E+03 -0.73718387025E+03  0.12960347157E+04  0.15294330000E+03 0.  0.
<mgrwt>
<rscale>  0 0.10659578E+04</rscale>
<asrwt>0</asrwt>
<pdfrwt beam="1">  1        2 0.42017856E+00 0.10659578E+04</pdfrwt>
<pdfrwt beam="2">  1       -2 0.68477724E-01 0.10659578E+04</pdfrwt>
<totfact> 0.49966227E+00</totfact>
</mgrwt>
</event>
<event>
 4    1  0.1033139E-008  0.8403366E+03  0.7818608E-02  0.9503399E-01
         -2   -1    0    0    0  501 -0.00000000000E+00  0.00000000000E+00  0.10055514862E+04  0.10055514862E+04  0.25500000000E-02 0.  1.
          2   -1    0    0  501    0  0.00000000000E+00 -0.00000000000E+00 -0.20897554431E+04  0.20897554431E+04  0.25500000000E-02 0. -1.
    8880022    1    1    2    0    0 -0.43527364580E+03 -0.70236092071E+03  0.71897231587E+03  0.11059325719E+04  0.15294330000E+03 0.  0.
    8880022    1    1    2    0    0  0.43527364580E+03  0.70236092071E+03 -0.18031762728E+04  0.19893743573E+04  0.15294330000E+03 0.  0.
<mgrwt>
<rscale>  0 0.84033664E+03</rscale>
<asrwt>0</asrwt>
<pdfrwt beam="1">  1        2 0.32150084E+00 0.84033664E+03</pdfrwt>
<pdfrwt beam="2">  1       -2 0.15470023E+00 0.84033664E+03</pdfrwt>
<totfact> 0.16821909E+00</totfact>
</mgrwt>
</event>
<event>
 4    1  0.1033139E-008  0.9983325E+03  0.7818608E-02  0.9310376E-01
          2   -1    0    0  501    0  0.00000000000E+00  0.00000000000E+00  0.15951466584E+04  0.15951466584E+04  0.25500000000E-02 0. -1.
         -2   -1    0    0    0  501 -0.00000000000E+00 -0.00000000000E+00 -0.10113422317E+04  0.10113422317E+04  0.25500000000E-02 0.  1.
    8880022    1    1    2    0    0  0.79294279709E+03 -0.58695650220E+03 -0.51378813153E+03  0.11227849803E+04  0.15294330000E+03 0.  0.
    8880022    1    1    2    0    0 -0.79294279709E+03  0.58695650220E+03  0.10975925582E+04  0.14837039098E+04  0.15294330000E+03 0.  0.
<mgrwt>
<rscale>  0 0.99833254E+03</rscale>
<asrwt>0</asrwt>
<pdfrwt beam="1">  1        2 0.24540718E+00 0.99833254E+03</pdfrwt>
<pdfrwt beam="2">  1       -2 0.15559111E+00 0.99833254E+03</pdfrwt>
<totfact> 0.30294697E+00</totfact>
</mgrwt>
</event>
<event>
 4    1  0.1033139E-008  0.1328286E+04  0.7818608E-02  0.9007430E-01
          2   -1    0    0  501    0  0.00000000000E+00  0.00000000000E+00  0.29867123514E+04  0.29867123514E+04  0.25500000000E-02 0. -1.
         -2   -1    0    0    0  501 -0.00000000000E+00 -0.00000000000E+00 -0.85473671962E+03  0.85473671962E+03  0.25500000000E-02 0.  1.
    8880022    1    1    2    0    0 -0.41951842445E+03 -0.12509823713E+04  0.21334570913E+04  0.25131620352E+04  0.15294330000E+03 0.  0.
    8880022    1    1    2    0    0  0.41951842445E+03  0.12509823713E+04 -0.14814596077E+01  0.13282870358E+04  0.15294330000E+03 0.  0.
<mgrwt>
<rscale>  0 0.13282862E+04</rscale>
<asrwt>0</asrwt>
<pdfrwt beam="1">  1        2 0.45949422E+00 0.13282862E+04</pdfrwt>
<pdfrwt beam="2">  1       -2 0.13149795E+00 0.13282862E+04</pdfrwt>
<totfact> 0.72615757E-01</totfact>
</mgrwt>
</event>
<event>
 4    1  0.1033139E-008  0.7326518E+03  0.7818608E-02  0.9662967E-01
          2   -1    0    0  501    0  0.00000000000E+00  0.00000000000E+00  0.11913770770E+04  0.11913770770E+04  0.25500000000E-02 0. -1.
         -2   -1    0    0    0  501 -0.00000000000E+00 -0.00000000000E+00 -0.23395290984E+04  0.23395290984E+04  0.25500000000E-02 0.  1.
    8880022    1    1    2    0    0  0.61405154490E+02 -0.71387418640E+03 -0.21604485355E+04  0.22812971036E+04  0.15294330000E+03 0.  0.
    8880022    1    1    2    0    0 -0.61405154490E+02  0.71387418640E+03  0.10122965141E+04  0.12496090719E+04  0.15294330000E+03 0.  0.
<mgrwt>
<rscale>  0 0.73265176E+03</rscale>
<asrwt>0</asrwt>
<pdfrwt beam="1">  1        2 0.18328878E+00 0.73265176E+03</pdfrwt>
<pdfrwt beam="2">  1       -2 0.35992755E+00 0.73265176E+03</pdfrwt>
<totfact> 0.27568835E-01</totfact>
</mgrwt>
</event>
<event>
 4    1  0.1033139E-008  0.6848694E+03  0.7818608E-02  0.9743463E-01
          2   -1    0    0  501    0  0.00000000000E+00  0.00000000000E+00  0.13630172393E+04  0.13630172394E+04  0.25500000000E-02 0. -1.
         -2   -1    0    0    0  501 -0.00000000000E+00 -0.00000000000E+00 -0.50648042625E+03  0.50648042626E+03  0.25500000000E-02 0.  1.
    8880022    1    1    2    0    0  0.45034528180E+03 -0.49279158411E+03 -0.10096737245E+03  0.69227197078E+03  0.15294330000E+03 0.  0.
    8880022    1    1    2    0    0 -0.45034528180E+03  0.49279158411E+03  0.95750418555E+03  0.11772256948E+04  0.15294330000E+03 0. -1.
<mgrwt>
<rscale>  0 0.68486938E+03</rscale>
<asrwt>0</asrwt>
<pdfrwt beam="1">  1        2 0.20969496E+00 0.68486938E+03</pdfrwt>
<pdfrwt beam="2">  1       -2 0.77920066E-01 0.68486938E+03</pdfrwt>
<totfact> 0.22943765E+01</totfact>
</mgrwt>
</event>
<event>
 4    1  0.1033139E-008  0.3016212E+03  0.7818608E-02  0.1084433E+00
         -2   -1    0    0    0  501 -0.00000000000E+00  0.00000000000E+00  0.39181451532E+03  0.39181451533E+03  0.25500000000E-02 0.  1.
          2   -1    0    0  501    0  0.00000000000E+00 -0.00000000000E+00 -0.13627455903E+04  0.13627455903E+04  0.25500000000E-02 0. -1.
    8880022    1    1    2    0    0 -0.18086872656E+03  0.18673558521E+03 -0.12845208886E+04  0.13194579346E+04  0.15294330000E+03 0.  0.
    8880022    1    1    2    0    0  0.18086872656E+03 -0.18673558521E+03  0.31358981358E+03  0.43510217102E+03  0.15294330000E+03 0.  1.
<mgrwt>
<rscale>  0 0.30162117E+03</rscale>
<asrwt>0</asrwt>
<pdfrwt beam="1">  1        2 0.20965317E+00 0.30162117E+03</pdfrwt>
<pdfrwt beam="2">  1       -2 0.60279157E-01 0.30162117E+03</pdfrwt>
<totfact> 0.42745900E+01</totfact>
</mgrwt>
</event>
<event>
 4    1  0.1033139E-008  0.1452447E+04  0.7818608E-02  0.8916706E-01
          2   -1    0    0  501    0  0.00000000000E+00  0.00000000000E+00  0.35042143762E+04  0.35042143762E+04  0.25500000000E-02 0. -1.
         -2   -1    0    0    0  501 -0.00000000000E+00 -0.00000000000E+00 -0.77969193586E+03  0.77969193586E+03  0.25500000000E-02 0.  1.
    8880022    1    1    2    0    0  0.13860382463E+04 -0.40633462097E+03  0.33976942409E+03  0.14916583922E+04  0.15294330000E+03 0.  0.
    8880022    1    1    2    0    0 -0.13860382463E+04  0.40633462097E+03  0.23847530162E+04  0.27922479198E+04  0.15294330000E+03 0.  0.
<mgrwt>
<rscale>  0 0.14524467E+04</rscale>
<asrwt>0</asrwt>
<pdfrwt beam="1">  1        2 0.53910990E+00 0.14524467E+04</pdfrwt>
<pdfrwt beam="2">  1       -2 0.11995261E+00 0.14524467E+04</pdfrwt>
<totfact> 0.41362927E-01</totfact>
</mgrwt>
</event>
<event>
 4    1  0.1033139E-008  0.6819537E+03  0.7818608E-02  0.9748601E-01
          2   -1    0    0  501    0  0.00000000000E+00  0.00000000000E+00  0.28585517496E+04  0.28585517496E+04  0.25500000000E-02 0. -1.
         -2   -1    0    0    0  501 -0.00000000000E+00 -0.00000000000E+00 -0.24453083452E+03  0.24453083453E+03  0.25500000000E-02 0.  1.
    8880022    1    1    2    0    0 -0.66422032815E+03 -0.21922697632E+02  0.22046017974E+04  0.23076676509E+04  0.15294330000E+03 0.  0.
    8880022    1    1    2    0    0  0.66422032815E+03  0.21922697632E+02  0.40941911763E+03  0.79541493316E+03  0.15294330000E+03 0.  0.
<mgrwt>
<rscale>  0 0.68195374E+03</rscale>
<asrwt>0</asrwt>
<pdfrwt beam="1">  1        2 0.43977720E+00 0.68195374E+03</pdfrwt>
<pdfrwt beam="2">  1       -2 0.37620128E-01 0.68195374E+03</pdfrwt>
<totfact> 0.15187566E+01</totfact>
</mgrwt>
</event>
<event>
 4    1  0.1033139E-008  0.1118757E+04  0.7818608E-02  0.9187100E-01
          2   -1    0    0  501    0  0.00000000000E+00  0.00000000000E+00  0.33144006243E+04  0.33144006243E+04  0.25500000000E-02 0. -1.
         -2   -1    0    0    0  501 -0.00000000000E+00 -0.00000000000E+00 -0.64189786155E+03  0.64189786156E+03  0.25500000000E-02 0.  1.
    8880022    1    1    2    0    0  0.39779192211E+03  0.10344019003E+04  0.66998368400E+02  0.11207614104E+04  0.15294330000E+03 0.  0.
    8880022    1    1    2    0    0 -0.39779192211E+03 -0.10344019003E+04  0.26055043944E+04  0.28355370755E+04  0.15294330000E+03 0.  0.
<mgrwt>
<rscale>  0 0.11187571E+04</rscale>
<asrwt>0</asrwt>
<pdfrwt beam="1">  1        2 0.50990779E+00 0.11187571E+04</pdfrwt>
<pdfrwt beam="2">  1       -2 0.98753516E-01 0.11187571E+04</pdfrwt>
<totfact> 0.93492104E-01</totfact>
</mgrwt>
</event>
<event>
 4    1  0.1033139E-008  0.4921400E+03  0.7818608E-02  0.1015851E+00
         -2   -1    0    0    0  501 -0.00000000000E+00  0.00000000000E+00  0.46784747768E+03  0.46784747769E+03  0.25500000000E-02 0.  1.
          2   -1    0    0  501    0  0.00000000000E+00 -0.00000000000E+00 -0.11479517636E+04  0.11479517636E+04  0.25500000000E-02 0. -1.
    8880022    1    1    2    0    0  0.42222265533E+03  0.20134098505E+03 -0.93867693388E+03  0.10598661246E+04  0.15294330000E+03 0.  0.
    8880022    1    1    2    0    0 -0.42222265533E+03 -0.20134098505E+03  0.25857264795E+03  0.55593311668E+03  0.15294330000E+03 0.  0.
<mgrwt>
<rscale>  0 0.49214004E+03</rscale>
<asrwt>0</asrwt>
<pdfrwt beam="1">  1        2 0.17660796E+00 0.49214004E+03</pdfrwt>
<pdfrwt beam="2">  1       -2 0.71976536E-01 0.49214004E+03</pdfrwt>
<totfact> 0.37385565E+01</totfact>
</mgrwt>
</event>
<event>
 4    1  0.1033139E-008  0.1110205E+04  0.7818608E-02  0.9195302E-01
         -2   -1    0    0    0  501 -0.00000000000E+00  0.00000000000E+00  0.60626188212E+03  0.60626188213E+03  0.25500000000E-02 0.  1.
          2   -1    0    0  501    0  0.00000000000E+00 -0.00000000000E+00 -0.32118531837E+04  0.32118531837E+04  0.25500000000E-02 0. -1.
    8880022    1    1    2    0    0  0.97375797591E+03 -0.51084082445E+03 -0.14624759003E+03  0.11197959431E+04  0.15294330000E+03 0.  0.
    8880022    1    1    2    0    0 -0.97375797591E+03  0.51084082445E+03 -0.24593437116E+04  0.26983191227E+04  0.15294330000E+03 0.  0.
<mgrwt>
<rscale>  0 0.11102048E+04</rscale>
<asrwt>0</asrwt>
<pdfrwt beam="1">  1        2 0.49413125E+00 0.11102048E+04</pdfrwt>
<pdfrwt beam="2">  1       -2 0.93271061E-01 0.11102048E+04</pdfrwt>
<totfact> 0.12493051E+00</totfact>
</mgrwt>
</event>
<event>
 4    1  0.1033139E-008  0.5865605E+03  0.7818608E-02  0.9933688E-01
          2   -1    0    0  501    0  0.00000000000E+00  0.00000000000E+00  0.16035489918E+04  0.16035489918E+04  0.25500000000E-02 0. -1.
         -2   -1    0    0    0  501 -0.00000000000E+00 -0.00000000000E+00 -0.25497287545E+03  0.25497287546E+03  0.25500000000E-02 0.  1.
    8880022    1    1    2    0    0 -0.54837233431E+03  0.14124236350E+03  0.10442564536E+04  0.11977165007E+04  0.15294330000E+03 0.  0.
    8880022    1    1    2    0    0  0.54837233431E+03 -0.14124236350E+03  0.30431966279E+03  0.66080536655E+03  0.15294330000E+03 0.  0.
<mgrwt>
<rscale>  0 0.58656055E+03</rscale>
<asrwt>0</asrwt>
<pdfrwt beam="1">  1        2 0.24669985E+00 0.58656055E+03</pdfrwt>
<pdfrwt beam="2">  1       -2 0.39226596E-01 0.58656055E+03</pdfrwt>
<totfact> 0.70998332E+01</totfact>
</mgrwt>
</event>
<event>
 4    1  0.1033139E-008  0.8150957E+03  0.7818608E-02  0.9538420E-01
          2   -1    0    0  501    0  0.00000000000E+00  0.00000000000E+00  0.15762972260E+04  0.15762972260E+04  0.25500000000E-02 0. -1.
         -2   -1    0    0    0  501 -0.00000000000E+00 -0.00000000000E+00 -0.80267467265E+03  0.80267467265E+03  0.25500000000E-02 0.  1.
    8880022    1    1    2    0    0 -0.34022668838E+03 -0.72473107245E+03 -0.43290164714E+03  0.92292189050E+03  0.15294330000E+03 0.  0.
    8880022    1    1    2    0    0  0.34022668838E+03  0.72473107245E+03  0.12065242005E+04  0.14560500081E+04  0.15294330000E+03 0.  0.
<mgrwt>
<rscale>  0 0.81509569E+03</rscale>
<asrwt>0</asrwt>
<pdfrwt beam="1">  1        2 0.24250726E+00 0.81509569E+03</pdfrwt>
<pdfrwt beam="2">  1       -2 0.12348841E+00 0.81509569E+03</pdfrwt>
<totfact> 0.57820404E+00</totfact>
</mgrwt>
</event>
<event>
 4    1  0.1033139E-008  0.4573222E+03  0.7818608E-02  0.1025561E+00
         -2   -1    0    0    0  501 -0.00000000000E+00  0.00000000000E+00  0.27127161749E+03  0.27127161751E+03  0.25500000000E-02 0.  1.
          2   -1    0    0  501    0  0.00000000000E+00 -0.00000000000E+00 -0.79310585164E+03  0.79310585164E+03  0.25500000000E-02 0. -1.
    8880022    1    1    2    0    0 -0.25530434393E+03 -0.34723422763E+03 -0.17201716441E+03  0.48860359673E+03  0.15294330000E+03 0.  1.
    8880022    1    1    2    0    0  0.25530434393E+03  0.34723422763E+03 -0.34981706973E+03  0.57577387242E+03  0.15294330000E+03 0. -1.
<mgrwt>
<rscale>  0 0.45732217E+03</rscale>
<asrwt>0</asrwt>
<pdfrwt beam="1">  1        2 0.12201628E+00 0.45732217E+03</pdfrwt>
<pdfrwt beam="2">  1       -2 0.41734095E-01 0.45732217E+03</pdfrwt>
<totfact> 0.19510499E+02</totfact>
</mgrwt>
</event>
<event>
 4    1  0.1033139E-008  0.9768070E+03  0.7818608E-02  0.9334355E-01
         -2   -1    0    0    0  501 -0.00000000000E+00  0.00000000000E+00  0.77539697951E+03  0.77539697952E+03  0.25500000000E-02 0.  1.
          2   -1    0    0  501    0  0.00000000000E+00 -0.00000000000E+00 -0.30796353304E+04  0.30796353304E+04  0.25500000000E-02 0. -1.
    8880022    1    1    2    0    0 -0.94849080165E+03  0.17642398847E+03 -0.26457002660E+04  0.28202627138E+04  0.15294330000E+03 0.  0.
    8880022    1    1    2    0    0  0.94849080165E+03 -0.17642398847E+03  0.34146191509E+03  0.10347695961E+04  0.15294330000E+03 0.  0.
<mgrwt>
<rscale>  0 0.97680698E+03</rscale>
<asrwt>0</asrwt>
<pdfrwt beam="1">  1        2 0.47379004E+00 0.97680698E+03</pdfrwt>
<pdfrwt beam="2">  1       -2 0.11929184E+00 0.97680698E+03</pdfrwt>
<totfact> 0.85577343E-01</totfact>
</mgrwt>
</event>
<event>
 4    1  0.1033139E-008  0.1242054E+04  0.7818608E-02  0.9076823E-01
          2   -1    0    0  501    0  0.00000000000E+00  0.00000000000E+00  0.34358167723E+04  0.34358167723E+04  0.25500000000E-02 0. -1.
         -2   -1    0    0    0  501 -0.00000000000E+00 -0.00000000000E+00 -0.11135739868E+04  0.11135739868E+04  0.25500000000E-02 0.  1.
    8880022    1    1    2    0    0  0.12248126052E+04  0.13835048115E+03  0.29183723477E+04  0.31716865523E+04  0.15294330000E+03 0.  0.
    8880022    1    1    2    0    0 -0.12248126052E+04 -0.13835048115E+03 -0.59612956213E+03  0.13777042068E+04  0.15294330000E+03 0.  0.
<mgrwt>
<rscale>  0 0.12420541E+04</rscale>
<asrwt>0</asrwt>
<pdfrwt beam="1">  1        2 0.52858717E+00 0.12420541E+04</pdfrwt>
<pdfrwt beam="2">  1       -2 0.17131908E+00 0.12420541E+04</pdfrwt>
<totfact> 0.18514592E-01</totfact>
</mgrwt>
</event>
<event>
 4    1  0.1033139E-008  0.2206999E+03  0.7818608E-02  0.1133362E+00
          2   -1    0    0  501    0  0.00000000000E+00  0.00000000000E+00  0.89753466904E+03  0.89753466904E+03  0.25500000000E-02 0. -1.
         -2   -1    0    0    0  501 -0.00000000000E+00 -0.00000000000E+00 -0.99523357121E+02  0.99523357154E+02  0.25500000000E-02 0.  1.
    8880022    1    1    2    0    0  0.13538404515E+03  0.83593925643E+02  0.73517448734E+03  0.76758710511E+03  0.15294330000E+03 0. -1.
    8880022    1    1    2    0    0 -0.13538404515E+03 -0.83593925643E+02  0.62836824580E+02  0.22947092109E+03  0.15294330000E+03 0.  0.
<mgrwt>
<rscale>  0 0.22069988E+03</rscale>
<asrwt>0</asrwt>
<pdfrwt beam="1">  1        2 0.13808226E+00 0.22069988E+03</pdfrwt>
<pdfrwt beam="2">  1       -2 0.15311285E-01 0.22069988E+03</pdfrwt>
<totfact> 0.10116919E+03</totfact>
</mgrwt>
</event>
<event>
 4    1  0.1033139E-008  0.6122865E+03  0.7818608E-02  0.9880238E-01
         -2   -1    0    0    0  501 -0.00000000000E+00  0.00000000000E+00  0.11479375026E+04  0.11479375026E+04  0.25500000000E-02 0.  1.
          2   -1    0    0  501    0  0.00000000000E+00 -0.00000000000E+00 -0.97087814597E+03  0.97087814598E+03  0.25500000000E-02 0. -1.
    8880022    1    1    2    0    0  0.59118970456E+03 -0.44697407853E+02 -0.77449627915E+03  0.98728884552E+03  0.15294330000E+03 0.  0.
    8880022    1    1    2    0    0 -0.59118970456E+03  0.44697407853E+02  0.95155563576E+03  0.11315268030E+04  0.15294330000E+03 0.  0.
<mgrwt>
<rscale>  0 0.61228652E+03</rscale>
<asrwt>0</asrwt>
<pdfrwt beam="1">  1        2 0.14936587E+00 0.61228652E+03</pdfrwt>
<pdfrwt beam="2">  1       -2 0.17660577E+00 0.61228652E+03</pdfrwt>
<totfact> 0.52477449E+00</totfact>
</mgrwt>
</event>
<event>
 4    1  0.1033139E-008  0.5648827E+03  0.7818608E-02  0.9981067E-01
         -2   -1    0    0    0  501 -0.00000000000E+00  0.00000000000E+00  0.75568458843E+03  0.75568458843E+03  0.25500000000E-02 0.  1.
          2   -1    0    0  501    0  0.00000000000E+00 -0.00000000000E+00 -0.12510328208E+04  0.12510328208E+04  0.25500000000E-02 0. -1.
    8880022    1    1    2    0    0  0.19246064025E+03 -0.50858602374E+03  0.56898463357E+03  0.80177054563E+03  0.15294330000E+03 0.  0.
    8880022    1    1    2    0    0 -0.19246064025E+03  0.50858602374E+03 -0.10643328660E+04  0.12049468636E+04  0.15294330000E+03 0.  0.
<mgrwt>
<rscale>  0 0.56488273E+03</rscale>
<asrwt>0</asrwt>
<pdfrwt beam="1">  1        2 0.19246659E+00 0.56488273E+03</pdfrwt>
<pdfrwt beam="2">  1       -2 0.11625917E+00 0.56488273E+03</pdfrwt>
<totfact> 0.10633477E+01</totfact>
</mgrwt>
</event>
<event>
 4    1  0.1033139E-008  0.3645590E+03  0.7818608E-02  0.1056793E+00
          2   -1    0    0  501    0  0.00000000000E+00  0.00000000000E+00  0.34126642627E+03  0.34126642628E+03  0.25500000000E-02 0. -1.
         -2   -1    0    0    0  501 -0.00000000000E+00 -0.00000000000E+00 -0.88432046440E+03  0.88432046440E+03  0.25500000000E-02 0.  1.
    8880022    1    1    2    0    0  0.32808024722E+03  0.43301040756E+02 -0.72994200383E+03  0.81591581105E+03  0.15294330000E+03 0.  0.
    8880022    1    1    2    0    0 -0.32808024722E+03 -0.43301040756E+02  0.18688796570E+03  0.40967107963E+03  0.15294330000E+03 0.  0.
<mgrwt>
<rscale>  0 0.36455902E+03</rscale>
<asrwt>0</asrwt>
<pdfrwt beam="1">  1        2 0.52502528E-01 0.36455902E+03</pdfrwt>
<pdfrwt beam="2">  1       -2 0.13604930E+00 0.36455902E+03</pdfrwt>
<totfact> 0.38527761E+01</totfact>
</mgrwt>
</event>
<event>
 4    1  0.1033139E-008  0.1306838E+04  0.7818608E-02  0.9024160E-01
         -2   -1    0    0    0  501 -0.00000000000E+00  0.00000000000E+00  0.87000506489E+03  0.87000506490E+03  0.25500000000E-02 0.  1.
          2   -1    0    0  501    0  0.00000000000E+00 -0.00000000000E+00 -0.23927485993E+04  0.23927485993E+04  0.25500000000E-02 0. -1.
    8880022    1    1    2    0    0 -0.12701092416E+04 -0.26693734489E+03 -0.14527412976E+04  0.19540424669E+04  0.15294330000E+03 0.  0.
    8880022    1    1    2    0    0  0.12701092416E+04  0.26693734489E+03 -0.70002236817E+02  0.13087111973E+04  0.15294330000E+03 0.  0.
<mgrwt>
<rscale>  0 0.13068377E+04</rscale>
<asrwt>0</asrwt>
<pdfrwt beam="1">  1        2 0.36811517E+00 0.13068377E+04</pdfrwt>
<pdfrwt beam="2">  1       -2 0.13384693E+00 0.13068377E+04</pdfrwt>
<totfact> 0.15635370E+00</totfact>
</mgrwt>
</event>
<event>
 4    1  0.1033139E-008  0.4521368E+03  0.7818608E-02  0.1027087E+00
          2   -1    0    0  501    0  0.00000000000E+00  0.00000000000E+00  0.77819334503E+03  0.77819334503E+03  0.25500000000E-02 0. -1.
         -2   -1    0    0    0  501 -0.00000000000E+00 -0.00000000000E+00 -0.10341973713E+04  0.10341973713E+04  0.25500000000E-02 0.  1.
    8880022    1    1    2    0    0 -0.31255343271E+03 -0.28869774676E+03 -0.91069002609E+03  0.10167516973E+04  0.15294330000E+03 0.  0.
    8880022    1    1    2    0    0  0.31255343271E+03  0.28869774676E+03  0.65468599982E+03  0.79563901906E+03  0.15294330000E+03 0.  0.
<mgrwt>
<rscale>  0 0.45213680E+03</rscale>
<asrwt>0</asrwt>
<pdfrwt beam="1">  1        2 0.11972205E+00 0.45213680E+03</pdfrwt>
<pdfrwt beam="2">  1       -2 0.15910729E+00 0.45213680E+03</pdfrwt>
<totfact> 0.97058870E+00</totfact>
</mgrwt>
</event>
<event>
 4    1  0.1033139E-008  0.8836873E+03  0.7818608E-02  0.9446206E-01
         -2   -1    0    0    0  501 -0.00000000000E+00  0.00000000000E+00  0.41291794083E+03  0.41291794084E+03  0.25500000000E-02 0.  1.
          2   -1    0    0  501    0  0.00000000000E+00 -0.00000000000E+00 -0.45576101922E+04  0.45576101922E+04  0.25500000000E-02 0. -1.
    8880022    1    1    2    0    0 -0.66722310431E+03  0.55886040093E+03 -0.39732880105E+04  0.40703710993E+04  0.15294330000E+03 0.  0.
    8880022    1    1    2    0    0  0.66722310431E+03 -0.55886040093E+03 -0.17140424092E+03  0.90015703379E+03  0.15294330000E+03 0.  0.
<mgrwt>
<rscale>  0 0.88368732E+03</rscale>
<asrwt>0</asrwt>
<pdfrwt beam="1">  1        2 0.70117076E+00 0.88368732E+03</pdfrwt>
<pdfrwt beam="2">  1       -2 0.63525840E-01 0.88368732E+03</pdfrwt>
<totfact> 0.27407680E-01</totfact>
</mgrwt>
</event>
<event>
 4    1  0.1033139E-008  0.3117604E+03  0.7818608E-02  0.1079505E+00
          2   -1    0    0  501    0  0.00000000000E+00  0.00000000000E+00  0.15708694377E+04  0.15708694377E+04  0.25500000000E-02 0. -1.
         -2   -1    0    0    0  501 -0.00000000000E+00 -0.00000000000E+00 -0.31018817630E+03  0.31018817631E+03  0.25500000000E-02 0.  1.
    8880022    1    1    2    0    0 -0.15304615450E+03 -0.22445441780E+03  0.14718540096E+04  0.15045094847E+04  0.15294330000E+03 0. -1.
    8880022    1    1    2    0    0  0.15304615450E+03  0.22445441780E+03 -0.21117274818E+03  0.37654812928E+03  0.15294330000E+03 0.  0.
<mgrwt>
<rscale>  0 0.31176043E+03</rscale>
<asrwt>0</asrwt>
<pdfrwt beam="1">  1        2 0.24167222E+00 0.31176043E+03</pdfrwt>
<pdfrwt beam="2">  1       -2 0.47721258E-01 0.31176043E+03</pdfrwt>
<totfact> 0.52908877E+01</totfact>
</mgrwt>
</event>
<event>
 4    1  0.1033139E-008  0.1722842E+03  0.7818608E-02  0.1175487E+00
          2   -1    0    0  501    0  0.00000000000E+00  0.00000000000E+00  0.35226429186E+04  0.35226429186E+04  0.25500000000E-02 0. -1.
         -2   -1    0    0    0  501 -0.00000000000E+00 -0.00000000000E+00 -0.10164147340E+03  0.10164147343E+03  0.25500000000E-02 0.  1.
    8880022    1    1    2    0    0 -0.15326220741E+02 -0.77815729095E+02 -0.24903989819E+02  0.17407481857E+03  0.15294330000E+03 0.  0.
    8880022    1    1    2    0    0  0.15326220741E+02  0.77815729095E+02  0.34459054350E+04  0.34502095735E+04  0.15294330000E+03 0. -1.
<mgrwt>
<rscale>  0 0.17228417E+03</rscale>
<asrwt>0</asrwt>
<pdfrwt beam="1">  1        2 0.54194507E+00 0.17228417E+03</pdfrwt>
<pdfrwt beam="2">  1       -2 0.15637150E-01 0.17228417E+03</pdfrwt>
<totfact> 0.33440073E+01</totfact>
</mgrwt>
</event>
<event>
 4    1  0.1033139E-008  0.7176861E+03  0.7818608E-02  0.9687456E-01
         -2   -1    0    0    0  501 -0.00000000000E+00  0.00000000000E+00  0.78503219134E+03  0.78503219134E+03  0.25500000000E-02 0.  1.
          2   -1    0    0  501    0  0.00000000000E+00 -0.00000000000E+00 -0.13099352860E+04  0.13099352860E+04  0.25500000000E-02 0. -1.
    8880022    1    1    2    0    0  0.18561312365E+03 -0.67618748569E+03 -0.10024839175E+04  0.12329020258E+04  0.15294330000E+03 0.  0.
    8880022    1    1    2    0    0 -0.18561312365E+03  0.67618748569E+03  0.47758082277E+03  0.86206545156E+03  0.15294330000E+03 0.  0.
<mgrwt>
<rscale>  0 0.71768614E+03</rscale>
<asrwt>0</asrwt>
<pdfrwt beam="1">  1        2 0.20152851E+00 0.71768614E+03</pdfrwt>
<pdfrwt beam="2">  1       -2 0.12077418E+00 0.71768614E+03</pdfrwt>
<totfact> 0.87465699E+00</totfact>
</mgrwt>
</event>
<event>
 4    1  0.1033139E-008  0.8383776E+03  0.7818608E-02  0.9506070E-01
         -2   -1    0    0    0  501 -0.00000000000E+00  0.00000000000E+00  0.45250555826E+03  0.45250555826E+03  0.25500000000E-02 0.  1.
          2   -1    0    0  501    0  0.00000000000E+00 -0.00000000000E+00 -0.45829084419E+04  0.45829084419E+04  0.25500000000E-02 0. -1.
    8880022    1    1    2    0    0  0.74268635250E+03 -0.35763423597E+03 -0.41122485761E+04  0.41968399147E+04  0.15294330000E+03 0.  0.
    8880022    1    1    2    0    0 -0.74268635250E+03  0.35763423597E+03 -0.18154307544E+02  0.83857408547E+03  0.15294330000E+03 0.  0.
<mgrwt>
<rscale>  0 0.83837755E+03</rscale>
<asrwt>0</asrwt>
<pdfrwt beam="1">  1        2 0.70506281E+00 0.83837755E+03</pdfrwt>
<pdfrwt beam="2">  1       -2 0.69616243E-01 0.83837755E+03</pdfrwt>
<totfact> 0.21474754E-01</totfact>
</mgrwt>
</event>
<event>
 4    1  0.1033139E-008  0.1151717E+04  0.7818608E-02  0.9156201E-01
         -2   -1    0    0    0  501 -0.00000000000E+00  0.00000000000E+00  0.18169898753E+04  0.18169898753E+04  0.25500000000E-02 0.  1.
          2   -1    0    0  501    0  0.00000000000E+00 -0.00000000000E+00 -0.12356624090E+04  0.12356624090E+04  0.25500000000E-02 0. -1.
    8880022    1    1    2    0    0 -0.36648967624E+03 -0.10810852143E+04 -0.68571022293E+03  0.13403917660E+04  0.15294330000E+03 0.  0.
    8880022    1    1    2    0    0  0.36648967624E+03  0.10810852143E+04  0.12670376893E+04  0.17122605183E+04  0.15294330000E+03 0.  0.
<mgrwt>
<rscale>  0 0.11517168E+04</rscale>
<asrwt>0</asrwt>
<pdfrwt beam="1">  1        2 0.19010191E+00 0.11517168E+04</pdfrwt>
<pdfrwt beam="2">  1       -2 0.27953690E+00 0.11517168E+04</pdfrwt>
<totfact> 0.74961977E-01</totfact>
</mgrwt>
</event>
<event>
 4    1  0.1033139E-008  0.5702191E+03  0.7818608E-02  0.9969194E-01
         -2   -1    0    0    0  501 -0.00000000000E+00  0.00000000000E+00  0.21231802030E+03  0.21231802031E+03  0.25500000000E-02 0.  1.
          2   -1    0    0  501    0  0.00000000000E+00 -0.00000000000E+00 -0.17979187698E+04  0.17979187698E+04  0.25500000000E-02 0. -1.
    8880022    1    1    2    0    0  0.14084955381E+03 -0.53096102630E+03 -0.40583430219E+03  0.69989380774E+03  0.15294330000E+03 0.  0.
    8880022    1    1    2    0    0 -0.14084955381E+03  0.53096102630E+03 -0.11797664473E+04  0.13103429824E+04  0.15294330000E+03 0.  0.
<mgrwt>
<rscale>  0 0.57021913E+03</rscale>
<asrwt>0</asrwt>
<pdfrwt beam="1">  1        2 0.27660288E+00 0.57021913E+03</pdfrwt>
<pdfrwt beam="2">  1       -2 0.32664312E-01 0.57021913E+03</pdfrwt>
<totfact> 0.79086725E+01</totfact>
</mgrwt>
</event>
<event>
 4    1  0.1033139E-008  0.6041662E+03  0.7818608E-02  0.9896800E-01
          2   -1    0    0  501    0  0.00000000000E+00  0.00000000000E+00  0.44409744564E+03  0.44409744565E+03  0.25500000000E-02 0. -1.
         -2   -1    0    0    0  501 -0.00000000000E+00 -0.00000000000E+00 -0.18461469790E+04  0.18461469790E+04  0.25500000000E-02 0.  1.
    8880022    1    1    2    0    0 -0.58443909102E+03  0.74915849787E+01  0.15190795532E+03  0.62297099039E+03  0.15294330000E+03 0.  0.
    8880022    1    1    2    0    0  0.58443909102E+03 -0.74915849787E+01 -0.15539574887E+04  0.16672734343E+04  0.15294330000E+03 0.  0.
<mgrwt>
<rscale>  0 0.60416623E+03</rscale>
<asrwt>0</asrwt>
<pdfrwt beam="1">  1        2 0.68322685E-01 0.60416623E+03</pdfrwt>
<pdfrwt beam="2">  1       -2 0.28402261E+00 0.60416623E+03</pdfrwt>
<totfact> 0.29832941E+00</totfact>
</mgrwt>
</event>
<event>
 4    1  0.1327992E-008  0.1021780E+04  0.7818608E-02  0.9284975E-01
          2   -1    0    0  501    0  0.00000000000E+00  0.00000000000E+00  0.14155252367E+04  0.14155252367E+04  0.25500000000E-02 0. -1.
         -2   -1    0    0    0  501 -0.00000000000E+00 -0.00000000000E+00 -0.20320814338E+04  0.20320814338E+04  0.25500000000E-02 0.  1.
    8880022    1    1    2    0    0 -0.28978413519E+03  0.96781557167E+03  0.10675746042E+04  0.14777513371E+04  0.15294330000E+03 0.  0.
    8880022    1    1    2    0    0  0.28978413519E+03 -0.96781557167E+03 -0.16841308012E+04  0.19698553334E+04  0.15294330000E+03 0.  0.
<mgrwt>
<rscale>  0 0.10217796E+04</rscale>
<asrwt>0</asrwt>
<pdfrwt beam="1">  1        2 0.21777311E+00 0.10217796E+04</pdfrwt>
<pdfrwt beam="2">  1       -2 0.31262791E+00 0.10217796E+04</pdfrwt>
<totfact> 0.37810650E-01</totfact>
</mgrwt>
</event>
<event>
 4    1  0.1033139E-008  0.2875947E+03  0.7818608E-02  0.1091612E+00
         -2   -1    0    0    0  501 -0.00000000000E+00  0.00000000000E+00  0.62297125850E+02  0.62297125902E+02  0.25500000000E-02 0.  1.
          2   -1    0    0  501    0  0.00000000000E+00 -0.00000000000E+00 -0.17593761145E+04  0.17593761145E+04  0.25500000000E-02 0. -1.
    8880022    1    1    2    0    0 -0.22594046385E+03  0.90939202913E+02 -0.39735942112E+03  0.49051523360E+03  0.15294330000E+03 0.  1.
    8880022    1    1    2    0    0  0.22594046385E+03 -0.90939202913E+02 -0.12997195675E+04  0.13311580068E+04  0.15294330000E+03 0. -1.
<mgrwt>
<rscale>  0 0.28759465E+03</rscale>
<asrwt>0</asrwt>
<pdfrwt beam="1">  1        2 0.27067321E+00 0.28759465E+03</pdfrwt>
<pdfrwt beam="2">  1       -2 0.95841746E-02 0.28759465E+03</pdfrwt>
<totfact> 0.70577413E+02</totfact>
</mgrwt>
</event>
<event>
 4    1  0.1033139E-008  0.1338922E+04  0.7818608E-02  0.8999257E-01
         -2   -1    0    0    0  501 -0.00000000000E+00  0.00000000000E+00  0.16831487822E+04  0.16831487822E+04  0.25500000000E-02 0.  1.
          2   -1    0    0  501    0  0.00000000000E+00 -0.00000000000E+00 -0.12789130394E+04  0.12789130394E+04  0.25500000000E-02 0. -1.
    8880022    1    1    2    0    0 -0.11402960782E+03 -0.13252610001E+04  0.80769174743E+03  0.15636742249E+04  0.15294330000E+03 0.  0.
    8880022    1    1    2    0    0  0.11402960782E+03  0.13252610001E+04 -0.40345600464E+03  0.13983875967E+04  0.15294330000E+03 0.  0.
<mgrwt>
<rscale>  0 0.13389216E+04</rscale>
<asrwt>0</asrwt>
<pdfrwt beam="1">  1        2 0.19675585E+00 0.13389216E+04</pdfrwt>
<pdfrwt beam="2">  1       -2 0.25894597E+00 0.13389216E+04</pdfrwt>
<totfact> 0.92269872E-01</totfact>
</mgrwt>
</event>
<event>
 4    1  0.1033139E-008  0.9632194E+03  0.7818608E-02  0.9349831E-01
          2   -1    0    0  501    0  0.00000000000E+00  0.00000000000E+00  0.35086470632E+04  0.35086470632E+04  0.25500000000E-02 0. -1.
         -2   -1    0    0    0  501 -0.00000000000E+00 -0.00000000000E+00 -0.30772149080E+03  0.30772149081E+03  0.25500000000E-02 0.  1.
    8880022    1    1    2    0    0  0.29728701872E+03  0.90333842203E+03  0.88474355040E+03  0.13078848111E+04  0.15294330000E+03 0.  0.
    8880022    1    1    2    0    0 -0.29728701872E+03 -0.90333842203E+03  0.23161820220E+04  0.25084837429E+04  0.15294330000E+03 0.  0.
<mgrwt>
<rscale>  0 0.96321936E+03</rscale>
<asrwt>0</asrwt>
<pdfrwt beam="1">  1        2 0.53979186E+00 0.96321936E+03</pdfrwt>
<pdfrwt beam="2">  1       -2 0.47341767E-01 0.96321936E+03</pdfrwt>
<totfact> 0.35379549E+00</totfact>
</mgrwt>
</event>
<event>
 4    1  0.1033139E-008  0.1372964E+04  0.7818608E-02  0.8973624E-01
         -2   -1    0    0    0  501 -0.00000000000E+00  0.00000000000E+00  0.13011046441E+04  0.13011046441E+04  0.25500000000E-02 0.  1.
          2   -1    0    0  501    0  0.00000000000E+00 -0.00000000000E+00 -0.20400842426E+04  0.20400842426E+04  0.25500000000E-02 0. -1.
    8880022    1    1    2    0    0 -0.83287151448E+03 -0.10807235590E+04 -0.12688798225E+04  0.18695149177E+04  0.15294330000E+03 0.  0.
    8880022    1    1    2    0    0  0.83287151448E+03  0.10807235590E+04  0.52990022400E+03  0.14716739690E+04  0.15294330000E+03 0.  0.
<mgrwt>
<rscale>  0 0.13729640E+04</rscale>
<asrwt>0</asrwt>
<pdfrwt beam="1">  1        2 0.31385912E+00 0.13729640E+04</pdfrwt>
<pdfrwt beam="2">  1       -2 0.20016994E+00 0.13729640E+04</pdfrwt>
<totfact> 0.80147254E-01</totfact>
</mgrwt>
</event>
<event>
 4    1  0.1033139E-008  0.9879855E+03  0.7818608E-02  0.9321821E-01
         -2   -1    0    0    0  501 -0.00000000000E+00  0.00000000000E+00  0.89766221448E+03  0.89766221449E+03  0.25500000000E-02 0.  1.
          2   -1    0    0  501    0  0.00000000000E+00 -0.00000000000E+00 -0.21827118685E+04  0.21827118685E+04  0.25500000000E-02 0. -1.
    8880022    1    1    2    0    0 -0.29659305464E+03  0.92992269069E+03  0.44852536121E+03  0.10850300933E+04  0.15294330000E+03 0.  0.
    8880022    1    1    2    0    0  0.29659305464E+03 -0.92992269069E+03 -0.17335750152E+04  0.19953439897E+04  0.15294330000E+03 0.  0.
<mgrwt>
<rscale>  0 0.98798548E+03</rscale>
<asrwt>0</asrwt>
<pdfrwt beam="1">  1        2 0.33580183E+00 0.98798548E+03</pdfrwt>
<pdfrwt beam="2">  1       -2 0.13810188E+00 0.98798548E+03</pdfrwt>
<totfact> 0.19697752E+00</totfact>
</mgrwt>
</event>
<event>
 4    1  0.1033139E-008  0.9593932E+03  0.7818608E-02  0.9354238E-01
          2   -1    0    0  501    0  0.00000000000E+00  0.00000000000E+00  0.34107471707E+04  0.34107471707E+04  0.25500000000E-02 0. -1.
         -2   -1    0    0    0  501 -0.00000000000E+00 -0.00000000000E+00 -0.13959474682E+04  0.13959474683E+04  0.25500000000E-02 0.  1.
    8880022    1    1    2    0    0  0.19576710634E+03  0.92667089919E+03 -0.11511765894E+04  0.14985469323E+04  0.15294330000E+03 0.  0.
    8880022    1    1    2    0    0 -0.19576710634E+03 -0.92667089919E+03  0.31659762919E+04  0.33081477066E+04  0.15294330000E+03 0.  0.
<mgrwt>
<rscale>  0 0.95939323E+03</rscale>
<asrwt>0</asrwt>
<pdfrwt beam="1">  1        2 0.52473033E+00 0.95939323E+03</pdfrwt>
<pdfrwt beam="2">  1       -2 0.21476115E+00 0.95939323E+03</pdfrwt>
<totfact> 0.10395396E-01</totfact>
</mgrwt>
</event>
<event>
 4    1  0.1033139E-008  0.9285428E+03  0.7818608E-02  0.9390588E-01
         -2   -1    0    0    0  501 -0.00000000000E+00  0.00000000000E+00  0.12422326159E+04  0.12422326159E+04  0.25500000000E-02 0.  1.
          2   -1    0    0  501    0  0.00000000000E+00 -0.00000000000E+00 -0.16964051263E+04  0.16964051263E+04  0.25500000000E-02 0. -1.
    8880022    1    1    2    0    0 -0.64663784104E+03  0.64858271304E+03 -0.13565142913E+04  0.16438742983E+04  0.15294330000E+03 0.  0.
    8880022    1    1    2    0    0  0.64663784104E+03 -0.64858271304E+03  0.90234178091E+03  0.12947634439E+04  0.15294330000E+03 0.  0.
<mgrwt>
<rscale>  0 0.92854278E+03</rscale>
<asrwt>0</asrwt>
<pdfrwt beam="1">  1        2 0.26098541E+00 0.92854278E+03</pdfrwt>
<pdfrwt beam="2">  1       -2 0.19111271E+00 0.92854278E+03</pdfrwt>
<totfact> 0.15085135E+00</totfact>
</mgrwt>
</event>
<event>
 4    1  0.1033139E-008  0.6747213E+03  0.7818608E-02  0.9761466E-01
         -2   -1    0    0    0  501 -0.00000000000E+00  0.00000000000E+00  0.43624402720E+03  0.43624402721E+03  0.25500000000E-02 0.  1.
          2   -1    0    0  501    0  0.00000000000E+00 -0.00000000000E+00 -0.28077002049E+04  0.28077002049E+04  0.25500000000E-02 0. -1.
    8880022    1    1    2    0    0  0.62865467694E+03  0.19144310350E+03  0.99955206706E+02  0.68208493685E+03  0.15294330000E+03 0.  0.
    8880022    1    1    2    0    0 -0.62865467694E+03 -0.19144310350E+03 -0.24714113844E+04  0.25618592953E+04  0.15294330000E+03 0.  0.
<mgrwt>
<rscale>  0 0.67472129E+03</rscale>
<asrwt>0</asrwt>
<pdfrwt beam="1">  1        2 0.43195387E+00 0.67472129E+03</pdfrwt>
<pdfrwt beam="2">  1       -2 0.67114468E-01 0.67472129E+03</pdfrwt>
<totfact> 0.50132785E+00</totfact>
</mgrwt>
</event>
<event>
 4    1  0.1033139E-008  0.8934817E+03  0.7818608E-02  0.9433766E-01
         -2   -1    0    0    0  501 -0.00000000000E+00  0.00000000000E+00  0.61136139604E+03  0.61136139604E+03  0.25500000000E-02 0.  1.
          2   -1    0    0  501    0  0.00000000000E+00 -0.00000000000E+00 -0.14693663196E+04  0.14693663196E+04  0.25500000000E-02 0. -1.
    8880022    1    1    2    0    0  0.35214202850E+03 -0.80679236947E+03 -0.77612311235E+03  0.11835018691E+04  0.15294330000E+03 0.  0.
    8880022    1    1    2    0    0 -0.35214202850E+03  0.80679236947E+03 -0.81881811229E+02  0.89722584654E+03  0.15294330000E+03 0.  0.
<mgrwt>
<rscale>  0 0.89348172E+03</rscale>
<asrwt>0</asrwt>
<pdfrwt beam="1">  1        2 0.22605636E+00 0.89348172E+03</pdfrwt>
<pdfrwt beam="2">  1       -2 0.94055600E-01 0.89348172E+03</pdfrwt>
<totfact> 0.12687270E+01</totfact>
</mgrwt>
</event>
<event>
 4    1  0.1033139E-008  0.9881075E+03  0.7818608E-02  0.9321685E-01
         -2   -1    0    0    0  501 -0.00000000000E+00  0.00000000000E+00  0.65970662145E+03  0.65970662146E+03  0.25500000000E-02 0.  1.
          2   -1    0    0  501    0  0.00000000000E+00 -0.00000000000E+00 -0.29605853711E+04  0.29605853711E+04  0.25500000000E-02 0. -1.
    8880022    1    1    2    0    0  0.91514043304E+03  0.33982758148E+03 -0.24305385424E+04  0.26237137909E+04  0.15294330000E+03 0.  0.
    8880022    1    1    2    0    0 -0.91514043304E+03 -0.33982758148E+03  0.12965979270E+03  0.99657820173E+03  0.15294330000E+03 0.  0.
<mgrwt>
<rscale>  0 0.98810751E+03</rscale>
<asrwt>0</asrwt>
<pdfrwt beam="1">  1        2 0.45547467E+00 0.98810751E+03</pdfrwt>
<pdfrwt beam="2">  1       -2 0.10149333E+00 0.98810751E+03</pdfrwt>
<totfact> 0.14993553E+00</totfact>
</mgrwt>
</event>
<event>
 4    1  0.1033139E-008  0.9407824E+03  0.7818608E-02  0.9375990E-01
         -2   -1    0    0    0  501 -0.00000000000E+00  0.00000000000E+00  0.36087284903E+03  0.36087284904E+03  0.25500000000E-02 0.  1.
          2   -1    0    0  501    0  0.00000000000E+00 -0.00000000000E+00 -0.28595795703E+04  0.28595795703E+04  0.25500000000E-02 0. -1.
    8880022    1    1    2    0    0 -0.58484556135E+03  0.72085748526E+03 -0.18568304002E+04  0.20815596635E+04  0.15294330000E+03 0.  0.
    8880022    1    1    2    0    0  0.58484556135E+03 -0.72085748526E+03 -0.64187632105E+03  0.11388927558E+04  0.15294330000E+03 0.  0.
<mgrwt>
<rscale>  0 0.94078239E+03</rscale>
<asrwt>0</asrwt>
<pdfrwt beam="1">  1        2 0.43993530E+00 0.94078239E+03</pdfrwt>
<pdfrwt beam="2">  1       -2 0.55518902E-01 0.94078239E+03</pdfrwt>
<totfact> 0.66674119E+00</totfact>
</mgrwt>
</event>
<event>
 4    1  0.1033139E-008  0.8967480E+03  0.7818608E-02  0.9429656E-01
          2   -1    0    0  501    0  0.00000000000E+00  0.00000000000E+00  0.11685317300E+04  0.11685317300E+04  0.25500000000E-02 0. -1.
         -2   -1    0    0    0  501 -0.00000000000E+00 -0.00000000000E+00 -0.13487173190E+04  0.13487173190E+04  0.25500000000E-02 0.  1.
    8880022    1    1    2    0    0 -0.85157123210E+03 -0.23577919678E+03  0.79072337805E+03  0.11955753872E+04  0.15294330000E+03 0.  0.
    8880022    1    1    2    0    0  0.85157123210E+03  0.23577919678E+03 -0.97090896700E+03  0.13216736618E+04  0.15294330000E+03 0.  0.
<mgrwt>
<rscale>  0 0.89674804E+03</rscale>
<asrwt>0</asrwt>
<pdfrwt beam="1">  1        2 0.17977411E+00 0.89674804E+03</pdfrwt>
<pdfrwt beam="2">  1       -2 0.20749497E+00 0.89674804E+03</pdfrwt>
<totfact> 0.23649705E+00</totfact>
</mgrwt>
</event>
<event>
 4    1  0.1033139E-008  0.2002482E+04  0.7818608E-02  0.8605461E-01
         -2   -1    0    0    0  501 -0.00000000000E+00  0.00000000000E+00  0.15844639623E+04  0.15844639623E+04  0.25500000000E-02 0.  1.
          2   -1    0    0  501    0  0.00000000000E+00 -0.00000000000E+00 -0.28719352277E+04  0.28719352277E+04  0.25500000000E-02 0. -1.
    8880022    1    1    2    0    0 -0.84731295548E+03  0.18079279645E+04  0.12422841929E+03  0.20063317578E+04  0.15294330000E+03 0.  0.
    8880022    1    1    2    0    0  0.84731295548E+03 -0.18079279645E+04 -0.14116996848E+04  0.24500674322E+04  0.15294330000E+03 0.  0.
<mgrwt>
<rscale>  0 0.20024821E+04</rscale>
<asrwt>0</asrwt>
<pdfrwt beam="1">  1        2 0.44183619E+00 0.20024821E+04</pdfrwt>
<pdfrwt beam="2">  1       -2 0.24376369E+00 0.20024821E+04</pdfrwt>
<totfact> 0.13044942E-01</totfact>
</mgrwt>
</event>
<event>
 4    1  0.1033139E-008  0.1046730E+04  0.7818608E-02  0.9258726E-01
         -2   -1    0    0    0  501 -0.00000000000E+00  0.00000000000E+00  0.28304211438E+04  0.28304211438E+04  0.25500000000E-02 0.  1.
          2   -1    0    0  501    0  0.00000000000E+00 -0.00000000000E+00 -0.71111729970E+03  0.71111729970E+03  0.25500000000E-02 0. -1.
    8880022    1    1    2    0    0 -0.66284487852E+03 -0.79554357340E+03  0.22549553245E+04  0.24860547216E+04  0.15294330000E+03 0.  0.
    8880022    1    1    2    0    0  0.66284487852E+03  0.79554357340E+03 -0.13565148037E+03  0.10554837220E+04  0.15294330000E+03 0.  0.
<mgrwt>
<rscale>  0 0.10467304E+04</rscale>
<asrwt>0</asrwt>
<pdfrwt beam="1">  1        2 0.10940266E+00 0.10467304E+04</pdfrwt>
<pdfrwt beam="2">  1       -2 0.43544941E+00 0.10467304E+04</pdfrwt>
<totfact> 0.17605433E-01</totfact>
</mgrwt>
</event>
<event>
 4    1  0.1033139E-008  0.6230619E+03  0.7818608E-02  0.9858682E-01
          2   -1    0    0  501    0  0.00000000000E+00  0.00000000000E+00  0.66415623665E+03  0.66415623666E+03  0.25500000000E-02 0. -1.
         -2   -1    0    0    0  501 -0.00000000000E+00 -0.00000000000E+00 -0.46091291072E+04  0.46091291072E+04  0.25500000000E-02 0.  1.
    8880022    1    1    2    0    0  0.58451537671E+03  0.15217178365E+03  0.49130657312E+03  0.79346599118E+03  0.15294330000E+03 0.  0.
    8880022    1    1    2    0    0 -0.58451537671E+03 -0.15217178365E+03 -0.44362794437E+04  0.44798193527E+04  0.15294330000E+03 0.  1.
<mgrwt>
<rscale>  0 0.62306190E+03</rscale>
<asrwt>0</asrwt>
<pdfrwt beam="1">  1        2 0.10217789E+00 0.62306190E+03</pdfrwt>
<pdfrwt beam="2">  1       -2 0.70909677E+00 0.62306190E+03</pdfrwt>
<totfact> 0.10224992E-02</totfact>
</mgrwt>
</event>
<event>
 4    1  0.1033139E-008  0.1737983E+03  0.7818608E-02  0.1173944E+00
          2   -1    0    0  501    0  0.00000000000E+00  0.00000000000E+00  0.10199681931E+04  0.10199681931E+04  0.25500000000E-02 0. -1.
         -2   -1    0    0    0  501 -0.00000000000E+00 -0.00000000000E+00 -0.31330719087E+02  0.31330719191E+02  0.25500000000E-02 0.  1.
    8880022    1    1    2    0    0  0.69250497392E+02  0.44928264175E+02  0.61734539752E+03  0.64134325689E+03  0.15294330000E+03 0.  0.
    8880022    1    1    2    0    0 -0.69250497392E+02 -0.44928264175E+02  0.37129207647E+03  0.40995565538E+03  0.15294330000E+03 0. -1.
<mgrwt>
<rscale>  0 0.17379825E+03</rscale>
<asrwt>0</asrwt>
<pdfrwt beam="1">  1        2 0.15691820E+00 0.17379825E+03</pdfrwt>
<pdfrwt beam="2">  1       -2 0.48201100E-02 0.17379825E+03</pdfrwt>
<totfact> 0.52042201E+03</totfact>
</mgrwt>
</event>
<event>
 4    1  0.1033139E-008  0.4996254E+03  0.7818608E-02  0.1013877E+00
          2   -1    0    0  501    0  0.00000000000E+00  0.00000000000E+00  0.17211604930E+04  0.17211604930E+04  0.25500000000E-02 0. -1.
         -2   -1    0    0    0  501 -0.00000000000E+00 -0.00000000000E+00 -0.52157919785E+03  0.52157919786E+03  0.25500000000E-02 0.  1.
    8880022    1    1    2    0    0 -0.45910596115E+03  0.12432051632E+03 -0.35300051958E+03  0.61174741044E+03  0.15294330000E+03 0.  0.
    8880022    1    1    2    0    0  0.45910596115E+03 -0.12432051632E+03  0.15525818147E+04  0.16309922804E+04  0.15294330000E+03 0.  0.
<mgrwt>
<rscale>  0 0.49962539E+03</rscale>
<asrwt>0</asrwt>
<pdfrwt beam="1">  1        2 0.26479392E+00 0.49962539E+03</pdfrwt>
<pdfrwt beam="2">  1       -2 0.80242955E-01 0.49962539E+03</pdfrwt>
<totfact> 0.14060099E+01</totfact>
</mgrwt>
</event>
<event>
 4    1  0.1033139E-008  0.5580104E+03  0.7818608E-02  0.9996567E-01
         -2   -1    0    0    0  501 -0.00000000000E+00  0.00000000000E+00  0.44569202924E+03  0.44569202924E+03  0.25500000000E-02 0.  1.
          2   -1    0    0  501    0  0.00000000000E+00 -0.00000000000E+00 -0.29801470985E+04  0.29801470985E+04  0.25500000000E-02 0. -1.
    8880022    1    1    2    0    0 -0.22899356934E+03 -0.48533069560E+03 -0.27659789461E+04  0.28217042939E+04  0.15294330000E+03 0.  0.
    8880022    1    1    2    0    0  0.22899356934E+03  0.48533069560E+03  0.23152387685E+03  0.60413483384E+03  0.15294330000E+03 0.  0.
<mgrwt>
<rscale>  0 0.55801039E+03</rscale>
<asrwt>0</asrwt>
<pdfrwt beam="1">  1        2 0.45848416E+00 0.55801039E+03</pdfrwt>
<pdfrwt beam="2">  1       -2 0.68568006E-01 0.55801039E+03</pdfrwt>
<totfact> 0.38833438E+00</totfact>
</mgrwt>
</event>
<event>
 4    1  0.1033139E-008  0.7360220E+03  0.7818608E-02  0.9657538E-01
          2   -1    0    0  501    0  0.00000000000E+00  0.00000000000E+00  0.14735273575E+04  0.14735273575E+04  0.25500000000E-02 0. -1.
         -2   -1    0    0    0  501 -0.00000000000E+00 -0.00000000000E+00 -0.20076800267E+04  0.20076800267E+04  0.25500000000E-02 0.  1.
    8880022    1    1    2    0    0  0.65480159162E+03  0.29928525730E+03  0.13061086732E+04  0.14992158980E+04  0.15294330000E+03 0.  0.
    8880022    1    1    2    0    0 -0.65480159162E+03 -0.29928525730E+03 -0.18402613424E+04  0.19819914861E+04  0.15294330000E+03 0.  0.
<mgrwt>
<rscale>  0 0.73602204E+03</rscale>
<asrwt>0</asrwt>
<pdfrwt beam="1">  1        2 0.22669652E+00 0.73602204E+03</pdfrwt>
<pdfrwt beam="2">  1       -2 0.30887385E+00 0.73602204E+03</pdfrwt>
<totfact> 0.39050080E-01</totfact>
</mgrwt>
</event>
<event>
 4    1  0.1033139E-008  0.2660237E+03  0.7818608E-02  0.1103577E+00
          2   -1    0    0  501    0  0.00000000000E+00  0.00000000000E+00  0.10890825593E+04  0.10890825593E+04  0.25500000000E-02 0. -1.
         -2   -1    0    0    0  501 -0.00000000000E+00 -0.00000000000E+00 -0.15976913485E+03  0.15976913487E+03  0.25500000000E-02 0.  1.
    8880022    1    1    2    0    0  0.20642087353E+03  0.69046148511E+02  0.94562193627E+03  0.98232858404E+03  0.15294330000E+03 0.  0.
    8880022    1    1    2    0    0 -0.20642087353E+03 -0.69046148511E+02 -0.16308511841E+02  0.26652311012E+03  0.15294330000E+03 0.  0.
<mgrwt>
<rscale>  0 0.26602368E+03</rscale>
<asrwt>0</asrwt>
<pdfrwt beam="1">  1        2 0.16755116E+00 0.26602368E+03</pdfrwt>
<pdfrwt beam="2">  1       -2 0.24579867E-01 0.26602368E+03</pdfrwt>
<totfact> 0.34235308E+02</totfact>
</mgrwt>
</event>
<event>
 4    1  0.1033139E-008  0.6836458E+03  0.7818608E-02  0.9745616E-01
          2   -1    0    0  501    0  0.00000000000E+00  0.00000000000E+00  0.58196307354E+03  0.58196307354E+03  0.25500000000E-02 0. -1.
         -2   -1    0    0    0  501 -0.00000000000E+00 -0.00000000000E+00 -0.14043830525E+04  0.14043830525E+04  0.25500000000E-02 0.  1.
    8880022    1    1    2    0    0 -0.50975828396E+03  0.42909957841E+03 -0.10610754345E+04  0.12622411366E+04  0.15294330000E+03 0.  0.
    8880022    1    1    2    0    0  0.50975828396E+03 -0.42909957841E+03  0.23865545553E+03  0.72410498944E+03  0.15294330000E+03 0.  0.
<mgrwt>
<rscale>  0 0.68364582E+03</rscale>
<asrwt>0</asrwt>
<pdfrwt beam="1">  1        2 0.89532781E-01 0.68364582E+03</pdfrwt>
<pdfrwt beam="2">  1       -2 0.21605893E+00 0.68364582E+03</pdfrwt>
<totfact> 0.55587995E+00</totfact>
</mgrwt>
</event>
<event>
 4    1  0.1033139E-008  0.5966702E+03  0.7818608E-02  0.9912338E-01
          2   -1    0    0  501    0  0.00000000000E+00  0.00000000000E+00  0.20904708546E+04  0.20904708546E+04  0.25500000000E-02 0. -1.
         -2   -1    0    0    0  501 -0.00000000000E+00 -0.00000000000E+00 -0.25530747891E+04  0.25530747891E+04  0.25500000000E-02 0.  1.
    8880022    1    1    2    0    0 -0.44367963445E+03 -0.36847260879E+03  0.20116971238E+04  0.20983185298E+04  0.15294330000E+03 0.  0.
    8880022    1    1    2    0    0  0.44367963445E+03  0.36847260879E+03 -0.24743010583E+04  0.25452271139E+04  0.15294330000E+03 0.  0.
<mgrwt>
<rscale>  0 0.59667021E+03</rscale>
<asrwt>0</asrwt>
<pdfrwt beam="1">  1        2 0.32161090E+00 0.59667021E+03</pdfrwt>
<pdfrwt beam="2">  1       -2 0.39278073E+00 0.59667021E+03</pdfrwt>
<totfact> 0.56480447E-02</totfact>
</mgrwt>
</event>
<event>
 4    1  0.1033139E-008  0.1118009E+04  0.7818608E-02  0.9187815E-01
         -2   -1    0    0    0  501 -0.00000000000E+00  0.00000000000E+00  0.95019438361E+03  0.95019438362E+03  0.25500000000E-02 0.  1.
          2   -1    0    0  501    0  0.00000000000E+00 -0.00000000000E+00 -0.21263547561E+04  0.21263547561E+04  0.25500000000E-02 0. -1.
    8880022    1    1    2    0    0  0.10339094567E+04  0.39696678951E+03  0.36186412783E+03  0.11751122059E+04  0.15294330000E+03 0.  0.
    8880022    1    1    2    0    0 -0.10339094567E+04 -0.39696678951E+03 -0.15380245003E+04  0.19014369338E+04  0.15294330000E+03 0.  0.
<mgrwt>
<rscale>  0 0.11180085E+04</rscale>
<asrwt>0</asrwt>
<pdfrwt beam="1">  1        2 0.32713150E+00 0.11180085E+04</pdfrwt>
<pdfrwt beam="2">  1       -2 0.14618375E+00 0.11180085E+04</pdfrwt>
<totfact> 0.17928102E+00</totfact>
</mgrwt>
</event>
<event>
 4    1  0.1033139E-008  0.8773911E+03  0.7818608E-02  0.9454293E-01
         -2   -1    0    0    0  501 -0.00000000000E+00  0.00000000000E+00  0.10847369276E+04  0.10847369276E+04  0.25500000000E-02 0.  1.
          2   -1    0    0  501    0  0.00000000000E+00 -0.00000000000E+00 -0.87016857789E+03  0.87016857790E+03  0.25500000000E-02 0. -1.
    8880022    1    1    2    0    0  0.78164301576E+03  0.36804582216E+03  0.52705986629E+03  0.10235268863E+04  0.15294330000E+03 0.  0.
    8880022    1    1    2    0    0 -0.78164301576E+03 -0.36804582216E+03 -0.31249151661E+03  0.93137861918E+03  0.15294330000E+03 0.  0.
<mgrwt>
<rscale>  0 0.87739112E+03</rscale>
<asrwt>0</asrwt>
<pdfrwt beam="1">  1        2 0.13387209E+00 0.87739112E+03</pdfrwt>
<pdfrwt beam="2">  1       -2 0.16688260E+00 0.87739112E+03</pdfrwt>
<totfact> 0.69201163E+00</totfact>
</mgrwt>
</event>
<event>
 4    1  0.1033139E-008  0.3950406E+03  0.7818608E-02  0.1045511E+00
         -2   -1    0    0    0  501 -0.00000000000E+00  0.00000000000E+00  0.37114493828E+03  0.37114493829E+03  0.25500000000E-02 0.  1.
          2   -1    0    0  501    0  0.00000000000E+00 -0.00000000000E+00 -0.98609793532E+03  0.98609793533E+03  0.25500000000E-02 0. -1.
    8880022    1    1    2    0    0 -0.36840709143E+02 -0.36236472443E+03  0.20648565678E+03  0.44575039073E+03  0.15294330000E+03 0.  0.
    8880022    1    1    2    0    0  0.36840709143E+02  0.36236472443E+03 -0.82143865382E+03  0.91149248289E+03  0.15294330000E+03 0.  0.
<mgrwt>
<rscale>  0 0.39504061E+03</rscale>
<asrwt>0</asrwt>
<pdfrwt beam="1">  1        2 0.15170737E+00 0.39504061E+03</pdfrwt>
<pdfrwt beam="2">  1       -2 0.57099222E-01 0.39504061E+03</pdfrwt>
<totfact> 0.77860907E+01</totfact>
</mgrwt>
</event>
<event>
 4    1  0.1033139E-008  0.5199690E+03  0.7818608E-02  0.1008694E+00
          2   -1    0    0  501    0  0.00000000000E+00  0.00000000000E+00  0.27393448406E+04  0.27393448406E+04  0.25500000000E-02 0. -1.
         -2   -1    0    0    0  501 -0.00000000000E+00 -0.00000000000E+00 -0.30591893478E+03  0.30591893479E+03  0.25500000000E-02 0.  1.
    8880022    1    1    2    0    0 -0.61682805206E+01  0.49692864774E+03 -0.36452993056E+02  0.52124524204E+03  0.15294330000E+03 0.  0.
    8880022    1    1    2    0    0  0.61682805206E+01 -0.49692864774E+03  0.24698788989E+04  0.25240185334E+04  0.15294330000E+03 0.  0.
<mgrwt>
<rscale>  0 0.51996902E+03</rscale>
<asrwt>0</asrwt>
<pdfrwt beam="1">  1        2 0.42143766E+00 0.51996902E+03</pdfrwt>
<pdfrwt beam="2">  1       -2 0.47064453E-01 0.51996902E+03</pdfrwt>
<totfact> 0.11904862E+01</totfact>
</mgrwt>
</event>
<event>
 4    1  0.1033139E-008  0.6168401E+03  0.7818608E-02  0.9871071E-01
          2   -1    0    0  501    0  0.00000000000E+00  0.00000000000E+00  0.12559484059E+04  0.12559484059E+04  0.25500000000E-02 0. -1.
         -2   -1    0    0    0  501 -0.00000000000E+00 -0.00000000000E+00 -0.81059138747E+03  0.81059138747E+03  0.25500000000E-02 0.  1.
    8880022    1    1    2    0    0 -0.41284362771E+03  0.43204195354E+03 -0.59501499604E+03  0.85704994551E+03  0.15294330000E+03 0.  0.
    8880022    1    1    2    0    0  0.41284362771E+03 -0.43204195354E+03  0.10403720144E+04  0.12094898478E+04  0.15294330000E+03 0.  0.
<mgrwt>
<rscale>  0 0.61684014E+03</rscale>
<asrwt>0</asrwt>
<pdfrwt beam="1">  1        2 0.19322283E+00 0.61684014E+03</pdfrwt>
<pdfrwt beam="2">  1       -2 0.12470637E+00 0.61684014E+03</pdfrwt>
<totfact> 0.88070151E+00</totfact>
</mgrwt>
</event>
<event>
 4    1  0.1033139E-008  0.6850440E+03  0.7818608E-02  0.9743156E-01
          2   -1    0    0  501    0  0.00000000000E+00  0.00000000000E+00  0.16040598692E+04  0.16040598692E+04  0.25500000000E-02 0. -1.
         -2   -1    0    0    0  501 -0.00000000000E+00 -0.00000000000E+00 -0.18864228586E+04  0.18864228586E+04  0.25500000000E-02 0.  1.
    8880022    1    1    2    0    0  0.63361668315E+03  0.21076888029E+03 -0.17453918619E+04  0.18750141404E+04  0.15294330000E+03 0.  0.
    8880022    1    1    2    0    0 -0.63361668315E+03 -0.21076888029E+03  0.14630288725E+04  0.16154685874E+04  0.15294330000E+03 0.  0.
<mgrwt>
<rscale>  0 0.68504399E+03</rscale>
<asrwt>0</asrwt>
<pdfrwt beam="1">  1        2 0.24677844E+00 0.68504399E+03</pdfrwt>
<pdfrwt beam="2">  1       -2 0.29021890E+00 0.68504399E+03</pdfrwt>
<totfact> 0.43333452E-01</totfact>
</mgrwt>
</event>
<event>
 4    1  0.1033139E-008  0.2438400E+03  0.7818608E-02  0.1117261E+00
          2   -1    0    0  501    0  0.00000000000E+00  0.00000000000E+00  0.16877405086E+03  0.16877405087E+03  0.25500000000E-02 0. -1.
         -2   -1    0    0    0  501 -0.00000000000E+00 -0.00000000000E+00 -0.63315191167E+03  0.63315191168E+03  0.25500000000E-02 0.  1.
    8880022    1    1    2    0    0  0.18256590583E+03  0.52306590917E+02 -0.49923998885E+03  0.55560643346E+03  0.15294330000E+03 0.  0.
    8880022    1    1    2    0    0 -0.18256590583E+03 -0.52306590917E+02  0.34862128027E+02  0.24631952909E+03  0.15294330000E+03 0.  0.
<mgrwt>
<rscale>  0 0.24383999E+03</rscale>
<asrwt>0</asrwt>
<pdfrwt beam="1">  1        2 0.25965239E-01 0.24383999E+03</pdfrwt>
<pdfrwt beam="2">  1       -2 0.97407985E-01 0.24383999E+03</pdfrwt>
<totfact> 0.18907960E+02</totfact>
</mgrwt>
</event>
<event>
 4    1  0.1033139E-008  0.1250087E+04  0.7818608E-02  0.9070111E-01
          2   -1    0    0  501    0  0.00000000000E+00  0.00000000000E+00  0.28832772888E+04  0.28832772888E+04  0.25500000000E-02 0. -1.
         -2   -1    0    0    0  501 -0.00000000000E+00 -0.00000000000E+00 -0.12344362412E+04  0.12344362412E+04  0.25500000000E-02 0.  1.
    8880022    1    1    2    0    0  0.32311288756E+03 -0.11978830080E+04 -0.71757730938E+03  0.14414001828E+04  0.15294330000E+03 0.  0.
    8880022    1    1    2    0    0 -0.32311288756E+03  0.11978830080E+04  0.23664183570E+04  0.26763133472E+04  0.15294330000E+03 0.  0.
<mgrwt>
<rscale>  0 0.12500869E+04</rscale>
<asrwt>0</asrwt>
<pdfrwt beam="1">  1        2 0.44358112E+00 0.12500869E+04</pdfrwt>
<pdfrwt beam="2">  1       -2 0.18991327E+00 0.12500869E+04</pdfrwt>
<totfact> 0.31093140E-01</totfact>
</mgrwt>
</event>
<event>
 4    1  0.1033139E-008  0.3202219E+03  0.7818608E-02  0.1075547E+00
          2   -1    0    0  501    0  0.00000000000E+00  0.00000000000E+00  0.88169667363E+03  0.88169667363E+03  0.25500000000E-02 0. -1.
         -2   -1    0    0    0  501 -0.00000000000E+00 -0.00000000000E+00 -0.24165333143E+03  0.24165333144E+03  0.25500000000E-02 0.  1.
    8880022    1    1    2    0    0 -0.25468640618E+03 -0.11952082564E+03  0.72455585113E+03  0.79216363694E+03  0.15294330000E+03 0. -1.
    8880022    1    1    2    0    0  0.25468640618E+03  0.11952082564E+03 -0.84512508939E+02  0.33118636814E+03  0.15294330000E+03 0.  0.
<mgrwt>
<rscale>  0 0.32022187E+03</rscale>
<asrwt>0</asrwt>
<pdfrwt beam="1">  1        2 0.13564564E+00 0.32022187E+03</pdfrwt>
<pdfrwt beam="2">  1       -2 0.37177436E-01 0.32022187E+03</pdfrwt>
<totfact> 0.21478246E+02</totfact>
</mgrwt>
</event>
<event>
 4    1  0.1033139E-008  0.6879932E+03  0.7818608E-02  0.9737989E-01
         -2   -1    0    0    0  501 -0.00000000000E+00  0.00000000000E+00  0.49922376817E+03  0.49922376818E+03  0.25500000000E-02 0.  1.
          2   -1    0    0  501    0  0.00000000000E+00 -0.00000000000E+00 -0.15214849991E+04  0.15214849991E+04  0.25500000000E-02 0. -1.
    8880022    1    1    2    0    0  0.67071328551E+03 -0.93077411645E+01 -0.11313530494E+04  0.13241202063E+04  0.15294330000E+03 0.  0.
    8880022    1    1    2    0    0 -0.67071328551E+03  0.93077411645E+01  0.10909181845E+03  0.69658856097E+03  0.15294330000E+03 0.  0.
<mgrwt>
<rscale>  0 0.68799317E+03</rscale>
<asrwt>0</asrwt>
<pdfrwt beam="1">  1        2 0.23407461E+00 0.68799317E+03</pdfrwt>
<pdfrwt beam="2">  1       -2 0.76803657E-01 0.68799317E+03</pdfrwt>
<totfact> 0.19306804E+01</totfact>
</mgrwt>
</event>
<event>
 4    1  0.1245866E-008  0.1109948E+04  0.7818608E-02  0.9195550E-01
         -2   -1    0    0    0  501 -0.00000000000E+00  0.00000000000E+00  0.17712348918E+04  0.17712348918E+04  0.25500000000E-02 0.  1.
          2   -1    0    0  501    0  0.00000000000E+00 -0.00000000000E+00 -0.20877021434E+04  0.20877021434E+04  0.25500000000E-02 0. -1.
    8880022    1    1    2    0    0  0.79938905354E+03 -0.75469893432E+03  0.14173684800E+04  0.18002550934E+04  0.15294330000E+03 0.  0.
    8880022    1    1    2    0    0 -0.79938905354E+03  0.75469893432E+03 -0.17338357315E+04  0.20586819417E+04  0.15294330000E+03 0. -1.
<mgrwt>
<rscale>  0 0.11099482E+04</rscale>
<asrwt>0</asrwt>
<pdfrwt beam="1">  1        2 0.32118494E+00 0.11099482E+04</pdfrwt>
<pdfrwt beam="2">  1       -2 0.27249768E+00 0.11099482E+04</pdfrwt>
<totfact> 0.27621906E-01</totfact>
</mgrwt>
</event>
<event>
 4    1  0.1033139E-008  0.6109171E+03  0.7818608E-02  0.9883012E-01
         -2   -1    0    0    0  501 -0.00000000000E+00  0.00000000000E+00  0.55931719797E+03  0.55931719798E+03  0.25500000000E-02 0.  1.
          2   -1    0    0  501    0  0.00000000000E+00 -0.00000000000E+00 -0.93620769204E+03  0.93620769204E+03  0.25500000000E-02 0. -1.
    8880022    1    1    2    0    0  0.50337745539E+03  0.31054660379E+03  0.21232680971E+03  0.64676300362E+03  0.15294330000E+03 0.  0.
    8880022    1    1    2    0    0 -0.50337745539E+03 -0.31054660379E+03 -0.58921730378E+03  0.84876188640E+03  0.15294330000E+03 0.  0.
<mgrwt>
<rscale>  0 0.61091710E+03</rscale>
<asrwt>0</asrwt>
<pdfrwt beam="1">  1        2 0.14403195E+00 0.61091710E+03</pdfrwt>
<pdfrwt beam="2">  1       -2 0.86048800E-01 0.61091710E+03</pdfrwt>
<totfact> 0.33456992E+01</totfact>
</mgrwt>
</event>
<event>
 4    1  0.1033139E-008  0.7528546E+03  0.7818608E-02  0.9630883E-01
         -2   -1    0    0    0  501 -0.00000000000E+00  0.00000000000E+00  0.45696769176E+03  0.45696769176E+03  0.25500000000E-02 0.  1.
          2   -1    0    0  501    0  0.00000000000E+00 -0.00000000000E+00 -0.26427758682E+04  0.26427758682E+04  0.25500000000E-02 0. -1.
    8880022    1    1    2    0    0 -0.57663622382E+03 -0.45922656253E+03 -0.22219429740E+04  0.23460222938E+04  0.15294330000E+03 0.  0.
    8880022    1    1    2    0    0  0.57663622382E+03  0.45922656253E+03  0.36134797607E+02  0.75372126610E+03  0.15294330000E+03 0.  0.
<mgrwt>
<rscale>  0 0.75285458E+03</rscale>
<asrwt>0</asrwt>
<pdfrwt beam="1">  1        2 0.40658089E+00 0.75285458E+03</pdfrwt>
<pdfrwt beam="2">  1       -2 0.70302723E-01 0.75285458E+03</pdfrwt>
<totfact> 0.55710180E+00</totfact>
</mgrwt>
</event>
<event>
 4    1  0.1033139E-008  0.8936710E+03  0.7818608E-02  0.9433528E-01
         -2   -1    0    0    0  501 -0.00000000000E+00  0.00000000000E+00  0.55618261939E+03  0.55618261939E+03  0.25500000000E-02 0.  1.
          2   -1    0    0  501    0  0.00000000000E+00 -0.00000000000E+00 -0.23475620160E+04  0.23475620160E+04  0.25500000000E-02 0. -1.
    8880022    1    1    2    0    0  0.73082442463E+03 -0.49107215991E+03  0.90549241663E+01  0.89371687382E+03  0.15294330000E+03 0.  0.
    8880022    1    1    2    0    0 -0.73082442463E+03  0.49107215991E+03 -0.18004343208E+04  0.20100277616E+04  0.15294330000E+03 0.  0.
<mgrwt>
<rscale>  0 0.89367100E+03</rscale>
<asrwt>0</asrwt>
<pdfrwt beam="1">  1        2 0.36116338E+00 0.89367100E+03</pdfrwt>
<pdfrwt beam="2">  1       -2 0.85566558E-01 0.89367100E+03</pdfrwt>
<totfact> 0.51651289E+00</totfact>
</mgrwt>
</event>
<event>
 4    1  0.1033139E-008  0.5300252E+03  0.7818608E-02  0.1006226E+00
          2   -1    0    0  501    0  0.00000000000E+00  0.00000000000E+00  0.14029832378E+04  0.14029832378E+04  0.25500000000E-02 0. -1.
         -2   -1    0    0    0  501 -0.00000000000E+00 -0.00000000000E+00 -0.13628449810E+04  0.13628449810E+04  0.25500000000E-02 0.  1.
    8880022    1    1    2    0    0  0.28866943881E+03  0.41737872611E+03 -0.12572192331E+04  0.13643778432E+04  0.15294330000E+03 0.  0.
    8880022    1    1    2    0    0 -0.28866943881E+03 -0.41737872611E+03  0.12973574899E+04  0.14014503757E+04  0.15294330000E+03 0. -1.
<mgrwt>
<rscale>  0 0.53002519E+03</rscale>
<asrwt>0</asrwt>
<pdfrwt beam="1">  1        2 0.21584358E+00 0.53002519E+03</pdfrwt>
<pdfrwt beam="2">  1       -2 0.20966846E+00 0.53002519E+03</pdfrwt>
<totfact> 0.17937399E+00</totfact>
</mgrwt>
</event>
<event>
 4    1  0.1033139E-008  0.4403225E+03  0.7818608E-02  0.1030648E+00
         -2   -1    0    0    0  501 -0.00000000000E+00  0.00000000000E+00  0.51150085996E+03  0.51150085996E+03  0.25500000000E-02 0.  1.
          2   -1    0    0  501    0  0.00000000000E+00 -0.00000000000E+00 -0.34706889956E+04  0.34706889956E+04  0.25500000000E-02 0. -1.
    8880022    1    1    2    0    0  0.17019589673E+03 -0.37619892622E+03  0.39963001656E+03  0.59463272572E+03  0.15294330000E+03 0.  0.
    8880022    1    1    2    0    0 -0.17019589673E+03  0.37619892622E+03 -0.33588181522E+04  0.33875571298E+04  0.15294330000E+03 0. -1.
<mgrwt>
<rscale>  0 0.44032253E+03</rscale>
<asrwt>0</asrwt>
<pdfrwt beam="1">  1        2 0.53395214E+00 0.44032253E+03</pdfrwt>
<pdfrwt beam="2">  1       -2 0.78692442E-01 0.44032253E+03</pdfrwt>
<totfact> 0.14599535E+00</totfact>
</mgrwt>
</event>
<event>
 4    1  0.1507404E-008  0.1188720E+04  0.7818608E-02  0.9122788E-01
          2   -1    0    0  501    0  0.00000000000E+00  0.00000000000E+00  0.23920377200E+04  0.23920377200E+04  0.25500000000E-02 0. -1.
         -2   -1    0    0    0  501 -0.00000000000E+00 -0.00000000000E+00 -0.16967449560E+04  0.16967449560E+04  0.25500000000E-02 0.  1.
    8880022    1    1    2    0    0  0.10109806378E+04  0.60628483531E+03  0.19982231438E+04  0.23250700069E+04  0.15294330000E+03 0.  0.
    8880022    1    1    2    0    0 -0.10109806378E+04 -0.60628483531E+03 -0.13029303798E+04  0.17637126691E+04  0.15294330000E+03 0.  0.
<mgrwt>
<rscale>  0 0.11887198E+04</rscale>
<asrwt>0</asrwt>
<pdfrwt beam="1">  1        2 0.36800580E+00 0.11887198E+04</pdfrwt>
<pdfrwt beam="2">  1       -2 0.26103769E+00 0.11887198E+04</pdfrwt>
<totfact> 0.21618185E-01</totfact>
</mgrwt>
</event>
<event>
 4    1  0.1033139E-008  0.8849301E+03  0.7818608E-02  0.9444618E-01
          2   -1    0    0  501    0  0.00000000000E+00  0.00000000000E+00  0.19007991648E+04  0.19007991648E+04  0.25500000000E-02 0. -1.
         -2   -1    0    0    0  501 -0.00000000000E+00 -0.00000000000E+00 -0.10681648244E+04  0.10681648244E+04  0.25500000000E-02 0.  1.
    8880022    1    1    2    0    0 -0.84596635449E+03  0.20988214579E+03 -0.74718486746E+03  0.11581823981E+04  0.15294330000E+03 0.  0.
    8880022    1    1    2    0    0  0.84596635449E+03 -0.20988214579E+03  0.15798192079E+04  0.18107815911E+04  0.15294330000E+03 0.  0.
<mgrwt>
<rscale>  0 0.88493008E+03</rscale>
<asrwt>0</asrwt>
<pdfrwt beam="1">  1        2 0.29243064E+00 0.88493008E+03</pdfrwt>
<pdfrwt beam="2">  1       -2 0.16433305E+00 0.88493008E+03</pdfrwt>
<totfact> 0.17993410E+00</totfact>
</mgrwt>
</event>
<event>
 4    1  0.1033139E-008  0.8389486E+03  0.7818608E-02  0.9505291E-01
         -2   -1    0    0    0  501 -0.00000000000E+00  0.00000000000E+00  0.38364947937E+03  0.38364947937E+03  0.25500000000E-02 0.  1.
          2   -1    0    0  501    0  0.00000000000E+00 -0.00000000000E+00 -0.25231337976E+04  0.25231337976E+04  0.25500000000E-02 0. -1.
    8880022    1    1    2    0    0 -0.50706931691E+03 -0.65063337595E+03 -0.31049667478E+03  0.89456297717E+03  0.15294330000E+03 0.  0.
    8880022    1    1    2    0    0  0.50706931691E+03  0.65063337595E+03 -0.18289876435E+04  0.20122202998E+04  0.15294330000E+03 0.  0.
<mgrwt>
<rscale>  0 0.83894859E+03</rscale>
<asrwt>0</asrwt>
<pdfrwt beam="1">  1        2 0.38817442E+00 0.83894859E+03</pdfrwt>
<pdfrwt beam="2">  1       -2 0.59022998E-01 0.83894859E+03</pdfrwt>
<totfact> 0.93634614E+00</totfact>
</mgrwt>
</event>
<event>
 4    1  0.1033139E-008  0.4884492E+03  0.7818608E-02  0.1016839E+00
          2   -1    0    0  501    0  0.00000000000E+00  0.00000000000E+00  0.50757249058E+03  0.50757249058E+03  0.25500000000E-02 0. -1.
         -2   -1    0    0    0  501 -0.00000000000E+00 -0.00000000000E+00 -0.11332264998E+04  0.11332264998E+04  0.25500000000E-02 0.  1.
    8880022    1    1    2    0    0 -0.11361432811E+03 -0.44975851005E+03 -0.94042679480E+03  0.10597099331E+04  0.15294330000E+03 0.  0.
    8880022    1    1    2    0    0  0.11361432811E+03  0.44975851005E+03  0.31477278560E+03  0.58108905727E+03  0.15294330000E+03 0.  0.
<mgrwt>
<rscale>  0 0.48844916E+03</rscale>
<asrwt>0</asrwt>
<pdfrwt beam="1">  1        2 0.78088076E-01 0.48844916E+03</pdfrwt>
<pdfrwt beam="2">  1       -2 0.17434254E+00 0.48844916E+03</pdfrwt>
<totfact> 0.12606251E+01</totfact>
</mgrwt>
</event>
<event>
 4    1  0.1033139E-008  0.7540035E+03  0.7818608E-02  0.9629090E-01
          2   -1    0    0  501    0  0.00000000000E+00  0.00000000000E+00  0.12147016888E+04  0.12147016888E+04  0.25500000000E-02 0. -1.
         -2   -1    0    0    0  501 -0.00000000000E+00 -0.00000000000E+00 -0.20322738385E+04  0.20322738385E+04  0.25500000000E-02 0.  1.
    8880022    1    1    2    0    0  0.76862004102E+02  0.73431729959E+03  0.10155406406E+04  0.12648494416E+04  0.15294330000E+03 0.  0.
    8880022    1    1    2    0    0 -0.76862004102E+02 -0.73431729959E+03 -0.18331127904E+04  0.19821260857E+04  0.15294330000E+03 0.  0.
<mgrwt>
<rscale>  0 0.75400353E+03</rscale>
<asrwt>0</asrwt>
<pdfrwt beam="1">  1        2 0.18687718E+00 0.75400353E+03</pdfrwt>
<pdfrwt beam="2">  1       -2 0.31265751E+00 0.75400353E+03</pdfrwt>
<totfact> 0.51893213E-01</totfact>
</mgrwt>
</event>
<event>
 4    1  0.1033139E-008  0.1352160E+04  0.7818608E-02  0.8989195E-01
         -2   -1    0    0    0  501 -0.00000000000E+00  0.00000000000E+00  0.12526634974E+04  0.12526634974E+04  0.25500000000E-02 0.  1.
          2   -1    0    0  501    0  0.00000000000E+00 -0.00000000000E+00 -0.14877538544E+04  0.14877538544E+04  0.25500000000E-02 0. -1.
    8880022    1    1    2    0    0 -0.30254972909E+03  0.13089724285E+04  0.71081383572E+02  0.13540270947E+04  0.15294330000E+03 0.  0.
    8880022    1    1    2    0    0  0.30254972909E+03 -0.13089724285E+04 -0.30617174056E+03  0.13863902570E+04  0.15294330000E+03 0.  0.
<mgrwt>
<rscale>  0 0.13521601E+04</rscale>
<asrwt>0</asrwt>
<pdfrwt beam="1">  1        2 0.22888521E+00 0.13521601E+04</pdfrwt>
<pdfrwt beam="2">  1       -2 0.19271746E+00 0.13521601E+04</pdfrwt>
<totfact> 0.18317911E+00</totfact>
</mgrwt>
</event>
<event>
 4    1  0.1033139E-008  0.1231459E+04  0.7818608E-02  0.9085758E-01
          2   -1    0    0  501    0  0.00000000000E+00  0.00000000000E+00  0.21193983229E+04  0.21193983229E+04  0.25500000000E-02 0. -1.
         -2   -1    0    0    0  501 -0.00000000000E+00 -0.00000000000E+00 -0.11313340183E+04  0.11313340183E+04  0.25500000000E-02 0.  1.
    8880022    1    1    2    0    0 -0.11048910940E+04  0.52183814883E+03 -0.49134080285E+03  0.13258607848E+04  0.15294330000E+03 0.  0.
    8880022    1    1    2    0    0  0.11048910940E+04 -0.52183814883E+03  0.14794051075E+04  0.19248715563E+04  0.15294330000E+03 0.  0.
<mgrwt>
<rscale>  0 0.12314589E+04</rscale>
<asrwt>0</asrwt>
<pdfrwt beam="1">  1        2 0.32606127E+00 0.12314589E+04</pdfrwt>
<pdfrwt beam="2">  1       -2 0.17405139E+00 0.12314589E+04</pdfrwt>
<totfact> 0.11079658E+00</totfact>
</mgrwt>
</event>
<event>
 4    1  0.1033139E-008  0.4632503E+03  0.7818608E-02  0.1023843E+00
          2   -1    0    0  501    0  0.00000000000E+00  0.00000000000E+00  0.95274675305E+03  0.95274675305E+03  0.25500000000E-02 0. -1.
         -2   -1    0    0    0  501 -0.00000000000E+00 -0.00000000000E+00 -0.32914530205E+03  0.32914530206E+03  0.25500000000E-02 0.  1.
    8880022    1    1    2    0    0 -0.27360039435E+03 -0.34110407937E+03 -0.48311110929E+02  0.46576258459E+03  0.15294330000E+03 0.  0.
    8880022    1    1    2    0    0  0.27360039435E+03  0.34110407937E+03  0.67191256193E+03  0.81612947052E+03  0.15294330000E+03 0.  0.
<mgrwt>
<rscale>  0 0.46325028E+03</rscale>
<asrwt>0</asrwt>
<pdfrwt beam="1">  1        2 0.14657642E+00 0.46325028E+03</pdfrwt>
<pdfrwt beam="2">  1       -2 0.50637740E-01 0.46325028E+03</pdfrwt>
<totfact> 0.10363122E+02</totfact>
</mgrwt>
</event>
<event>
 4    1  0.1033198E-008  0.9113913E+03  0.7818608E-02  0.9411453E-01
          2   -1    0    0  501    0  0.00000000000E+00  0.00000000000E+00  0.21071915640E+04  0.21071915640E+04  0.25500000000E-02 0. -1.
         -2   -1    0    0    0  501 -0.00000000000E+00 -0.00000000000E+00 -0.10154809280E+04  0.10154809280E+04  0.25500000000E-02 0.  1.
    8880022    1    1    2    0    0  0.89526867370E+03  0.75739161267E+02 -0.67540437685E+03  0.11343743403E+04  0.15294330000E+03 0.  0.
    8880022    1    1    2    0    0 -0.89526867370E+03 -0.75739161267E+02  0.17671150128E+04  0.19882981517E+04  0.15294330000E+03 0.  0.
<mgrwt>
<rscale>  0 0.91139128E+03</rscale>
<asrwt>0</asrwt>
<pdfrwt beam="1">  1        2 0.32418331E+00 0.91139128E+03</pdfrwt>
<pdfrwt beam="2">  1       -2 0.15622784E+00 0.91139128E+03</pdfrwt>
<totfact> 0.15840065E+00</totfact>
</mgrwt>
</event>
<event>
 4    1  0.1033139E-008  0.1063927E+04  0.7818608E-02  0.9241082E-01
          2   -1    0    0  501    0  0.00000000000E+00  0.00000000000E+00  0.26905637458E+04  0.26905637458E+04  0.25500000000E-02 0. -1.
         -2   -1    0    0    0  501 -0.00000000000E+00 -0.00000000000E+00 -0.10812594462E+04  0.10812594462E+04  0.25500000000E-02 0.  1.
    8880022    1    1    2    0    0  0.41902457502E+03  0.96590215916E+03 -0.66938991202E+03  0.12569896908E+04  0.15294330000E+03 0.  0.
    8880022    1    1    2    0    0 -0.41902457502E+03 -0.96590215916E+03  0.22786942116E+04  0.25148335012E+04  0.15294330000E+03 0.  0.
<mgrwt>
<rscale>  0 0.10639268E+04</rscale>
<asrwt>0</asrwt>
<pdfrwt beam="1">  1        2 0.41393288E+00 0.10639268E+04</pdfrwt>
<pdfrwt beam="2">  1       -2 0.16634761E+00 0.10639268E+04</pdfrwt>
<totfact> 0.60834796E-01</totfact>
</mgrwt>
</event>
<event>
 4    1  0.1190527E-008  0.1130042E+04  0.7818608E-02  0.9176396E-01
         -2   -1    0    0    0  501 -0.00000000000E+00  0.00000000000E+00  0.18538460248E+04  0.18538460248E+04  0.25500000000E-02 0.  1.
          2   -1    0    0  501    0  0.00000000000E+00 -0.00000000000E+00 -0.18956903144E+04  0.18956903144E+04  0.25500000000E-02 0. -1.
    8880022    1    1    2    0    0 -0.98763126291E+03  0.52743495439E+03 -0.15167837141E+04  0.18914617709E+04  0.15294330000E+03 0.  0.
    8880022    1    1    2    0    0  0.98763126291E+03 -0.52743495439E+03  0.14749394245E+04  0.18580745683E+04  0.15294330000E+03 0.  0.
<mgrwt>
<rscale>  0 0.11300419E+04</rscale>
<asrwt>0</asrwt>
<pdfrwt beam="1">  1        2 0.29164466E+00 0.11300419E+04</pdfrwt>
<pdfrwt beam="2">  1       -2 0.28520708E+00 0.11300419E+04</pdfrwt>
<totfact> 0.29449725E-01</totfact>
</mgrwt>
</event>
<event>
 4    1  0.1033139E-008  0.3566327E+03  0.7818608E-02  0.1059925E+00
          2   -1    0    0  501    0  0.00000000000E+00  0.00000000000E+00  0.18558694776E+04  0.18558694776E+04  0.25500000000E-02 0. -1.
         -2   -1    0    0    0  501 -0.00000000000E+00 -0.00000000000E+00 -0.19903847164E+03  0.19903847166E+03  0.25500000000E-02 0.  1.
    8880022    1    1    2    0    0 -0.14759888824E+03 -0.28637349098E+03 -0.35580390032E+01  0.35665041820E+03  0.15294330000E+03 0.  1.
    8880022    1    1    2    0    0  0.14759888824E+03  0.28637349098E+03  0.16603890450E+04  0.16982575311E+04  0.15294330000E+03 0.  0.
<mgrwt>
<rscale>  0 0.35663267E+03</rscale>
<asrwt>0</asrwt>
<pdfrwt beam="1">  1        2 0.28551839E+00 0.35663267E+03</pdfrwt>
<pdfrwt beam="2">  1       -2 0.30621302E-01 0.35663267E+03</pdfrwt>
<totfact> 0.86160493E+01</totfact>
</mgrwt>
</event>
<event>
 4    1  0.1033139E-008  0.3041078E+03  0.7818608E-02  0.1083205E+00
          2   -1    0    0  501    0  0.00000000000E+00  0.00000000000E+00  0.80318953271E+03  0.80318953271E+03  0.25500000000E-02 0. -1.
         -2   -1    0    0    0  501 -0.00000000000E+00 -0.00000000000E+00 -0.22594224271E+04  0.22594224271E+04  0.25500000000E-02 0.  1.
    8880022    1    1    2    0    0  0.23724629979E+03 -0.11315512697E+03 -0.22198936435E+04  0.22406269951E+04  0.15294330000E+03 0.  0.
    8880022    1    1    2    0    0 -0.23724629979E+03  0.11315512697E+03  0.76366074911E+03  0.82198496475E+03  0.15294330000E+03 0. -1.
<mgrwt>
<rscale>  0 0.30410778E+03</rscale>
<asrwt>0</asrwt>
<pdfrwt beam="1">  1        2 0.12356762E+00 0.30410778E+03</pdfrwt>
<pdfrwt beam="2">  1       -2 0.34760345E+00 0.30410778E+03</pdfrwt>
<totfact> 0.67077528E-01</totfact>
</mgrwt>
</event>
<event>
 4    1  0.1033139E-008  0.4870324E+03  0.7818608E-02  0.1017220E+00
         -2   -1    0    0    0  501 -0.00000000000E+00  0.00000000000E+00  0.70185425473E+03  0.70185425474E+03  0.25500000000E-02 0.  1.
          2   -1    0    0  501    0  0.00000000000E+00 -0.00000000000E+00 -0.16765542587E+04  0.16765542587E+04  0.25500000000E-02 0. -1.
    8880022    1    1    2    0    0  0.36721650767E+03 -0.28099991065E+03 -0.15499545926E+04  0.16246722148E+04  0.15294330000E+03 0.  0.
    8880022    1    1    2    0    0 -0.36721650767E+03  0.28099991065E+03  0.57525458859E+03  0.75373629871E+03  0.15294330000E+03 0.  0.
<mgrwt>
<rscale>  0 0.48703241E+03</rscale>
<asrwt>0</asrwt>
<pdfrwt beam="1">  1        2 0.25793142E+00 0.48703241E+03</pdfrwt>
<pdfrwt beam="2">  1       -2 0.10797758E+00 0.48703241E+03</pdfrwt>
<totfact> 0.74972668E+00</totfact>
</mgrwt>
</event>
<event>
 4    1  0.1033139E-008  0.4758926E+03  0.7818608E-02  0.1020270E+00
         -2   -1    0    0    0  501 -0.00000000000E+00  0.00000000000E+00  0.56635281817E+03  0.56635281818E+03  0.25500000000E-02 0.  1.
          2   -1    0    0  501    0  0.00000000000E+00 -0.00000000000E+00 -0.49367214437E+03  0.49367214437E+03  0.25500000000E-02 0. -1.
    8880022    1    1    2    0    0 -0.33534747002E+03  0.30103849974E+03 -0.19467860900E+03  0.51417265368E+03  0.15294330000E+03 0. -1.
    8880022    1    1    2    0    0  0.33534747002E+03 -0.30103849974E+03  0.26735928280E+03  0.54585230887E+03  0.15294330000E+03 0.  0.
<mgrwt>
<rscale>  0 0.47589259E+03</rscale>
<asrwt>0</asrwt>
<pdfrwt beam="1">  1        2 0.75949561E-01 0.47589259E+03</pdfrwt>
<pdfrwt beam="2">  1       -2 0.87131202E-01 0.47589259E+03</pdfrwt>
<totfact> 0.73419887E+01</totfact>
</mgrwt>
</event>
<event>
 4    1  0.1323328E-008  0.1155588E+04  0.7818608E-02  0.9152644E-01
         -2   -1    0    0    0  501 -0.00000000000E+00  0.00000000000E+00  0.22721594555E+04  0.22721594555E+04  0.25500000000E-02 0.  1.
          2   -1    0    0  501    0  0.00000000000E+00 -0.00000000000E+00 -0.18212384353E+04  0.18212384353E+04  0.25500000000E-02 0. -1.
    8880022    1    1    2    0    0 -0.86807741416E+03 -0.74728397351E+03  0.19098563972E+04  0.22322488313E+04  0.15294330000E+03 0.  0.
    8880022    1    1    2    0    0  0.86807741416E+03  0.74728397351E+03 -0.14589353770E+04  0.18611490594E+04  0.15294330000E+03 0.  0.
<mgrwt>
<rscale>  0 0.11555879E+04</rscale>
<asrwt>0</asrwt>
<pdfrwt beam="1">  1        2 0.28019053E+00 0.11555879E+04</pdfrwt>
<pdfrwt beam="2">  1       -2 0.34956299E+00 0.11555879E+04</pdfrwt>
<totfact> 0.12987565E-01</totfact>
</mgrwt>
</event>
<event>
 4    1  0.1033139E-008  0.5740690E+03  0.7818608E-02  0.9960715E-01
          2   -1    0    0  501    0  0.00000000000E+00  0.00000000000E+00  0.25844405901E+04  0.25844405901E+04  0.25500000000E-02 0. -1.
         -2   -1    0    0    0  501 -0.00000000000E+00 -0.00000000000E+00 -0.11401678981E+04  0.11401678981E+04  0.25500000000E-02 0.  1.
    8880022    1    1    2    0    0  0.71005991458E+02  0.54874559413E+03 -0.10329420059E+04  0.11817463427E+04  0.15294330000E+03 0.  0.
    8880022    1    1    2    0    0 -0.71005991458E+02 -0.54874559413E+03  0.24772146979E+04  0.25428621454E+04  0.15294330000E+03 0.  0.
<mgrwt>
<rscale>  0 0.57406901E+03</rscale>
<asrwt>0</asrwt>
<pdfrwt beam="1">  1        2 0.39760625E+00 0.57406901E+03</pdfrwt>
<pdfrwt beam="2">  1       -2 0.17541045E+00 0.57406901E+03</pdfrwt>
<totfact> 0.67174077E-01</totfact>
</mgrwt>
</event>
<event>
 4    1  0.1033139E-008  0.5538762E+03  0.7818608E-02  0.1000601E+00
          2   -1    0    0  501    0  0.00000000000E+00  0.00000000000E+00  0.88275591910E+03  0.88275591910E+03  0.25500000000E-02 0. -1.
         -2   -1    0    0    0  501 -0.00000000000E+00 -0.00000000000E+00 -0.85698243471E+03  0.85698243471E+03  0.25500000000E-02 0.  1.
    8880022    1    1    2    0    0  0.48456735319E+03  0.22041242674E+03 -0.65780411822E+03  0.85993317683E+03  0.15294330000E+03 0.  0.
    8880022    1    1    2    0    0 -0.48456735319E+03 -0.22041242674E+03  0.68357760261E+03  0.87980517699E+03  0.15294330000E+03 0.  0.
<mgrwt>
<rscale>  0 0.55387617E+03</rscale>
<asrwt>0</asrwt>
<pdfrwt beam="1">  1        2 0.13580860E+00 0.55387617E+03</pdfrwt>
<pdfrwt beam="2">  1       -2 0.13184345E+00 0.55387617E+03</pdfrwt>
<totfact> 0.13151666E+01</totfact>
</mgrwt>
</event>
<event>
 4    1  0.1033139E-008  0.1122999E+04  0.7818608E-02  0.9183061E-01
         -2   -1    0    0    0  501 -0.00000000000E+00  0.00000000000E+00  0.11523000903E+04  0.11523000903E+04  0.25500000000E-02 0.  1.
          2   -1    0    0  501    0  0.00000000000E+00 -0.00000000000E+00 -0.19776187749E+04  0.19776187749E+04  0.25500000000E-02 0. -1.
    8880022    1    1    2    0    0 -0.73503156831E+03 -0.83514289648E+03 -0.14584755804E+04  0.18407275018E+04  0.15294330000E+03 0.  0.
    8880022    1    1    2    0    0  0.73503156831E+03  0.83514289648E+03  0.63315689577E+03  0.12891913635E+04  0.15294330000E+03 0.  0.
<mgrwt>
<rscale>  0 0.11229990E+04</rscale>
<asrwt>0</asrwt>
<pdfrwt beam="1">  1        2 0.30424904E+00 0.11229990E+04</pdfrwt>
<pdfrwt beam="2">  1       -2 0.17727694E+00 0.11229990E+04</pdfrwt>
<totfact> 0.12774063E+00</totfact>
</mgrwt>
</event>
<event>
 4    1  0.1033139E-008  0.6202299E+03  0.7818608E-02  0.9864302E-01
          2   -1    0    0  501    0  0.00000000000E+00  0.00000000000E+00  0.15411841297E+04  0.15411841297E+04  0.25500000000E-02 0. -1.
         -2   -1    0    0    0  501 -0.00000000000E+00 -0.00000000000E+00 -0.25481341104E+03  0.25481341106E+03  0.25500000000E-02 0.  1.
    8880022    1    1    2    0    0  0.43095264774E+03 -0.41901465042E+03  0.77158841984E+03  0.98996656737E+03  0.15294330000E+03 0.  0.
    8880022    1    1    2    0    0 -0.43095264774E+03  0.41901465042E+03  0.51478229879E+03  0.80603097337E+03  0.15294330000E+03 0.  0.
<mgrwt>
<rscale>  0 0.62022989E+03</rscale>
<asrwt>0</asrwt>
<pdfrwt beam="1">  1        2 0.23710525E+00 0.62022989E+03</pdfrwt>
<pdfrwt beam="2">  1       -2 0.39202064E-01 0.62022989E+03</pdfrwt>
<totfact> 0.76589822E+01</totfact>
</mgrwt>
</event>
<event>
 4    1  0.1033139E-008  0.8007141E+03  0.7818608E-02  0.9558984E-01
          2   -1    0    0  501    0  0.00000000000E+00  0.00000000000E+00  0.42053434570E+04  0.42053434570E+04  0.25500000000E-02 0. -1.
         -2   -1    0    0    0  501 -0.00000000000E+00 -0.00000000000E+00 -0.19877976938E+03  0.19877976940E+03  0.25500000000E-02 0.  1.
    8880022    1    1    2    0    0  0.28710140284E+03 -0.73165852101E+03  0.94028839884E+03  0.12350244260E+04  0.15294330000E+03 0.  0.
    8880022    1    1    2    0    0 -0.28710140284E+03  0.73165852101E+03  0.30662752888E+04  0.31690988004E+04  0.15294330000E+03 0.  0.
<mgrwt>
<rscale>  0 0.80071409E+03</rscale>
<asrwt>0</asrwt>
<pdfrwt beam="1">  1        2 0.64697591E+00 0.80071409E+03</pdfrwt>
<pdfrwt beam="2">  1       -2 0.30581503E-01 0.80071409E+03</pdfrwt>
<totfact> 0.25140916E+00</totfact>
</mgrwt>
</event>
<event>
 4    1  0.1033139E-008  0.8340548E+03  0.7818608E-02  0.9511991E-01
          2   -1    0    0  501    0  0.00000000000E+00  0.00000000000E+00  0.10278564178E+04  0.10278564178E+04  0.25500000000E-02 0. -1.
         -2   -1    0    0    0  501 -0.00000000000E+00 -0.00000000000E+00 -0.10160553016E+04  0.10160553016E+04  0.25500000000E-02 0.  1.
    8880022    1    1    2    0    0  0.81861937692E+03  0.46022728387E+02  0.59642842279E+03  0.10253654433E+04  0.15294330000E+03 0.  0.
    8880022    1    1    2    0    0 -0.81861937692E+03 -0.46022728387E+02 -0.58462730664E+03  0.10185462761E+04  0.15294330000E+03 0.  0.
<mgrwt>
<rscale>  0 0.83405481E+03</rscale>
<asrwt>0</asrwt>
<pdfrwt beam="1">  1        2 0.15813176E+00 0.83405481E+03</pdfrwt>
<pdfrwt beam="2">  1       -2 0.15631620E+00 0.83405481E+03</pdfrwt>
<totfact> 0.65441451E+00</totfact>
</mgrwt>
</event>
<event>
 4    1  0.1033139E-008  0.2501295E+03  0.7818608E-02  0.1113223E+00
          2   -1    0    0  501    0  0.00000000000E+00  0.00000000000E+00  0.53516571094E+03  0.53516571095E+03  0.25500000000E-02 0. -1.
         -2   -1    0    0    0  501 -0.00000000000E+00 -0.00000000000E+00 -0.69408989620E+03  0.69408989620E+03  0.25500000000E-02 0.  1.
    8880022    1    1    2    0    0 -0.11403103049E+03 -0.16177154580E+03  0.48101899952E+03  0.54216606299E+03  0.15294330000E+03 0. -1.
    8880022    1    1    2    0    0  0.11403103049E+03  0.16177154580E+03 -0.63994318477E+03  0.68708954416E+03  0.15294330000E+03 0.  0.
<mgrwt>
<rscale>  0 0.25012949E+03</rscale>
<asrwt>0</asrwt>
<pdfrwt beam="1">  1        2 0.82333186E-01 0.25012949E+03</pdfrwt>
<pdfrwt beam="2">  1       -2 0.10678306E+00 0.25012949E+03</pdfrwt>
<totfact> 0.43065079E+01</totfact>
</mgrwt>
</event>
<event>
 4    1  0.1104870E-008  0.9951473E+03  0.7818608E-02  0.9313883E-01
         -2   -1    0    0    0  501 -0.00000000000E+00  0.00000000000E+00  0.20031669359E+04  0.20031669359E+04  0.25500000000E-02 0.  1.
          2   -1    0    0  501    0  0.00000000000E+00 -0.00000000000E+00 -0.15844829332E+04  0.15844829332E+04  0.25500000000E-02 0. -1.
    8880022    1    1    2    0    0 -0.91851183911E+03 -0.35108764955E+03 -0.12785478161E+04  0.16201860101E+04  0.15294330000E+03 0.  0.
    8880022    1    1    2    0    0  0.91851183911E+03  0.35108764955E+03  0.16972318189E+04  0.19674638590E+04  0.15294330000E+03 0.  0.
<mgrwt>
<rscale>  0 0.99514732E+03</rscale>
<asrwt>0</asrwt>
<pdfrwt beam="1">  1        2 0.24376661E+00 0.99514732E+03</pdfrwt>
<pdfrwt beam="2">  1       -2 0.30817953E+00 0.99514732E+03</pdfrwt>
<totfact> 0.32474648E-01</totfact>
</mgrwt>
</event>
<event>
 4    1  0.1033139E-008  0.8610438E+03  0.7818608E-02  0.9475633E-01
         -2   -1    0    0    0  501 -0.00000000000E+00  0.00000000000E+00  0.23964388457E+04  0.23964388457E+04  0.25500000000E-02 0.  1.
          2   -1    0    0  501    0  0.00000000000E+00 -0.00000000000E+00 -0.13280306993E+04  0.13280306993E+04  0.25500000000E-02 0. -1.
    8880022    1    1    2    0    0 -0.47717469199E+03 -0.70022068156E+03 -0.10967594777E+04  0.13943735850E+04  0.15294330000E+03 0.  0.
    8880022    1    1    2    0    0  0.47717469199E+03  0.70022068156E+03  0.21651676241E+04  0.23300959600E+04  0.15294330000E+03 0.  0.
<mgrwt>
<rscale>  0 0.86104375E+03</rscale>
<asrwt>0</asrwt>
<pdfrwt beam="1">  1        2 0.20431242E+00 0.86104375E+03</pdfrwt>
<pdfrwt beam="2">  1       -2 0.36868289E+00 0.86104375E+03</pdfrwt>
<totfact> 0.19636520E-01</totfact>
</mgrwt>
</event>
<event>
 4    1  0.1033139E-008  0.1424015E+04  0.7818608E-02  0.8936617E-01
          2   -1    0    0  501    0  0.00000000000E+00  0.00000000000E+00  0.12922013636E+04  0.12922013636E+04  0.25500000000E-02 0. -1.
         -2   -1    0    0    0  501 -0.00000000000E+00 -0.00000000000E+00 -0.18036971746E+04  0.18036971746E+04  0.25500000000E-02 0.  1.
    8880022    1    1    2    0    0 -0.32679189708E+03 -0.13775460133E+04  0.30230511060E+03  0.14557492901E+04  0.15294330000E+03 0.  0.
    8880022    1    1    2    0    0  0.32679189708E+03  0.13775460133E+04 -0.81380092160E+03  0.16401492480E+04  0.15294330000E+03 0.  0.
<mgrwt>
<rscale>  0 0.14240146E+04</rscale>
<asrwt>0</asrwt>
<pdfrwt beam="1">  1        2 0.19880021E+00 0.14240146E+04</pdfrwt>
<pdfrwt beam="2">  1       -2 0.27749187E+00 0.14240146E+04</pdfrwt>
<totfact> 0.69236603E-01</totfact>
</mgrwt>
</event>
<event>
 4    1  0.1033139E-008  0.5091009E+03  0.7818608E-02  0.1011430E+00
          2   -1    0    0  501    0  0.00000000000E+00  0.00000000000E+00  0.11414527645E+04  0.11414527645E+04  0.25500000000E-02 0. -1.
         -2   -1    0    0    0  501 -0.00000000000E+00 -0.00000000000E+00 -0.55881294566E+03  0.55881294567E+03  0.25500000000E-02 0.  1.
    8880022    1    1    2    0    0  0.76283438838E+02 -0.47955488136E+03 -0.36370504907E+03  0.62567168948E+03  0.15294330000E+03 0.  0.
    8880022    1    1    2    0    0 -0.76283438838E+02  0.47955488136E+03  0.94634486796E+03  0.10745940207E+04  0.15294330000E+03 0.  0.
<mgrwt>
<rscale>  0 0.50910087E+03</rscale>
<asrwt>0</asrwt>
<pdfrwt beam="1">  1        2 0.17560812E+00 0.50910087E+03</pdfrwt>
<pdfrwt beam="2">  1       -2 0.85971224E-01 0.50910087E+03</pdfrwt>
<totfact> 0.25329020E+01</totfact>
</mgrwt>
</event>
<event>
 4    1  0.1033139E-008  0.1466217E+04  0.7818608E-02  0.8907235E-01
         -2   -1    0    0    0  501 -0.00000000000E+00  0.00000000000E+00  0.14902800005E+04  0.14902800005E+04  0.25500000000E-02 0.  1.
          2   -1    0    0  501    0  0.00000000000E+00 -0.00000000000E+00 -0.15745442374E+04  0.15745442374E+04  0.25500000000E-02 0. -1.
    8880022    1    1    2    0    0  0.11696459283E+03 -0.14535194592E+04  0.40156757388E+03  0.15202130455E+04  0.15294330000E+03 0.  0.
    8880022    1    1    2    0    0 -0.11696459283E+03  0.14535194592E+04 -0.48583181073E+03  0.15446111924E+04  0.15294330000E+03 0.  0.
<mgrwt>
<rscale>  0 0.14662166E+04</rscale>
<asrwt>0</asrwt>
<pdfrwt beam="1">  1        2 0.24223758E+00 0.14662166E+04</pdfrwt>
<pdfrwt beam="2">  1       -2 0.22927385E+00 0.14662166E+04</pdfrwt>
<totfact> 0.93921810E-01</totfact>
</mgrwt>
</event>
<event>
 4    1  0.1033139E-008  0.1031812E+04  0.7818608E-02  0.9274326E-01
         -2   -1    0    0    0  501 -0.00000000000E+00  0.00000000000E+00  0.73532562774E+03  0.73532562775E+03  0.25500000000E-02 0.  1.
          2   -1    0    0  501    0  0.00000000000E+00 -0.00000000000E+00 -0.23403035684E+04  0.23403035684E+04  0.25500000000E-02 0. -1.
    8880022    1    1    2    0    0  0.10174214673E+04 -0.78094147885E+02 -0.17521358798E+04  0.20333757480E+04  0.15294330000E+03 0.  0.
    8880022    1    1    2    0    0 -0.10174214673E+04  0.78094147885E+02  0.14715793922E+03  0.10422534481E+04  0.15294330000E+03 0.  0.
<mgrwt>
<rscale>  0 0.10318124E+04</rscale>
<asrwt>0</asrwt>
<pdfrwt beam="1">  1        2 0.36004670E+00 0.10318124E+04</pdfrwt>
<pdfrwt beam="2">  1       -2 0.11312702E+00 0.10318124E+04</pdfrwt>
<totfact> 0.26403506E+00</totfact>
</mgrwt>
</event>
<event>
 4    1  0.1033139E-008  0.7750125E+03  0.7818608E-02  0.9596907E-01
         -2   -1    0    0    0  501 -0.00000000000E+00  0.00000000000E+00  0.37630354749E+03  0.37630354750E+03  0.25500000000E-02 0.  1.
          2   -1    0    0  501    0  0.00000000000E+00 -0.00000000000E+00 -0.41505144238E+04  0.41505144238E+04  0.25500000000E-02 0. -1.
    8880022    1    1    2    0    0 -0.66253830294E+03 -0.37188141047E+03 -0.11147819850E+03  0.78298903445E+03  0.15294330000E+03 0.  0.
    8880022    1    1    2    0    0  0.66253830294E+03  0.37188141047E+03 -0.36627326778E+04  0.37438289369E+04  0.15294330000E+03 0.  0.
<mgrwt>
<rscale>  0 0.77501254E+03</rscale>
<asrwt>0</asrwt>
<pdfrwt beam="1">  1        2 0.63854065E+00 0.77501254E+03</pdfrwt>
<pdfrwt beam="2">  1       -2 0.57892856E-01 0.77501254E+03</pdfrwt>
<totfact> 0.79793600E-01</totfact>
</mgrwt>
</event>
<event>
 4    1  0.1033139E-008  0.1034154E+04  0.7818608E-02  0.9271859E-01
          2   -1    0    0  501    0  0.00000000000E+00  0.00000000000E+00  0.15559954447E+04  0.15559954447E+04  0.25500000000E-02 0. -1.
         -2   -1    0    0    0  501 -0.00000000000E+00 -0.00000000000E+00 -0.12334300029E+04  0.12334300029E+04  0.25500000000E-02 0.  1.
    8880022    1    1    2    0    0 -0.95420492287E+02 -0.10183209216E+04  0.10893205401E+04  0.15020297806E+04  0.15294330000E+03 0.  0.
    8880022    1    1    2    0    0  0.95420492287E+02  0.10183209216E+04 -0.76675509831E+03  0.12873956670E+04  0.15294330000E+03 0.  0.
<mgrwt>
<rscale>  0 0.10341539E+04</rscale>
<asrwt>0</asrwt>
<pdfrwt beam="1">  1        2 0.23938391E+00 0.10341539E+04</pdfrwt>
<pdfrwt beam="2">  1       -2 0.18975846E+00 0.10341539E+04</pdfrwt>
<totfact> 0.18164825E+00</totfact>
</mgrwt>
</event>
<event>
 4    1  0.1033139E-008  0.2954668E+03  0.7818608E-02  0.1087529E+00
         -2   -1    0    0    0  501 -0.00000000000E+00  0.00000000000E+00  0.10546013088E+04  0.10546013088E+04  0.25500000000E-02 0.  1.
          2   -1    0    0  501    0  0.00000000000E+00 -0.00000000000E+00 -0.46005254797E+03  0.46005254798E+03  0.25500000000E-02 0. -1.
    8880022    1    1    2    0    0  0.48829184627E+02  0.24804172185E+03 -0.38854045738E+03  0.48812326833E+03  0.15294330000E+03 0.  0.
    8880022    1    1    2    0    0 -0.48829184627E+02 -0.24804172185E+03  0.98308921818E+03  0.10265305884E+04  0.15294330000E+03 0.  1.
<mgrwt>
<rscale>  0 0.29546681E+03</rscale>
<asrwt>0</asrwt>
<pdfrwt beam="1">  1        2 0.70777316E-01 0.29546681E+03</pdfrwt>
<pdfrwt beam="2">  1       -2 0.16224635E+00 0.29546681E+03</pdfrwt>
<totfact> 0.17755568E+01</totfact>
</mgrwt>
</event>
<event>
 4    1  0.1033139E-008  0.1763887E+03  0.7818608E-02  0.1171345E+00
          2   -1    0    0  501    0  0.00000000000E+00  0.00000000000E+00  0.12395972741E+04  0.12395972741E+04  0.25500000000E-02 0. -1.
         -2   -1    0    0    0  501 -0.00000000000E+00 -0.00000000000E+00 -0.37226203036E+02  0.37226203123E+02  0.25500000000E-02 0.  1.
    8880022    1    1    2    0    0 -0.29192606289E+02  0.82880058243E+02  0.23680741484E+03  0.29528074278E+03  0.15294330000E+03 0.  0.
    8880022    1    1    2    0    0  0.29192606289E+02 -0.82880058243E+02  0.96556365619E+03  0.98154273441E+03  0.15294330000E+03 0.  0.
<mgrwt>
<rscale>  0 0.17638868E+03</rscale>
<asrwt>0</asrwt>
<pdfrwt beam="1">  1        2 0.19070723E+00 0.17638868E+03</pdfrwt>
<pdfrwt beam="2">  1       -2 0.57271096E-02 0.17638868E+03</pdfrwt>
<totfact> 0.29997730E+03</totfact>
</mgrwt>
</event>
<event>
 4    1  0.1033139E-008  0.7493642E+03  0.7818608E-02  0.9636348E-01
          2   -1    0    0  501    0  0.00000000000E+00  0.00000000000E+00  0.12748942292E+04  0.12748942292E+04  0.25500000000E-02 0. -1.
         -2   -1    0    0    0  501 -0.00000000000E+00 -0.00000000000E+00 -0.46094381481E+03  0.46094381482E+03  0.25500000000E-02 0.  1.
    8880022    1    1    2    0    0 -0.10428711683E+03 -0.72613994516E+03  0.22403701433E+03  0.78213762184E+03  0.15294330000E+03 0.  0.
    8880022    1    1    2    0    0  0.10428711683E+03  0.72613994516E+03  0.58991340008E+03  0.95370042220E+03  0.15294330000E+03 0.  0.
<mgrwt>
<rscale>  0 0.74936418E+03</rscale>
<asrwt>0</asrwt>
<pdfrwt beam="1">  1        2 0.19613757E+00 0.74936418E+03</pdfrwt>
<pdfrwt beam="2">  1       -2 0.70914433E-01 0.74936418E+03</pdfrwt>
<totfact> 0.31507509E+01</totfact>
</mgrwt>
</event>
<event>
 4    1  0.1033139E-008  0.9808267E+03  0.7818608E-02  0.9329827E-01
          2   -1    0    0  501    0  0.00000000000E+00  0.00000000000E+00  0.18687661241E+04  0.18687661241E+04  0.25500000000E-02 0. -1.
         -2   -1    0    0    0  501 -0.00000000000E+00 -0.00000000000E+00 -0.79996554295E+03  0.79996554296E+03  0.25500000000E-02 0.  1.
    8880022    1    1    2    0    0 -0.67998554647E+03  0.69010795235E+03  0.13311022259E+04  0.16534370620E+04  0.15294330000E+03 0.  0.
    8880022    1    1    2    0    0  0.67998554647E+03 -0.69010795235E+03 -0.26230164468E+03  0.10152946051E+04  0.15294330000E+03 0.  0.
<mgrwt>
<rscale>  0 0.98082668E+03</rscale>
<asrwt>0</asrwt>
<pdfrwt beam="1">  1        2 0.28750248E+00 0.98082668E+03</pdfrwt>
<pdfrwt beam="2">  1       -2 0.12307162E+00 0.98082668E+03</pdfrwt>
<totfact> 0.39383175E+00</totfact>
</mgrwt>
</event>
<event>
 4    1  0.1033139E-008  0.1030384E+04  0.7818608E-02  0.9275834E-01
         -2   -1    0    0    0  501 -0.00000000000E+00  0.00000000000E+00  0.13234486356E+04  0.13234486356E+04  0.25500000000E-02 0.  1.
          2   -1    0    0  501    0  0.00000000000E+00 -0.00000000000E+00 -0.23996548525E+04  0.23996548525E+04  0.25500000000E-02 0. -1.
    8880022    1    1    2    0    0  0.44947197785E+03  0.91448019517E+03 -0.20569463019E+04  0.23005909737E+04  0.15294330000E+03 0.  0.
    8880022    1    1    2    0    0 -0.44947197785E+03 -0.91448019517E+03  0.98074008508E+03  0.14225125144E+04  0.15294330000E+03 0.  0.
<mgrwt>
<rscale>  0 0.10303838E+04</rscale>
<asrwt>0</asrwt>
<pdfrwt beam="1">  1        2 0.36917767E+00 0.10303838E+04</pdfrwt>
<pdfrwt beam="2">  1       -2 0.20360748E+00 0.10303838E+04</pdfrwt>
<totfact> 0.50096382E-01</totfact>
</mgrwt>
</event>
<event>
 4    1  0.1033139E-008  0.8601793E+03  0.7818608E-02  0.9476776E-01
         -2   -1    0    0    0  501 -0.00000000000E+00  0.00000000000E+00  0.16638786190E+04  0.16638786190E+04  0.25500000000E-02 0.  1.
          2   -1    0    0  501    0  0.00000000000E+00 -0.00000000000E+00 -0.11198842555E+04  0.11198842555E+04  0.25500000000E-02 0. -1.
    8880022    1    1    2    0    0 -0.74241228245E+03  0.40662109404E+03  0.13527599981E+04  0.16030807768E+04  0.15294330000E+03 0.  0.
    8880022    1    1    2    0    0  0.74241228245E+03 -0.40662109404E+03 -0.80876563466E+03  0.11806820978E+04  0.15294330000E+03 0.  0.
<mgrwt>
<rscale>  0 0.86017926E+03</rscale>
<asrwt>0</asrwt>
<pdfrwt beam="1">  1        2 0.17228988E+00 0.86017926E+03</pdfrwt>
<pdfrwt beam="2">  1       -2 0.25598133E+00 0.86017926E+03</pdfrwt>
<totfact> 0.12730958E+00</totfact>
</mgrwt>
</event>
<event>
 4    1  0.1033139E-008  0.1097169E+04  0.7818608E-02  0.9207956E-01
          2   -1    0    0  501    0  0.00000000000E+00  0.00000000000E+00  0.21094149587E+04  0.21094149587E+04  0.25500000000E-02 0. -1.
         -2   -1    0    0    0  501 -0.00000000000E+00 -0.00000000000E+00 -0.57705903248E+03  0.57705903248E+03  0.25500000000E-02 0.  1.
    8880022    1    1    2    0    0  0.89511023599E+03 -0.61576393485E+03  0.62483632655E+03  0.12626161911E+04  0.15294330000E+03 0.  0.
    8880022    1    1    2    0    0 -0.89511023599E+03  0.61576393485E+03  0.90751959967E+03  0.14238578001E+04  0.15294330000E+03 0.  0.
<mgrwt>
<rscale>  0 0.10971687E+04</rscale>
<asrwt>0</asrwt>
<pdfrwt beam="1">  1        2 0.32452538E+00 0.10971687E+04</pdfrwt>
<pdfrwt beam="2">  1       -2 0.88778313E-01 0.10971687E+04</pdfrwt>
<totfact> 0.62794885E+00</totfact>
</mgrwt>
</event>
<event>
 4    1  0.1033139E-008  0.9482542E+03  0.7818608E-02  0.9367194E-01
         -2   -1    0    0    0  501 -0.00000000000E+00  0.00000000000E+00  0.85297981164E+03  0.85297981164E+03  0.25500000000E-02 0.  1.
          2   -1    0    0  501    0  0.00000000000E+00 -0.00000000000E+00 -0.21442096988E+04  0.21442096988E+04  0.25500000000E-02 0. -1.
    8880022    1    1    2    0    0 -0.56488344529E+02 -0.93413241141E+03  0.42287806890E+03  0.10382734752E+04  0.15294330000E+03 0.  0.
    8880022    1    1    2    0    0  0.56488344529E+02  0.93413241141E+03 -0.17141079560E+04  0.19589160352E+04  0.15294330000E+03 0.  0.
<mgrwt>
<rscale>  0 0.94825416E+03</rscale>
<asrwt>0</asrwt>
<pdfrwt beam="1">  1        2 0.32987841E+00 0.94825416E+03</pdfrwt>
<pdfrwt beam="2">  1       -2 0.13122766E+00 0.94825416E+03</pdfrwt>
<totfact> 0.23718822E+00</totfact>
</mgrwt>
</event>
<event>
 4    1  0.1033139E-008  0.1130798E+04  0.7818608E-02  0.9175683E-01
         -2   -1    0    0    0  501 -0.00000000000E+00  0.00000000000E+00  0.20090932577E+04  0.20090932577E+04  0.25500000000E-02 0.  1.
          2   -1    0    0  501    0  0.00000000000E+00 -0.00000000000E+00 -0.13770967130E+04  0.13770967130E+04  0.25500000000E-02 0. -1.
    8880022    1    1    2    0    0 -0.11171987330E+04 -0.84734043636E+02 -0.92566019547E+03  0.14613525645E+04  0.15294330000E+03 0.  0.
    8880022    1    1    2    0    0  0.11171987330E+04  0.84734043636E+02  0.15576567402E+04  0.19248374062E+04  0.15294330000E+03 0.  0.
<mgrwt>
<rscale>  0 0.11307982E+04</rscale>
<asrwt>0</asrwt>
<pdfrwt beam="1">  1        2 0.21186103E+00 0.11307982E+04</pdfrwt>
<pdfrwt beam="2">  1       -2 0.30909127E+00 0.11307982E+04</pdfrwt>
<totfact> 0.41114010E-01</totfact>
</mgrwt>
</event>
<event>
 4    1  0.1033139E-008  0.1235130E+04  0.7818608E-02  0.9082651E-01
         -2   -1    0    0    0  501 -0.00000000000E+00  0.00000000000E+00  0.17902414096E+04  0.17902414097E+04  0.25500000000E-02 0.  1.
          2   -1    0    0  501    0  0.00000000000E+00 -0.00000000000E+00 -0.19483926714E+04  0.19483926714E+04  0.25500000000E-02 0. -1.
    8880022    1    1    2    0    0  0.11378028254E+04  0.45558613304E+03  0.13230890422E+04  0.18100028345E+04  0.15294330000E+03 0.  0.
    8880022    1    1    2    0    0 -0.11378028254E+04 -0.45558613304E+03 -0.14812403040E+04  0.19286312466E+04  0.15294330000E+03 0.  0.
<mgrwt>
<rscale>  0 0.12351298E+04</rscale>
<asrwt>0</asrwt>
<pdfrwt beam="1">  1        2 0.29975272E+00 0.12351298E+04</pdfrwt>
<pdfrwt beam="2">  1       -2 0.27542176E+00 0.12351298E+04</pdfrwt>
<totfact> 0.31081352E-01</totfact>
</mgrwt>
</event>
<event>
 4    1  0.1033139E-008  0.1499603E+04  0.7818608E-02  0.8884717E-01
         -2   -1    0    0    0  501 -0.00000000000E+00  0.00000000000E+00  0.12775091259E+04  0.12775091259E+04  0.25500000000E-02 0.  1.
          2   -1    0    0  501    0  0.00000000000E+00 -0.00000000000E+00 -0.22901428809E+04  0.22901428809E+04  0.25500000000E-02 0. -1.
    8880022    1    1    2    0    0 -0.27234812261E+02  0.14915342485E+04  0.35169249092E+03  0.15402906903E+04  0.15294330000E+03 0.  0.
    8880022    1    1    2    0    0  0.27234812261E+02 -0.14915342485E+04 -0.13643262460E+04  0.20273613165E+04  0.15294330000E+03 0.  0.
<mgrwt>
<rscale>  0 0.14996025E+04</rscale>
<asrwt>0</asrwt>
<pdfrwt beam="1">  1        2 0.35232967E+00 0.14996025E+04</pdfrwt>
<pdfrwt beam="2">  1       -2 0.19653987E+00 0.14996025E+04</pdfrwt>
<totfact> 0.60480212E-01</totfact>
</mgrwt>
</event>
<event>
 4    1  0.1033139E-008  0.5292845E+03  0.7818608E-02  0.1006406E+00
         -2   -1    0    0    0  501 -0.00000000000E+00  0.00000000000E+00  0.51391804650E+03  0.51391804651E+03  0.25500000000E-02 0.  1.
          2   -1    0    0  501    0  0.00000000000E+00 -0.00000000000E+00 -0.58977879069E+03  0.58977879070E+03  0.25500000000E-02 0. -1.
    8880022    1    1    2    0    0  0.37583080317E+03 -0.33985524555E+03  0.11394093921E+03  0.54140979967E+03  0.15294330000E+03 0.  0.
    8880022    1    1    2    0    0 -0.37583080317E+03  0.33985524555E+03 -0.18980168340E+03  0.56228703753E+03  0.15294330000E+03 0.  0.
<mgrwt>
<rscale>  0 0.52928445E+03</rscale>
<asrwt>0</asrwt>
<pdfrwt beam="1">  1        2 0.90735199E-01 0.52928445E+03</pdfrwt>
<pdfrwt beam="2">  1       -2 0.79064315E-01 0.52928445E+03</pdfrwt>
<totfact> 0.73926583E+01</totfact>
</mgrwt>
</event>
<event>
 4    1  0.1033139E-008  0.1006354E+04  0.7818608E-02  0.9301604E-01
         -2   -1    0    0    0  501 -0.00000000000E+00  0.00000000000E+00  0.93579266886E+03  0.93579266886E+03  0.25500000000E-02 0.  1.
          2   -1    0    0  501    0  0.00000000000E+00 -0.00000000000E+00 -0.22375738707E+04  0.22375738707E+04  0.25500000000E-02 0. -1.
    8880022    1    1    2    0    0  0.70325231646E+03 -0.70341455944E+03  0.48924434359E+03  0.11189761140E+04  0.15294330000E+03 0.  0.
    8880022    1    1    2    0    0 -0.70325231646E+03  0.70341455944E+03 -0.17910255455E+04  0.20543904255E+04  0.15294330000E+03 0.  0.
<mgrwt>
<rscale>  0 0.10063536E+04</rscale>
<asrwt>0</asrwt>
<pdfrwt beam="1">  1        2 0.34424213E+00 0.10063536E+04</pdfrwt>
<pdfrwt beam="2">  1       -2 0.14396810E+00 0.10063536E+04</pdfrwt>
<totfact> 0.16427301E+00</totfact>
</mgrwt>
</event>
<event>
 4    1  0.1033139E-008  0.1019718E+04  0.7818608E-02  0.9287178E-01
          2   -1    0    0  501    0  0.00000000000E+00  0.00000000000E+00  0.45157464031E+04  0.45157464031E+04  0.25500000000E-02 0. -1.
         -2   -1    0    0    0  501 -0.00000000000E+00 -0.00000000000E+00 -0.61061420396E+03  0.61061420396E+03  0.25500000000E-02 0.  1.
    8880022    1    1    2    0    0 -0.84494338997E+03  0.55000431749E+03 -0.70387993874E+02  0.10221449037E+04  0.15294330000E+03 0.  0.
    8880022    1    1    2    0    0  0.84494338997E+03 -0.55000431749E+03  0.39755201930E+04  0.41042157034E+04  0.15294330000E+03 0.  0.
<mgrwt>
<rscale>  0 0.10197185E+04</rscale>
<asrwt>0</asrwt>
<pdfrwt beam="1">  1        2 0.69473022E+00 0.10197185E+04</pdfrwt>
<pdfrwt beam="2">  1       -2 0.93940646E-01 0.10197185E+04</pdfrwt>
<totfact> 0.12149689E-01</totfact>
</mgrwt>
</event>
<event>
 4    1  0.1033139E-008  0.1169278E+04  0.7818608E-02  0.9140181E-01
          2   -1    0    0  501    0  0.00000000000E+00  0.00000000000E+00  0.16386066086E+04  0.16386066086E+04  0.25500000000E-02 0. -1.
         -2   -1    0    0    0  501 -0.00000000000E+00 -0.00000000000E+00 -0.12340558701E+04  0.12340558701E+04  0.25500000000E-02 0.  1.
    8880022    1    1    2    0    0  0.33107504259E+02  0.11587591820E+04  0.10196938812E+04  0.15514464905E+04  0.15294330000E+03 0.  0.
    8880022    1    1    2    0    0 -0.33107504259E+02 -0.11587591820E+04 -0.61514314264E+03  0.13212159883E+04  0.15294330000E+03 0.  0.
<mgrwt>
<rscale>  0 0.11692778E+04</rscale>
<asrwt>0</asrwt>
<pdfrwt beam="1">  1        2 0.25209332E+00 0.11692778E+04</pdfrwt>
<pdfrwt beam="2">  1       -2 0.18985475E+00 0.11692778E+04</pdfrwt>
<totfact> 0.16048490E+00</totfact>
</mgrwt>
</event>
<event>
 4    1  0.1033139E-008  0.1177253E+04  0.7818608E-02  0.9133003E-01
          2   -1    0    0  501    0  0.00000000000E+00  0.00000000000E+00  0.12651135300E+04  0.12651135300E+04  0.25500000000E-02 0. -1.
         -2   -1    0    0    0  501 -0.00000000000E+00 -0.00000000000E+00 -0.19905710950E+04  0.19905710950E+04  0.25500000000E-02 0.  1.
    8880022    1    1    2    0    0 -0.10802568335E+04  0.44224221444E+03  0.72884635754E+03  0.13846088503E+04  0.15294330000E+03 0.  0.
    8880022    1    1    2    0    0  0.10802568335E+04 -0.44224221444E+03 -0.14543039225E+04  0.18710757746E+04  0.15294330000E+03 0.  0.
<mgrwt>
<rscale>  0 0.11772530E+04</rscale>
<asrwt>0</asrwt>
<pdfrwt beam="1">  1        2 0.19463285E+00 0.11772530E+04</pdfrwt>
<pdfrwt beam="2">  1       -2 0.30624171E+00 0.11772530E+04</pdfrwt>
<totfact> 0.49410415E-01</totfact>
</mgrwt>
</event>
<event>
 4    1  0.1033139E-008  0.1339335E+04  0.7818608E-02  0.8998941E-01
         -2   -1    0    0    0  501 -0.00000000000E+00  0.00000000000E+00  0.69731564615E+03  0.69731564616E+03  0.25500000000E-02 0.  1.
          2   -1    0    0  501    0  0.00000000000E+00 -0.00000000000E+00 -0.34587822034E+04  0.34587822034E+04  0.25500000000E-02 0. -1.
    8880022    1    1    2    0    0  0.13304838648E+04 -0.15506100499E+02 -0.24326684871E+04  0.27769939457E+04  0.15294330000E+03 0.  0.
    8880022    1    1    2    0    0 -0.13304838648E+04  0.15506100499E+02 -0.32879807014E+03  0.13791039038E+04  0.15294330000E+03 0.  0.
<mgrwt>
<rscale>  0 0.13393354E+04</rscale>
<asrwt>0</asrwt>
<pdfrwt beam="1">  1        2 0.53212033E+00 0.13393354E+04</pdfrwt>
<pdfrwt beam="2">  1       -2 0.10727933E+00 0.13393354E+04</pdfrwt>
<totfact> 0.59376343E-01</totfact>
</mgrwt>
</event>
<event>
 4    1  0.1033139E-008  0.1694247E+04  0.7818608E-02  0.8764652E-01
         -2   -1    0    0    0  501 -0.00000000000E+00  0.00000000000E+00  0.17921218555E+04  0.17921218555E+04  0.25500000000E-02 0.  1.
          2   -1    0    0  501    0  0.00000000000E+00 -0.00000000000E+00 -0.26932806643E+04  0.26932806643E+04  0.25500000000E-02 0. -1.
    8880022    1    1    2    0    0 -0.85636079004E+03 -0.14538664213E+04  0.97718005575E+03  0.19558511927E+04  0.15294330000E+03 0.  0.
    8880022    1    1    2    0    0  0.85636079004E+03  0.14538664213E+04 -0.18783388645E+04  0.25295513271E+04  0.15294330000E+03 0.  0.
<mgrwt>
<rscale>  0 0.16942470E+04</rscale>
<asrwt>0</asrwt>
<pdfrwt beam="1">  1        2 0.41435087E+00 0.16942470E+04</pdfrwt>
<pdfrwt beam="2">  1       -2 0.27571105E+00 0.16942470E+04</pdfrwt>
<totfact> 0.10985219E-01</totfact>
</mgrwt>
</event>
<event>
 4    1  0.1033139E-008  0.6031303E+03  0.7818608E-02  0.9898933E-01
          2   -1    0    0  501    0  0.00000000000E+00  0.00000000000E+00  0.10947775681E+04  0.10947775681E+04  0.25500000000E-02 0. -1.
         -2   -1    0    0    0  501 -0.00000000000E+00 -0.00000000000E+00 -0.49861881740E+03  0.49861881740E+03  0.25500000000E-02 0.  1.
    8880022    1    1    2    0    0 -0.57202474741E+03 -0.11472642479E+03  0.75824496786E+03  0.96886611484E+03  0.15294330000E+03 0.  0.
    8880022    1    1    2    0    0  0.57202474741E+03  0.11472642479E+03 -0.16208621714E+03  0.62453027068E+03  0.15294330000E+03 0.  0.
<mgrwt>
<rscale>  0 0.60313027E+03</rscale>
<asrwt>0</asrwt>
<pdfrwt beam="1">  1        2 0.16842732E+00 0.60313027E+03</pdfrwt>
<pdfrwt beam="2">  1       -2 0.76710587E-01 0.60313027E+03</pdfrwt>
<totfact> 0.34450955E+01</totfact>
</mgrwt>
</event>
<event>
 4    1  0.1033139E-008  0.1088652E+04  0.7818608E-02  0.9216323E-01
         -2   -1    0    0    0  501 -0.00000000000E+00  0.00000000000E+00  0.53703585796E+03  0.53703585797E+03  0.25500000000E-02 0.  1.
          2   -1    0    0  501    0  0.00000000000E+00 -0.00000000000E+00 -0.30045890652E+04  0.30045890652E+04  0.25500000000E-02 0. -1.
    8880022    1    1    2    0    0 -0.13332485656E+03  0.10695779967E+04 -0.21462223970E+04  0.24065400140E+04  0.15294330000E+03 0.  0.
    8880022    1    1    2    0    0  0.13332485656E+03 -0.10695779967E+04 -0.32133081024E+03  0.11350849092E+04  0.15294330000E+03 0.  0.
<mgrwt>
<rscale>  0 0.10886525E+04</rscale>
<asrwt>0</asrwt>
<pdfrwt beam="1">  1        2 0.46224446E+00 0.10886525E+04</pdfrwt>
<pdfrwt beam="2">  1       -2 0.82620903E-01 0.10886525E+04</pdfrwt>
<totfact> 0.22406320E+00</totfact>
</mgrwt>
</event>
<event>
 4    1  0.1033139E-008  0.2204462E+04  0.7818608E-02  0.8516573E-01
          2   -1    0    0  501    0  0.00000000000E+00  0.00000000000E+00  0.31324986580E+04  0.31324986580E+04  0.25500000000E-02 0. -1.
         -2   -1    0    0    0  501 -0.00000000000E+00 -0.00000000000E+00 -0.19618769842E+04  0.19618769842E+04  0.25500000000E-02 0.  1.
    8880022    1    1    2    0    0  0.12315599407E+04 -0.18219550069E+04 -0.57985442844E+03  0.22794479038E+04  0.15294330000E+03 0.  0.
    8880022    1    1    2    0    0 -0.12315599407E+04  0.18219550069E+04  0.17504761023E+04  0.28149277384E+04  0.15294330000E+03 0.  0.
<mgrwt>
<rscale>  0 0.22044617E+04</rscale>
<asrwt>0</asrwt>
<pdfrwt beam="1">  1        2 0.48192287E+00 0.22044617E+04</pdfrwt>
<pdfrwt beam="2">  1       -2 0.30182723E+00 0.22044617E+04</pdfrwt>
<totfact> 0.38460233E-02</totfact>
</mgrwt>
</event>
<event>
 4    1  0.1033139E-008  0.2046449E+04  0.7818608E-02  0.8585207E-01
         -2   -1    0    0    0  501 -0.00000000000E+00  0.00000000000E+00  0.31845816259E+04  0.31845816259E+04  0.25500000000E-02 0.  1.
          2   -1    0    0  501    0  0.00000000000E+00 -0.00000000000E+00 -0.17502083353E+04  0.17502083353E+04  0.25500000000E-02 0. -1.
    8880022    1    1    2    0    0  0.10118372124E+04  0.17722158120E+04  0.19474733434E+04  0.28249969035E+04  0.15294330000E+03 0.  0.
    8880022    1    1    2    0    0 -0.10118372124E+04 -0.17722158120E+04 -0.51310005278E+03  0.21097930576E+04  0.15294330000E+03 0.  0.
<mgrwt>
<rscale>  0 0.20464494E+04</rscale>
<asrwt>0</asrwt>
<pdfrwt beam="1">  1        2 0.26926283E+00 0.20464494E+04</pdfrwt>
<pdfrwt beam="2">  1       -2 0.48993562E+00 0.20464494E+04</pdfrwt>
<totfact> 0.15390291E-02</totfact>
</mgrwt>
</event>
<event>
 4    1  0.1033139E-008  0.8735836E+03  0.7818608E-02  0.9459219E-01
         -2   -1    0    0    0  501 -0.00000000000E+00  0.00000000000E+00  0.82100945042E+03  0.82100945042E+03  0.25500000000E-02 0.  1.
          2   -1    0    0  501    0  0.00000000000E+00 -0.00000000000E+00 -0.14993169778E+04  0.14993169778E+04  0.25500000000E-02 0. -1.
    8880022    1    1    2    0    0 -0.25471973482E+03 -0.82150746123E+03 -0.10543591241E+04  0.13692412014E+04  0.15294330000E+03 0.  0.
    8880022    1    1    2    0    0  0.25471973482E+03  0.82150746123E+03  0.37605159672E+03  0.95108522677E+03  0.15294330000E+03 0.  0.
<mgrwt>
<rscale>  0 0.87358360E+03</rscale>
<asrwt>0</asrwt>
<pdfrwt beam="1">  1        2 0.23066415E+00 0.87358360E+03</pdfrwt>
<pdfrwt beam="2">  1       -2 0.12630915E+00 0.87358360E+03</pdfrwt>
<totfact> 0.59836592E+00</totfact>
</mgrwt>
</event>
<event>
 4    1  0.1033139E-008  0.1275544E+04  0.7818608E-02  0.9049187E-01
          2   -1    0    0  501    0  0.00000000000E+00  0.00000000000E+00  0.21180443390E+04  0.21180443390E+04  0.25500000000E-02 0. -1.
         -2   -1    0    0    0  501 -0.00000000000E+00 -0.00000000000E+00 -0.14292955374E+04  0.14292955374E+04  0.25500000000E-02 0.  1.
    8880022    1    1    2    0    0 -0.75870142546E+03  0.10139001688E+04 -0.86192340482E+03  0.15394560774E+04  0.15294330000E+03 0.  0.
    8880022    1    1    2    0    0  0.75870142546E+03 -0.10139001688E+04  0.15506722065E+04  0.20078837990E+04  0.15294330000E+03 0.  0.
<mgrwt>
<rscale>  0 0.12755442E+04</rscale>
<asrwt>0</asrwt>
<pdfrwt beam="1">  1        2 0.32585297E+00 0.12755442E+04</pdfrwt>
<pdfrwt beam="2">  1       -2 0.21989162E+00 0.12755442E+04</pdfrwt>
<totfact> 0.54716143E-01</totfact>
</mgrwt>
</event>
<event>
 4    1  0.1033139E-008  0.4165463E+03  0.7818608E-02  0.1038196E+00
         -2   -1    0    0    0  501 -0.00000000000E+00  0.00000000000E+00  0.32088904030E+03  0.32088904031E+03  0.25500000000E-02 0.  1.
          2   -1    0    0  501    0  0.00000000000E+00 -0.00000000000E+00 -0.19884331117E+04  0.19884331117E+04  0.25500000000E-02 0. -1.
    8880022    1    1    2    0    0  0.33107179329E+03 -0.20127252276E+03  0.15146432314E+03  0.44322934800E+03  0.15294330000E+03 0.  0.
    8880022    1    1    2    0    0 -0.33107179329E+03  0.20127252276E+03 -0.18190083945E+04  0.18660928040E+04  0.15294330000E+03 0.  0.
<mgrwt>
<rscale>  0 0.41654629E+03</rscale>
<asrwt>0</asrwt>
<pdfrwt beam="1">  1        2 0.30591278E+00 0.41654629E+03</pdfrwt>
<pdfrwt beam="2">  1       -2 0.49367546E-01 0.41654629E+03</pdfrwt>
<totfact> 0.28845309E+01</totfact>
</mgrwt>
</event>
<event>
 4    1  0.1033139E-008  0.1339068E+04  0.7818608E-02  0.8999145E-01
          2   -1    0    0  501    0  0.00000000000E+00  0.00000000000E+00  0.35455069963E+04  0.35455069963E+04  0.25500000000E-02 0. -1.
         -2   -1    0    0    0  501 -0.00000000000E+00 -0.00000000000E+00 -0.77948801162E+03  0.77948801163E+03  0.25500000000E-02 0.  1.
    8880022    1    1    2    0    0  0.12265747188E+04 -0.51500079219E+03  0.26645335441E+04  0.29820868561E+04  0.15294330000E+03 0.  0.
    8880022    1    1    2    0    0 -0.12265747188E+04  0.51500079219E+03  0.10148544067E+03  0.13429081519E+04  0.15294330000E+03 0.  0.
<mgrwt>
<rscale>  0 0.13390680E+04</rscale>
<asrwt>0</asrwt>
<pdfrwt beam="1">  1        2 0.54546262E+00 0.13390680E+04</pdfrwt>
<pdfrwt beam="2">  1       -2 0.11992123E+00 0.13390680E+04</pdfrwt>
<totfact> 0.39312916E-01</totfact>
</mgrwt>
</event>
<event>
 4    1  0.1033139E-008  0.7433372E+03  0.7818608E-02  0.9645862E-01
         -2   -1    0    0    0  501 -0.00000000000E+00  0.00000000000E+00  0.75452583553E+03  0.75452583553E+03  0.25500000000E-02 0.  1.
          2   -1    0    0  501    0  0.00000000000E+00 -0.00000000000E+00 -0.14557339727E+04  0.14557339727E+04  0.25500000000E-02 0. -1.
    8880022    1    1    2    0    0 -0.66801753034E+03  0.28794300466E+03  0.42844964925E+03  0.85797397964E+03  0.15294330000E+03 0.  0.
    8880022    1    1    2    0    0  0.66801753034E+03 -0.28794300466E+03 -0.11296577864E+04  0.13522858286E+04  0.15294330000E+03 0.  0.
<mgrwt>
<rscale>  0 0.74333724E+03</rscale>
<asrwt>0</asrwt>
<pdfrwt beam="1">  1        2 0.22395907E+00 0.74333724E+03</pdfrwt>
<pdfrwt beam="2">  1       -2 0.11608090E+00 0.74333724E+03</pdfrwt>
<totfact> 0.79449475E+00</totfact>
</mgrwt>
</event>
<event>
 4    1  0.1033139E-008  0.8927756E+03  0.7818608E-02  0.9434658E-01
         -2   -1    0    0    0  501 -0.00000000000E+00  0.00000000000E+00  0.54053962410E+03  0.54053962411E+03  0.25500000000E-02 0.  1.
          2   -1    0    0  501    0  0.00000000000E+00 -0.00000000000E+00 -0.14931650061E+04  0.14931650061E+04  0.25500000000E-02 0. -1.
    8880022    1    1    2    0    0 -0.87144582768E+03 -0.11932653118E+03 -0.58987401934E+03  0.10700465706E+04  0.15294330000E+03 0.  0.
    8880022    1    1    2    0    0  0.87144582768E+03  0.11932653118E+03 -0.36275136263E+03  0.96365805954E+03  0.15294330000E+03 0.  0.
<mgrwt>
<rscale>  0 0.89277562E+03</rscale>
<asrwt>0</asrwt>
<pdfrwt beam="1">  1        2 0.22971769E+00 0.89277562E+03</pdfrwt>
<pdfrwt beam="2">  1       -2 0.83159943E-01 0.89277562E+03</pdfrwt>
<totfact> 0.16339434E+01</totfact>
</mgrwt>
</event>
<event>
 4    1  0.1033139E-008  0.3732091E+03  0.7818608E-02  0.1053473E+00
         -2   -1    0    0    0  501 -0.00000000000E+00  0.00000000000E+00  0.17376219891E+03  0.17376219893E+03  0.25500000000E-02 0.  1.
          2   -1    0    0  501    0  0.00000000000E+00 -0.00000000000E+00 -0.32770859431E+04  0.32770859431E+04  0.25500000000E-02 0. -1.
    8880022    1    1    2    0    0  0.81326532953E+02 -0.33057431886E+03 -0.52033830811E+02  0.37681899875E+03  0.15294330000E+03 0.  0.
    8880022    1    1    2    0    0 -0.81326532953E+02  0.33057431886E+03 -0.30512899134E+04  0.30740291433E+04  0.15294330000E+03 0.  0.
<mgrwt>
<rscale>  0 0.37320911E+03</rscale>
<asrwt>0</asrwt>
<pdfrwt beam="1">  1        2 0.50416702E+00 0.37320911E+03</pdfrwt>
<pdfrwt beam="2">  1       -2 0.26732648E-01 0.37320911E+03</pdfrwt>
<totfact> 0.17203675E+01</totfact>
</mgrwt>
</event>
<event>
 4    1  0.1033139E-008  0.6791279E+03  0.7818608E-02  0.9753607E-01
          2   -1    0    0  501    0  0.00000000000E+00  0.00000000000E+00  0.34990374083E+04  0.34990374083E+04  0.25500000000E-02 0. -1.
         -2   -1    0    0    0  501 -0.00000000000E+00 -0.00000000000E+00 -0.25294324570E+03  0.25294324571E+03  0.25500000000E-02 0.  1.
    8880022    1    1    2    0    0 -0.28172161815E+03  0.59871194399E+03  0.29212642548E+04  0.29991664777E+04  0.15294330000E+03 0.  0.
    8880022    1    1    2    0    0  0.28172161815E+03 -0.59871194399E+03  0.32482990790E+03  0.75281417633E+03  0.15294330000E+03 0.  0.
<mgrwt>
<rscale>  0 0.67912791E+03</rscale>
<asrwt>0</asrwt>
<pdfrwt beam="1">  1        2 0.53831345E+00 0.67912791E+03</pdfrwt>
<pdfrwt beam="2">  1       -2 0.38914346E-01 0.67912791E+03</pdfrwt>
<totfact> 0.55897252E+00</totfact>
</mgrwt>
</event>
<event>
 4    1  0.1033139E-008  0.5217469E+03  0.7818608E-02  0.1008254E+00
          2   -1    0    0  501    0  0.00000000000E+00  0.00000000000E+00  0.12457527680E+04  0.12457527680E+04  0.25500000000E-02 0. -1.
         -2   -1    0    0    0  501 -0.00000000000E+00 -0.00000000000E+00 -0.19709939014E+04  0.19709939014E+04  0.25500000000E-02 0.  1.
    8880022    1    1    2    0    0 -0.49144073292E+03 -0.85523057775E+02  0.11539764869E+04  0.12664444609E+04  0.15294330000E+03 0.  0.
    8880022    1    1    2    0    0  0.49144073292E+03  0.85523057775E+02 -0.18792176202E+04  0.19503022085E+04  0.15294330000E+03 0.  0.
<mgrwt>
<rscale>  0 0.52174691E+03</rscale>
<asrwt>0</asrwt>
<pdfrwt beam="1">  1        2 0.19165427E+00 0.52174691E+03</pdfrwt>
<pdfrwt beam="2">  1       -2 0.30322983E+00 0.52174691E+03</pdfrwt>
<totfact> 0.60178391E-01</totfact>
</mgrwt>
</event>
<event>
 4    1  0.1033139E-008  0.7893726E+03  0.7818608E-02  0.9575528E-01
          2   -1    0    0  501    0  0.00000000000E+00  0.00000000000E+00  0.16233118562E+04  0.16233118562E+04  0.25500000000E-02 0. -1.
         -2   -1    0    0    0  501 -0.00000000000E+00 -0.00000000000E+00 -0.50908452480E+03  0.50908452480E+03  0.25500000000E-02 0.  1.
    8880022    1    1    2    0    0  0.76346494063E+03 -0.12976418218E+03  0.10859290920E+04  0.13425167055E+04  0.15294330000E+03 0.  0.
    8880022    1    1    2    0    0 -0.76346494063E+03  0.12976418218E+03  0.28298239438E+02  0.78987967559E+03  0.15294330000E+03 0.  0.
<mgrwt>
<rscale>  0 0.78937261E+03</rscale>
<asrwt>0</asrwt>
<pdfrwt beam="1">  1        2 0.24974028E+00 0.78937261E+03</pdfrwt>
<pdfrwt beam="2">  1       -2 0.78320697E-01 0.78937261E+03</pdfrwt>
<totfact> 0.16025616E+01</totfact>
</mgrwt>
</event>
<event>
 4    1  0.1033139E-008  0.6813809E+03  0.7818608E-02  0.9749614E-01
          2   -1    0    0  501    0  0.00000000000E+00  0.00000000000E+00  0.35524077941E+03  0.35524077942E+03  0.25500000000E-02 0. -1.
         -2   -1    0    0    0  501 -0.00000000000E+00 -0.00000000000E+00 -0.20538427333E+04  0.20538427333E+04  0.25500000000E-02 0.  1.
    8880022    1    1    2    0    0  0.63482040990E+03 -0.19465684988E+03 -0.12291231826E+03  0.69237802754E+03  0.15294330000E+03 0.  0.
    8880022    1    1    2    0    0 -0.63482040990E+03  0.19465684988E+03 -0.15756896356E+04  0.17167054852E+04  0.15294330000E+03 0.  0.
<mgrwt>
<rscale>  0 0.68138087E+03</rscale>
<asrwt>0</asrwt>
<pdfrwt beam="1">  1        2 0.54652429E-01 0.68138087E+03</pdfrwt>
<pdfrwt beam="2">  1       -2 0.31597580E+00 0.68138087E+03</pdfrwt>
<totfact> 0.24325230E+00</totfact>
</mgrwt>
</event>
<event>
 4    1  0.1033139E-008  0.7318948E+03  0.7818608E-02  0.9664191E-01
         -2   -1    0    0    0  501 -0.00000000000E+00  0.00000000000E+00  0.59444744940E+03  0.59444744941E+03  0.25500000000E-02 0.  1.
          2   -1    0    0  501    0  0.00000000000E+00 -0.00000000000E+00 -0.22528640672E+04  0.22528640672E+04  0.25500000000E-02 0. -1.
    8880022    1    1    2    0    0  0.54745178295E+03  0.46105850759E+03 -0.19319766939E+04  0.20659632138E+04  0.15294330000E+03 0.  0.
    8880022    1    1    2    0    0 -0.54745178295E+03 -0.46105850759E+03  0.27356007608E+03  0.78134830281E+03  0.15294330000E+03 0.  0.
<mgrwt>
<rscale>  0 0.73189484E+03</rscale>
<asrwt>0</asrwt>
<pdfrwt beam="1">  1        2 0.34659447E+00 0.73189484E+03</pdfrwt>
<pdfrwt beam="2">  1       -2 0.91453455E-01 0.73189484E+03</pdfrwt>
<totfact> 0.51350798E+00</totfact>
</mgrwt>
</event>
<event>
 4    1  0.1033139E-008  0.6929063E+03  0.7818608E-02  0.9729441E-01
         -2   -1    0    0    0  501 -0.00000000000E+00  0.00000000000E+00  0.37838793307E+03  0.37838793308E+03  0.25500000000E-02 0.  1.
          2   -1    0    0  501    0  0.00000000000E+00 -0.00000000000E+00 -0.34209914207E+04  0.34209914207E+04  0.25500000000E-02 0. -1.
    8880022    1    1    2    0    0  0.61499643249E+03  0.28019072404E+03 -0.30280533132E+04  0.31063203271E+04  0.15294330000E+03 0.  0.
    8880022    1    1    2    0    0 -0.61499643249E+03 -0.28019072404E+03 -0.14550174365E+02  0.69305902663E+03  0.15294330000E+03 0.  0.
<mgrwt>
<rscale>  0 0.69290628E+03</rscale>
<asrwt>0</asrwt>
<pdfrwt beam="1">  1        2 0.52630635E+00 0.69290628E+03</pdfrwt>
<pdfrwt beam="2">  1       -2 0.58213531E-01 0.69290628E+03</pdfrwt>
<totfact> 0.27940110E+00</totfact>
</mgrwt>
</event>
<event>
 4    1  0.1033139E-008  0.3462492E+03  0.7818608E-02  0.1064165E+00
          2   -1    0    0  501    0  0.00000000000E+00  0.00000000000E+00  0.84048699136E+03  0.84048699137E+03  0.25500000000E-02 0. -1.
         -2   -1    0    0    0  501 -0.00000000000E+00 -0.00000000000E+00 -0.10722387658E+04  0.10722387658E+04  0.25500000000E-02 0.  1.
    8880022    1    1    2    0    0  0.94354900470E+02  0.29596290379E+03 -0.10063561895E+04  0.10642562289E+04  0.15294330000E+03 0.  0.
    8880022    1    1    2    0    0 -0.94354900470E+02 -0.29596290379E+03  0.77460441501E+03  0.84846952829E+03  0.15294330000E+03 0.  0.
<mgrwt>
<rscale>  0 0.34624925E+03</rscale>
<asrwt>0</asrwt>
<pdfrwt beam="1">  1        2 0.12930569E+00 0.34624925E+03</pdfrwt>
<pdfrwt beam="2">  1       -2 0.16495981E+00 0.34624925E+03</pdfrwt>
<totfact> 0.81597130E+00</totfact>
</mgrwt>
</event>
<event>
 4    1  0.1033139E-008  0.1500396E+04  0.7818608E-02  0.8884190E-01
         -2   -1    0    0    0  501 -0.00000000000E+00  0.00000000000E+00  0.13621832213E+04  0.13621832214E+04  0.25500000000E-02 0.  1.
          2   -1    0    0  501    0  0.00000000000E+00 -0.00000000000E+00 -0.18235141918E+04  0.18235141918E+04  0.25500000000E-02 0. -1.
    8880022    1    1    2    0    0  0.86295404108E+03 -0.12178285475E+04  0.25693962077E+03  0.15222370610E+04  0.15294330000E+03 0.  0.
    8880022    1    1    2    0    0 -0.86295404108E+03  0.12178285475E+04 -0.71827059121E+03  0.16634603522E+04  0.15294330000E+03 0.  0.
<mgrwt>
<rscale>  0 0.15003958E+04</rscale>
<asrwt>0</asrwt>
<pdfrwt beam="1">  1        2 0.28054065E+00 0.15003958E+04</pdfrwt>
<pdfrwt beam="2">  1       -2 0.20956665E+00 0.15003958E+04</pdfrwt>
<totfact> 0.90652323E-01</totfact>
</mgrwt>
</event>
<event>
 4    1  0.1033139E-008  0.3494367E+03  0.7818608E-02  0.1062846E+00
          2   -1    0    0  501    0  0.00000000000E+00  0.00000000000E+00  0.13990692062E+04  0.13990692062E+04  0.25500000000E-02 0. -1.
         -2   -1    0    0    0  501 -0.00000000000E+00 -0.00000000000E+00 -0.28045470908E+03  0.28045470909E+03  0.25500000000E-02 0.  1.
    8880022    1    1    2    0    0 -0.27908296920E+03  0.14431571027E+03 -0.13764624882E+03  0.37556952853E+03  0.15294330000E+03 0.  0.
    8880022    1    1    2    0    0  0.27908296920E+03 -0.14431571027E+03  0.12562607459E+04  0.13039543867E+04  0.15294330000E+03 0.  0.
<mgrwt>
<rscale>  0 0.34943666E+03</rscale>
<asrwt>0</asrwt>
<pdfrwt beam="1">  1        2 0.21524142E+00 0.34943666E+03</pdfrwt>
<pdfrwt beam="2">  1       -2 0.43146878E-01 0.34943666E+03</pdfrwt>
<totfact> 0.79276484E+01</totfact>
</mgrwt>
</event>
<event>
 4    1  0.1033139E-008  0.1106690E+04  0.7818608E-02  0.9198696E-01
         -2   -1    0    0    0  501 -0.00000000000E+00  0.00000000000E+00  0.18550909129E+04  0.18550909129E+04  0.25500000000E-02 0.  1.
          2   -1    0    0  501    0  0.00000000000E+00 -0.00000000000E+00 -0.92384587207E+03  0.92384587207E+03  0.25500000000E-02 0. -1.
    8880022    1    1    2    0    0  0.10605218685E+04  0.27688445908E+03 -0.27661870288E+03  0.11407371288E+04  0.15294330000E+03 0.  0.
    8880022    1    1    2    0    0 -0.10605218685E+04 -0.27688445908E+03  0.12078637437E+04  0.16381996562E+04  0.15294330000E+03 0.  0.
<mgrwt>
<rscale>  0 0.11066902E+04</rscale>
<asrwt>0</asrwt>
<pdfrwt beam="1">  1        2 0.14213013E+00 0.11066902E+04</pdfrwt>
<pdfrwt beam="2">  1       -2 0.28539860E+00 0.11066902E+04</pdfrwt>
<totfact> 0.10901791E+00</totfact>
</mgrwt>
</event>
<event>
 4    1  0.1033139E-008  0.6062360E+03  0.7818608E-02  0.9892552E-01
         -2   -1    0    0    0  501 -0.00000000000E+00  0.00000000000E+00  0.27272447178E+03  0.27272447179E+03  0.25500000000E-02 0.  1.
          2   -1    0    0  501    0  0.00000000000E+00 -0.00000000000E+00 -0.15241364622E+04  0.15241364622E+04  0.25500000000E-02 0. -1.
    8880022    1    1    2    0    0  0.50276808120E+03 -0.30224935701E+03 -0.93147692514E+03  0.11113826219E+04  0.15294330000E+03 0.  0.
    8880022    1    1    2    0    0 -0.50276808120E+03  0.30224935701E+03 -0.31993506529E+03  0.68547831206E+03  0.15294330000E+03 0.  0.
<mgrwt>
<rscale>  0 0.60623599E+03</rscale>
<asrwt>0</asrwt>
<pdfrwt beam="1">  1        2 0.23448253E+00 0.60623599E+03</pdfrwt>
<pdfrwt beam="2">  1       -2 0.41957612E-01 0.60623599E+03</pdfrwt>
<totfact> 0.68673276E+01</totfact>
</mgrwt>
</event>
<event>
 4    1  0.1033139E-008  0.6995549E+03  0.7818608E-02  0.9717994E-01
          2   -1    0    0  501    0  0.00000000000E+00  0.00000000000E+00  0.24625902635E+04  0.24625902635E+04  0.25500000000E-02 0. -1.
         -2   -1    0    0    0  501 -0.00000000000E+00 -0.00000000000E+00 -0.87188096629E+03  0.87188096629E+03  0.25500000000E-02 0.  1.
    8880022    1    1    2    0    0  0.28511113714E+03 -0.62023947496E+03  0.22603167559E+04  0.23660956990E+04  0.15294330000E+03 0.  0.
    8880022    1    1    2    0    0 -0.28511113714E+03  0.62023947496E+03 -0.66960745871E+03  0.96837553077E+03  0.15294330000E+03 0.  0.
<mgrwt>
<rscale>  0 0.69955487E+03</rscale>
<asrwt>0</asrwt>
<pdfrwt beam="1">  1        2 0.37886004E+00 0.69955487E+03</pdfrwt>
<pdfrwt beam="2">  1       -2 0.13413553E+00 0.69955487E+03</pdfrwt>
<totfact> 0.15575897E+00</totfact>
</mgrwt>
</event>
<event>
 4    1  0.1033139E-008  0.9186963E+03  0.7818608E-02  0.9402507E-01
          2   -1    0    0  501    0  0.00000000000E+00  0.00000000000E+00  0.13838878374E+04  0.13838878374E+04  0.25500000000E-02 0. -1.
         -2   -1    0    0    0  501 -0.00000000000E+00 -0.00000000000E+00 -0.19741672348E+04  0.19741672348E+04  0.25500000000E-02 0.  1.
    8880022    1    1    2    0    0 -0.61803754811E+03  0.66229962483E+03 -0.16909264195E+04  0.19243791241E+04  0.15294330000E+03 0.  0.
    8880022    1    1    2    0    0  0.61803754811E+03 -0.66229962483E+03  0.11006470221E+04  0.14336759481E+04  0.15294330000E+03 0.  0.
<mgrwt>
<rscale>  0 0.91869628E+03</rscale>
<asrwt>0</asrwt>
<pdfrwt beam="1">  1        2 0.21290582E+00 0.91869628E+03</pdfrwt>
<pdfrwt beam="2">  1       -2 0.30371804E+00 0.91869628E+03</pdfrwt>
<totfact> 0.45433425E-01</totfact>
</mgrwt>
</event>
<event>
 4    1  0.1033139E-008  0.4932164E+03  0.7818608E-02  0.1015565E+00
          2   -1    0    0  501    0  0.00000000000E+00  0.00000000000E+00  0.22846843759E+04  0.22846843759E+04  0.25500000000E-02 0. -1.
         -2   -1    0    0    0  501 -0.00000000000E+00 -0.00000000000E+00 -0.36599887168E+03  0.36599887168E+03  0.25500000000E-02 0.  1.
    8880022    1    1    2    0    0 -0.43961962481E+03  0.16311147797E+03  0.20753740680E+04  0.21331760227E+04  0.15294330000E+03 0. -1.
    8880022    1    1    2    0    0  0.43961962481E+03 -0.16311147797E+03 -0.15668856377E+03  0.51750722487E+03  0.15294330000E+03 0.  0.
<mgrwt>
<rscale>  0 0.49321640E+03</rscale>
<asrwt>0</asrwt>
<pdfrwt beam="1">  1        2 0.35148990E+00 0.49321640E+03</pdfrwt>
<pdfrwt beam="2">  1       -2 0.56307519E-01 0.49321640E+03</pdfrwt>
<totfact> 0.14974625E+01</totfact>
</mgrwt>
</event>
<event>
 4    1  0.1033139E-008  0.8462427E+03  0.7818608E-02  0.9495394E-01
          2   -1    0    0  501    0  0.00000000000E+00  0.00000000000E+00  0.19772434822E+04  0.19772434822E+04  0.25500000000E-02 0. -1.
         -2   -1    0    0    0  501 -0.00000000000E+00 -0.00000000000E+00 -0.66230508016E+03  0.66230508017E+03  0.25500000000E-02 0.  1.
    8880022    1    1    2    0    0  0.72522595870E+03  0.40839001994E+03  0.15458897103E+04  0.17623568734E+04  0.15294330000E+03 0.  0.
    8880022    1    1    2    0    0 -0.72522595870E+03 -0.40839001994E+03 -0.23095130824E+03  0.87719168906E+03  0.15294330000E+03 0.  0.
<mgrwt>
<rscale>  0 0.84624273E+03</rscale>
<asrwt>0</asrwt>
<pdfrwt beam="1">  1        2 0.30419130E+00 0.84624273E+03</pdfrwt>
<pdfrwt beam="2">  1       -2 0.10189309E+00 0.84624273E+03</pdfrwt>
<totfact> 0.55443564E+00</totfact>
</mgrwt>
</event>
<event>
 4    1  0.1165089E-008  0.1193951E+04  0.7818608E-02  0.9118168E-01
          2   -1    0    0  501    0  0.00000000000E+00  0.00000000000E+00  0.15769761891E+04  0.15769761891E+04  0.25500000000E-02 0. -1.
         -2   -1    0    0    0  501 -0.00000000000E+00 -0.00000000000E+00 -0.19361318731E+04  0.19361318731E+04  0.25500000000E-02 0.  1.
    8880022    1    1    2    0    0 -0.11483785854E+04  0.28870908393E+03  0.11029617501E+04  0.16254361218E+04  0.15294330000E+03 0.  0.
    8880022    1    1    2    0    0  0.11483785854E+04 -0.28870908393E+03 -0.14621174341E+04  0.18876719404E+04  0.15294330000E+03 0.  0.
<mgrwt>
<rscale>  0 0.11939506E+04</rscale>
<asrwt>0</asrwt>
<pdfrwt beam="1">  1        2 0.24261172E+00 0.11939506E+04</pdfrwt>
<pdfrwt beam="2">  1       -2 0.29786644E+00 0.11939506E+04</pdfrwt>
<totfact> 0.36734114E-01</totfact>
</mgrwt>
</event>
<event>
 4    1  0.1033139E-008  0.8813665E+03  0.7818608E-02  0.9449179E-01
         -2   -1    0    0    0  501 -0.00000000000E+00  0.00000000000E+00  0.10714288215E+04  0.10714288215E+04  0.25500000000E-02 0.  1.
          2   -1    0    0  501    0  0.00000000000E+00 -0.00000000000E+00 -0.78330521643E+03  0.78330521643E+03  0.25500000000E-02 0. -1.
    8880022    1    1    2    0    0 -0.37540836359E+03 -0.78261347271E+03 -0.10890683354E+03  0.88806961356E+03  0.15294330000E+03 0.  0.
    8880022    1    1    2    0    0  0.37540836359E+03  0.78261347271E+03  0.39703043859E+03  0.96666442435E+03  0.15294330000E+03 0.  0.
<mgrwt>
<rscale>  0 0.88136652E+03</rscale>
<asrwt>0</asrwt>
<pdfrwt beam="1">  1        2 0.12050850E+00 0.88136652E+03</pdfrwt>
<pdfrwt beam="2">  1       -2 0.16483520E+00 0.88136652E+03</pdfrwt>
<totfact> 0.82480523E+00</totfact>
</mgrwt>
</event>
<event>
 4    1  0.1033139E-008  0.1029112E+04  0.7818608E-02  0.9277180E-01
         -2   -1    0    0    0  501 -0.00000000000E+00  0.00000000000E+00  0.83228679550E+03  0.83228679550E+03  0.25500000000E-02 0.  1.
          2   -1    0    0  501    0  0.00000000000E+00 -0.00000000000E+00 -0.19178407400E+04  0.19178407400E+04  0.25500000000E-02 0. -1.
    8880022    1    1    2    0    0  0.71419242973E+03 -0.72498851927E+03 -0.13404351397E+04  0.16899222457E+04  0.15294330000E+03 0.  0.
    8880022    1    1    2    0    0 -0.71419242973E+03  0.72498851927E+03  0.25488119524E+03  0.10602052898E+04  0.15294330000E+03 0.  0.
<mgrwt>
<rscale>  0 0.10291117E+04</rscale>
<asrwt>0</asrwt>
<pdfrwt beam="1">  1        2 0.29505242E+00 0.10291117E+04</pdfrwt>
<pdfrwt beam="2">  1       -2 0.12804412E+00 0.10291117E+04</pdfrwt>
<totfact> 0.33290898E+00</totfact>
</mgrwt>
</event>
<event>
 4    1  0.1033139E-008  0.1323999E+04  0.7818608E-02  0.9010747E-01
         -2   -1    0    0    0  501 -0.00000000000E+00  0.00000000000E+00  0.10455472758E+04  0.10455472758E+04  0.25500000000E-02 0.  1.
          2   -1    0    0  501    0  0.00000000000E+00 -0.00000000000E+00 -0.22616853894E+04  0.22616853894E+04  0.25500000000E-02 0. -1.
    8880022    1    1    2    0    0 -0.20237524223E+03 -0.12994716734E+04 -0.14491250808E+04  0.19628900941E+04  0.15294330000E+03 0.  0.
    8880022    1    1    2    0    0  0.20237524223E+03  0.12994716734E+04  0.23298696713E+03  0.13443425711E+04  0.15294330000E+03 0.  0.
<mgrwt>
<rscale>  0 0.13239993E+04</rscale>
<asrwt>0</asrwt>
<pdfrwt beam="1">  1        2 0.34795160E+00 0.13239993E+04</pdfrwt>
<pdfrwt beam="2">  1       -2 0.16085343E+00 0.13239993E+04</pdfrwt>
<totfact> 0.11364315E+00</totfact>
</mgrwt>
</event>
<event>
 4    1  0.1033139E-008  0.1655597E+04  0.7818608E-02  0.8787102E-01
         -2   -1    0    0    0  501 -0.00000000000E+00  0.00000000000E+00  0.13881152547E+04  0.13881152547E+04  0.25500000000E-02 0.  1.
          2   -1    0    0  501    0  0.00000000000E+00 -0.00000000000E+00 -0.27186287713E+04  0.27186287713E+04  0.25500000000E-02 0. -1.
    8880022    1    1    2    0    0 -0.16483273741E+04 -0.25026012472E+02 -0.17394477691E+04  0.24013911859E+04  0.15294330000E+03 0.  0.
    8880022    1    1    2    0    0  0.16483273741E+04  0.25026012472E+02  0.40893425251E+03  0.17053528401E+04  0.15294330000E+03 0.  0.
<mgrwt>
<rscale>  0 0.16555969E+04</rscale>
<asrwt>0</asrwt>
<pdfrwt beam="1">  1        2 0.41825058E+00 0.16555969E+04</pdfrwt>
<pdfrwt beam="2">  1       -2 0.21355619E+00 0.16555969E+04</pdfrwt>
<totfact> 0.25965615E-01</totfact>
</mgrwt>
</event>
<event>
 4    1  0.1033139E-008  0.4842860E+03  0.7818608E-02  0.1017964E+00
         -2   -1    0    0    0  501 -0.00000000000E+00  0.00000000000E+00  0.15686126822E+04  0.15686126822E+04  0.25500000000E-02 0.  1.
          2   -1    0    0  501    0  0.00000000000E+00 -0.00000000000E+00 -0.18055902614E+03  0.18055902616E+03  0.25500000000E-02 0. -1.
    8880022    1    1    2    0    0  0.33222228904E+03  0.31744233404E+03  0.10566652232E+04  0.11623572307E+04  0.15294330000E+03 0.  0.
    8880022    1    1    2    0    0 -0.33222228904E+03 -0.31744233404E+03  0.33138843286E+03  0.58681447769E+03  0.15294330000E+03 0.  0.
<mgrwt>
<rscale>  0 0.48428601E+03</rscale>
<asrwt>0</asrwt>
<pdfrwt beam="1">  1        2 0.27778311E-01 0.48428601E+03</pdfrwt>
<pdfrwt beam="2">  1       -2 0.24132503E+00 0.48428601E+03</pdfrwt>
<totfact> 0.14902106E+01</totfact>
</mgrwt>
</event>
<event>
 4    1  0.1033139E-008  0.3080004E+03  0.7818608E-02  0.1081308E+00
         -2   -1    0    0    0  501 -0.00000000000E+00  0.00000000000E+00  0.45336987190E+02  0.45336987261E+02  0.25500000000E-02 0.  1.
          2   -1    0    0  501    0  0.00000000000E+00 -0.00000000000E+00 -0.23353635764E+04  0.23353635764E+04  0.25500000000E-02 0. -1.
    8880022    1    1    2    0    0  0.62663721520E+02  0.25989587753E+03 -0.76108913666E+03  0.82104868072E+03  0.15294330000E+03 0.  1.
    8880022    1    1    2    0    0 -0.62663721520E+02 -0.25989587753E+03 -0.15289374526E+04  0.15596518830E+04  0.15294330000E+03 0. -1.
<mgrwt>
<rscale>  0 0.30800043E+03</rscale>
<asrwt>0</asrwt>
<pdfrwt beam="1">  1        2 0.35928661E+00 0.30800043E+03</pdfrwt>
<pdfrwt beam="2">  1       -2 0.69749229E-02 0.30800043E+03</pdfrwt>
<totfact> 0.57408951E+02</totfact>
</mgrwt>
</event>
<event>
 4    1  0.1033139E-008  0.4666294E+03  0.7818608E-02  0.1022876E+00
          2   -1    0    0  501    0  0.00000000000E+00  0.00000000000E+00  0.79009843060E+03  0.79009843061E+03  0.25500000000E-02 0. -1.
         -2   -1    0    0    0  501 -0.00000000000E+00 -0.00000000000E+00 -0.63514520666E+03  0.63514520666E+03  0.25500000000E-02 0.  1.
    8880022    1    1    2    0    0 -0.22986491064E+03 -0.37618273053E+03 -0.45869718320E+03  0.65432872685E+03  0.15294330000E+03 0.  0.
    8880022    1    1    2    0    0  0.22986491064E+03  0.37618273053E+03  0.61365040715E+03  0.77091491042E+03  0.15294330000E+03 0.  0.
<mgrwt>
<rscale>  0 0.46662938E+03</rscale>
<asrwt>0</asrwt>
<pdfrwt beam="1">  1        2 0.12155361E+00 0.46662938E+03</pdfrwt>
<pdfrwt beam="2">  1       -2 0.97714647E-01 0.46662938E+03</pdfrwt>
<totfact> 0.31965899E+01</totfact>
</mgrwt>
</event>
<event>
 4    1  0.1033139E-008  0.8258054E+03  0.7818608E-02  0.9523398E-01
         -2   -1    0    0    0  501 -0.00000000000E+00  0.00000000000E+00  0.96505131808E+03  0.96505131808E+03  0.25500000000E-02 0.  1.
          2   -1    0    0  501    0  0.00000000000E+00 -0.00000000000E+00 -0.16103514667E+04  0.16103514667E+04  0.25500000000E-02 0. -1.
    8880022    1    1    2    0    0 -0.81151824552E+03 -0.10332037244E+01  0.64199390045E+03  0.10459974912E+04  0.15294330000E+03 0.  0.
    8880022    1    1    2    0    0  0.81151824552E+03  0.10332037244E+01 -0.12872940491E+04  0.15294052936E+04  0.15294330000E+03 0.  0.
<mgrwt>
<rscale>  0 0.82580541E+03</rscale>
<asrwt>0</asrwt>
<pdfrwt beam="1">  1        2 0.24774638E+00 0.82580541E+03</pdfrwt>
<pdfrwt beam="2">  1       -2 0.14846943E+00 0.82580541E+03</pdfrwt>
<totfact> 0.34447240E+00</totfact>
</mgrwt>
</event>
<event>
 4    1  0.1033139E-008  0.5940838E+03  0.7818608E-02  0.9917757E-01
         -2   -1    0    0    0  501 -0.00000000000E+00  0.00000000000E+00  0.20589201631E+04  0.20589201631E+04  0.25500000000E-02 0.  1.
          2   -1    0    0  501    0  0.00000000000E+00 -0.00000000000E+00 -0.88615848707E+03  0.88615848707E+03  0.25500000000E-02 0. -1.
    8880022    1    1    2    0    0  0.29227399366E+03 -0.49408484288E+03 -0.73608801612E+03  0.94591814647E+03  0.15294330000E+03 0.  0.
    8880022    1    1    2    0    0 -0.29227399366E+03  0.49408484288E+03  0.19088496921E+04  0.19991605037E+04  0.15294330000E+03 0.  0.
<mgrwt>
<rscale>  0 0.59408381E+03</rscale>
<asrwt>0</asrwt>
<pdfrwt beam="1">  1        2 0.13633208E+00 0.59408381E+03</pdfrwt>
<pdfrwt beam="2">  1       -2 0.31675694E+00 0.59408381E+03</pdfrwt>
<totfact> 0.81572510E-01</totfact>
</mgrwt>
</event>
<event>
 4    1  0.1033139E-008  0.4879006E+03  0.7818608E-02  0.1016986E+00
          2   -1    0    0  501    0  0.00000000000E+00  0.00000000000E+00  0.62712567838E+03  0.62712567838E+03  0.25500000000E-02 0. -1.
         -2   -1    0    0    0  501 -0.00000000000E+00 -0.00000000000E+00 -0.49844428455E+03  0.49844428455E+03  0.25500000000E-02 0.  1.
    8880022    1    1    2    0    0  0.25266138727E+03 -0.38835237606E+03  0.33916314901E+03  0.59420420671E+03  0.15294330000E+03 0.  0.
    8880022    1    1    2    0    0 -0.25266138727E+03  0.38835237606E+03 -0.21048175518E+03  0.53136575623E+03  0.15294330000E+03 0.  0.
<mgrwt>
<rscale>  0 0.48790060E+03</rscale>
<asrwt>0</asrwt>
<pdfrwt beam="1">  1        2 0.96480873E-01 0.48790060E+03</pdfrwt>
<pdfrwt beam="2">  1       -2 0.76683737E-01 0.48790060E+03</pdfrwt>
<totfact> 0.73799667E+01</totfact>
</mgrwt>
</event>
<event>
 4    1  0.1033139E-008  0.7943665E+03  0.7818608E-02  0.9568207E-01
         -2   -1    0    0    0  501 -0.00000000000E+00  0.00000000000E+00  0.96950862678E+03  0.96950862678E+03  0.25500000000E-02 0.  1.
          2   -1    0    0  501    0  0.00000000000E+00 -0.00000000000E+00 -0.85490307399E+03  0.85490307400E+03  0.25500000000E-02 0. -1.
    8880022    1    1    2    0    0 -0.41708148873E+03 -0.65853585187E+03 -0.38834452007E+03  0.88421126192E+03  0.15294330000E+03 0.  0.
    8880022    1    1    2    0    0  0.41708148873E+03  0.65853585187E+03  0.50295007285E+03  0.94020043886E+03  0.15294330000E+03 0.  0.
<mgrwt>
<rscale>  0 0.79436647E+03</rscale>
<asrwt>0</asrwt>
<pdfrwt beam="1">  1        2 0.13152355E+00 0.79436647E+03</pdfrwt>
<pdfrwt beam="2">  1       -2 0.14915517E+00 0.79436647E+03</pdfrwt>
<totfact> 0.96887607E+00</totfact>
</mgrwt>
</event>
<event>
 4    1  0.1033139E-008  0.3413472E+03  0.7818608E-02  0.1066224E+00
         -2   -1    0    0    0  501 -0.00000000000E+00  0.00000000000E+00  0.71444721949E+03  0.71444721949E+03  0.25500000000E-02 0.  1.
          2   -1    0    0  501    0  0.00000000000E+00 -0.00000000000E+00 -0.23400043353E+03  0.23400043354E+03  0.25500000000E-02 0. -1.
    8880022    1    1    2    0    0  0.29768724141E+03  0.67146096487E+02 -0.20833687184E+02  0.34198243742E+03  0.15294330000E+03 0.  0.
    8880022    1    1    2    0    0 -0.29768724141E+03 -0.67146096487E+02  0.50128047315E+03  0.60646521561E+03  0.15294330000E+03 0.  0.
<mgrwt>
<rscale>  0 0.34134725E+03</rscale>
<asrwt>0</asrwt>
<pdfrwt beam="1">  1        2 0.36000067E-01 0.34134725E+03</pdfrwt>
<pdfrwt beam="2">  1       -2 0.10991496E+00 0.34134725E+03</pdfrwt>
<totfact> 0.98527351E+01</totfact>
</mgrwt>
</event>
<event>
 4    1  0.1033139E-008  0.1306624E+04  0.7818608E-02  0.9024329E-01
          2   -1    0    0  501    0  0.00000000000E+00  0.00000000000E+00  0.67823550957E+03  0.67823550957E+03  0.25500000000E-02 0. -1.
         -2   -1    0    0    0  501 -0.00000000000E+00 -0.00000000000E+00 -0.29831375171E+04  0.29831375171E+04  0.25500000000E-02 0.  1.
    8880022    1    1    2    0    0  0.11596891239E+04  0.58223296552E+03 -0.42895954562E+03  0.13752352654E+04  0.15294330000E+03 0.  0.
    8880022    1    1    2    0    0 -0.11596891239E+04 -0.58223296552E+03 -0.18759424619E+04  0.22861377613E+04  0.15294330000E+03 0.  0.
<mgrwt>
<rscale>  0 0.13066238E+04</rscale>
<asrwt>0</asrwt>
<pdfrwt beam="1">  1        2 0.10434393E+00 0.13066238E+04</pdfrwt>
<pdfrwt beam="2">  1       -2 0.45894422E+00 0.13066238E+04</pdfrwt>
<totfact> 0.12602454E-01</totfact>
</mgrwt>
</event>
<event>
 4    1  0.1033139E-008  0.1363343E+04  0.7818608E-02  0.8980788E-01
          2   -1    0    0  501    0  0.00000000000E+00  0.00000000000E+00  0.42481043989E+04  0.42481043989E+04  0.25500000000E-02 0. -1.
         -2   -1    0    0    0  501 -0.00000000000E+00 -0.00000000000E+00 -0.46195234073E+03  0.46195234074E+03  0.25500000000E-02 0.  1.
    8880022    1    1    2    0    0  0.10554908257E+04  0.84926588606E+03  0.13516685018E+04  0.19198210386E+04  0.15294330000E+03 0.  0.
    8880022    1    1    2    0    0 -0.10554908257E+04 -0.84926588606E+03  0.24344835563E+04  0.27902357010E+04  0.15294330000E+03 0.  0.
<mgrwt>
<rscale>  0 0.13633433E+04</rscale>
<asrwt>0</asrwt>
<pdfrwt beam="1">  1        2 0.65355452E+00 0.13633433E+04</pdfrwt>
<pdfrwt beam="2">  1       -2 0.71069591E-01 0.13633433E+04</pdfrwt>
<totfact> 0.37951881E-01</totfact>
</mgrwt>
</event>
<event>
 4    1  0.1033139E-008  0.1255148E+04  0.7818608E-02  0.9065910E-01
         -2   -1    0    0    0  501 -0.00000000000E+00  0.00000000000E+00  0.82673433149E+03  0.82673433150E+03  0.25500000000E-02 0.  1.
          2   -1    0    0  501    0  0.00000000000E+00 -0.00000000000E+00 -0.24680113972E+04  0.24680113972E+04  0.25500000000E-02 0. -1.
    8880022    1    1    2    0    0 -0.43365058605E+03  0.11678832220E+04 -0.34210404936E+02  0.12556138163E+04  0.15294330000E+03 0.  0.
    8880022    1    1    2    0    0  0.43365058605E+03 -0.11678832220E+04 -0.16070666608E+04  0.20391319124E+04  0.15294330000E+03 0.  0.
<mgrwt>
<rscale>  0 0.12551477E+04</rscale>
<asrwt>0</asrwt>
<pdfrwt beam="1">  1        2 0.37969406E+00 0.12551477E+04</pdfrwt>
<pdfrwt beam="2">  1       -2 0.12718990E+00 0.12551477E+04</pdfrwt>
<totfact> 0.16225135E+00</totfact>
</mgrwt>
</event>
<event>
 4    1  0.1033139E-008  0.9134271E+03  0.7818608E-02  0.9408951E-01
          2   -1    0    0  501    0  0.00000000000E+00  0.00000000000E+00  0.33231093917E+04  0.33231093917E+04  0.25500000000E-02 0. -1.
         -2   -1    0    0    0  501 -0.00000000000E+00 -0.00000000000E+00 -0.33383252177E+03  0.33383252178E+03  0.25500000000E-02 0.  1.
    8880022    1    1    2    0    0 -0.89213107412E+03 -0.12271723803E+03  0.58424732672E+03  0.10842942247E+04  0.15294330000E+03 0.  0.
    8880022    1    1    2    0    0  0.89213107412E+03  0.12271723803E+03  0.24050295432E+04  0.25726476888E+04  0.15294330000E+03 0.  0.
<mgrwt>
<rscale>  0 0.91342708E+03</rscale>
<asrwt>0</asrwt>
<pdfrwt beam="1">  1        2 0.51124758E+00 0.91342708E+03</pdfrwt>
<pdfrwt beam="2">  1       -2 0.51358851E-01 0.91342708E+03</pdfrwt>
<totfact> 0.40275809E+00</totfact>
</mgrwt>
</event>
<event>
 4    1  0.1033139E-008  0.1319550E+04  0.7818608E-02  0.9014204E-01
          2   -1    0    0  501    0  0.00000000000E+00  0.00000000000E+00  0.87730376257E+03  0.87730376257E+03  0.25500000000E-02 0. -1.
         -2   -1    0    0    0  501 -0.00000000000E+00 -0.00000000000E+00 -0.23587071995E+04  0.23587071995E+04  0.25500000000E-02 0.  1.
    8880022    1    1    2    0    0  0.64279493020E+03  0.11422057856E+04 -0.13849682593E+04  0.19129422656E+04  0.15294330000E+03 0.  0.
    8880022    1    1    2    0    0 -0.64279493020E+03 -0.11422057856E+04 -0.96435177561E+02  0.13230686965E+04  0.15294330000E+03 0.  1.
<mgrwt>
<rscale>  0 0.13195496E+04</rscale>
<asrwt>0</asrwt>
<pdfrwt beam="1">  1        2 0.13496981E+00 0.13195496E+04</pdfrwt>
<pdfrwt beam="2">  1       -2 0.36287803E+00 0.13195496E+04</pdfrwt>
<totfact> 0.38035027E-01</totfact>
</mgrwt>
</event>
<event>
 4    1  0.1033139E-008  0.8387981E+03  0.7818608E-02  0.9505496E-01
          2   -1    0    0  501    0  0.00000000000E+00  0.00000000000E+00  0.10422781835E+04  0.10422781835E+04  0.25500000000E-02 0. -1.
         -2   -1    0    0    0  501 -0.00000000000E+00 -0.00000000000E+00 -0.15786747016E+04  0.15786747016E+04  0.25500000000E-02 0.  1.
    8880022    1    1    2    0    0 -0.77650573122E+03  0.27790184221E+03  0.72326974760E+03  0.11075655129E+04  0.15294330000E+03 0.  0.
    8880022    1    1    2    0    0  0.77650573122E+03 -0.27790184221E+03 -0.12596662656E+04  0.15133873722E+04  0.15294330000E+03 0.  0.
<mgrwt>
<rscale>  0 0.83879809E+03</rscale>
<asrwt>0</asrwt>
<pdfrwt beam="1">  1        2 0.16035049E+00 0.83879809E+03</pdfrwt>
<pdfrwt beam="2">  1       -2 0.24287303E+00 0.83879809E+03</pdfrwt>
<totfact> 0.17141005E+00</totfact>
</mgrwt>
</event>
<event>
 4    1  0.1033139E-008  0.1241330E+04  0.7818608E-02  0.9077430E-01
         -2   -1    0    0    0  501 -0.00000000000E+00  0.00000000000E+00  0.16422615821E+04  0.16422615821E+04  0.25500000000E-02 0.  1.
          2   -1    0    0  501    0  0.00000000000E+00 -0.00000000000E+00 -0.16931978397E+04  0.16931978397E+04  0.25500000000E-02 0. -1.
    8880022    1    1    2    0    0 -0.20004529121E+03 -0.12155205682E+04 -0.11390492582E+04  0.16847353608E+04  0.15294330000E+03 0.  0.
    8880022    1    1    2    0    0  0.20004529121E+03  0.12155205682E+04  0.10881130006E+04  0.16507240610E+04  0.15294330000E+03 0.  0.
<mgrwt>
<rscale>  0 0.12413299E+04</rscale>
<asrwt>0</asrwt>
<pdfrwt beam="1">  1        2 0.26049198E+00 0.12413299E+04</pdfrwt>
<pdfrwt beam="2">  1       -2 0.25265563E+00 0.12413299E+04</pdfrwt>
<totfact> 0.59193419E-01</totfact>
</mgrwt>
</event>
<event>
 4    1  0.1033139E-008  0.4327410E+03  0.7818608E-02  0.1032998E+00
         -2   -1    0    0    0  501 -0.00000000000E+00  0.00000000000E+00  0.10725089606E+03  0.10725089609E+03  0.25500000000E-02 0.  1.
          2   -1    0    0  501    0  0.00000000000E+00 -0.00000000000E+00 -0.18697518086E+04  0.18697518086E+04  0.25500000000E-02 0. -1.
    8880022    1    1    2    0    0  0.40266268261E+03  0.41663596754E+02 -0.11355142292E+04  0.12151778920E+04  0.15294330000E+03 0.  0.
    8880022    1    1    2    0    0 -0.40266268261E+03 -0.41663596754E+02 -0.62698668334E+03  0.76182481277E+03  0.15294330000E+03 0.  0.
<mgrwt>
<rscale>  0 0.43274097E+03</rscale>
<asrwt>0</asrwt>
<pdfrwt beam="1">  1        2 0.28765410E+00 0.43274097E+03</pdfrwt>
<pdfrwt beam="2">  1       -2 0.16500139E-01 0.43274097E+03</pdfrwt>
<totfact> 0.24812191E+02</totfact>
</mgrwt>
</event>
<event>
 4    1  0.1033139E-008  0.1225332E+04  0.7818608E-02  0.9090968E-01
         -2   -1    0    0    0  501 -0.00000000000E+00  0.00000000000E+00  0.13492323871E+04  0.13492323871E+04  0.25500000000E-02 0.  1.
          2   -1    0    0  501    0  0.00000000000E+00 -0.00000000000E+00 -0.17399035104E+04  0.17399035104E+04  0.25500000000E-02 0. -1.
    8880022    1    1    2    0    0  0.11513710215E+04  0.39037271246E+03 -0.11226157668E+04  0.16618375061E+04  0.15294330000E+03 0.  0.
    8880022    1    1    2    0    0 -0.11513710215E+04 -0.39037271246E+03  0.73194464353E+03  0.14272983914E+04  0.15294330000E+03 0.  0.
<mgrwt>
<rscale>  0 0.12253317E+04</rscale>
<asrwt>0</asrwt>
<pdfrwt beam="1">  1        2 0.26767746E+00 0.12253317E+04</pdfrwt>
<pdfrwt beam="2">  1       -2 0.20757421E+00 0.12253317E+04</pdfrwt>
<totfact> 0.10701158E+00</totfact>
</mgrwt>
</event>
<event>
 4    1  0.1033139E-008  0.5616711E+03  0.7818608E-02  0.9988281E-01
          2   -1    0    0  501    0  0.00000000000E+00  0.00000000000E+00  0.42549730526E+03  0.42549730527E+03  0.25500000000E-02 0. -1.
         -2   -1    0    0    0  501 -0.00000000000E+00 -0.00000000000E+00 -0.10705787282E+04  0.10705787282E+04  0.25500000000E-02 0.  1.
    8880022    1    1    2    0    0 -0.47273374889E+02  0.53837533954E+03 -0.73731670501E+03  0.92688206084E+03  0.15294330000E+03 0.  0.
    8880022    1    1    2    0    0  0.47273374889E+02 -0.53837533954E+03  0.92235282088E+02  0.56919397262E+03  0.15294330000E+03 0. -1.
<mgrwt>
<rscale>  0 0.56167111E+03</rscale>
<asrwt>0</asrwt>
<pdfrwt beam="1">  1        2 0.65461124E-01 0.56167111E+03</pdfrwt>
<pdfrwt beam="2">  1       -2 0.16470442E+00 0.56167111E+03</pdfrwt>
<totfact> 0.17833228E+01</totfact>
</mgrwt>
</event>
<event>
 4    1  0.1033139E-008  0.7329489E+03  0.7818608E-02  0.9662487E-01
          2   -1    0    0  501    0  0.00000000000E+00  0.00000000000E+00  0.12252627546E+04  0.12252627546E+04  0.25500000000E-02 0. -1.
         -2   -1    0    0    0  501 -0.00000000000E+00 -0.00000000000E+00 -0.58749381405E+03  0.58749381406E+03  0.25500000000E-02 0.  1.
    8880022    1    1    2    0    0  0.71679056321E+03 -0.58134357452E+01 -0.13764366590E+03  0.74576131525E+03  0.15294330000E+03 0.  0.
    8880022    1    1    2    0    0 -0.71679056321E+03  0.58134357452E+01  0.77541260644E+03  0.10669952534E+04  0.15294330000E+03 0.  0.
<mgrwt>
<rscale>  0 0.73294895E+03</rscale>
<asrwt>0</asrwt>
<pdfrwt beam="1">  1        2 0.18850196E+00 0.73294895E+03</pdfrwt>
<pdfrwt beam="2">  1       -2 0.90383664E-01 0.73294895E+03</pdfrwt>
<totfact> 0.19556455E+01</totfact>
</mgrwt>
</event>
<event>
 4    1  0.1033139E-008  0.1488758E+04  0.7818608E-02  0.8891963E-01
         -2   -1    0    0    0  501 -0.00000000000E+00  0.00000000000E+00  0.67930206476E+03  0.67930206476E+03  0.25500000000E-02 0.  1.
          2   -1    0    0  501    0  0.00000000000E+00 -0.00000000000E+00 -0.38942247657E+04  0.38942247657E+04  0.25500000000E-02 0. -1.
    8880022    1    1    2    0    0  0.12995240705E+03 -0.14751682662E+04 -0.25283025418E+04  0.29340610828E+04  0.15294330000E+03 0.  0.
    8880022    1    1    2    0    0 -0.12995240705E+03  0.14751682662E+04 -0.68662015914E+03  0.16394657477E+04  0.15294330000E+03 0.  0.
<mgrwt>
<rscale>  0 0.14887581E+04</rscale>
<asrwt>0</asrwt>
<pdfrwt beam="1">  1        2 0.59911149E+00 0.14887581E+04</pdfrwt>
<pdfrwt beam="2">  1       -2 0.10450801E+00 0.14887581E+04</pdfrwt>
<totfact> 0.29909748E-01</totfact>
</mgrwt>
</event>
<event>
 4    1  0.1033139E-008  0.8734624E+03  0.7818608E-02  0.9459377E-01
         -2   -1    0    0    0  501 -0.00000000000E+00  0.00000000000E+00  0.10223536393E+04  0.10223536393E+04  0.25500000000E-02 0.  1.
          2   -1    0    0  501    0  0.00000000000E+00 -0.00000000000E+00 -0.10731801380E+04  0.10731801380E+04  0.25500000000E-02 0. -1.
    8880022    1    1    2    0    0  0.81879683702E+03 -0.26290050531E+03 -0.60371228282E+03  0.10617933459E+04  0.15294330000E+03 0.  0.
    8880022    1    1    2    0    0 -0.81879683702E+03  0.26290050531E+03  0.55288578412E+03  0.10337404313E+04  0.15294330000E+03 0.  0.
<mgrwt>
<rscale>  0 0.87346241E+03</rscale>
<asrwt>0</asrwt>
<pdfrwt beam="1">  1        2 0.16510464E+00 0.87346241E+03</pdfrwt>
<pdfrwt beam="2">  1       -2 0.15728517E+00 0.87346241E+03</pdfrwt>
<totfact> 0.60008751E+00</totfact>
</mgrwt>
</event>
<event>
 4    1  0.1033139E-008  0.1170965E+04  0.7818608E-02  0.9138657E-01
         -2   -1    0    0    0  501 -0.00000000000E+00  0.00000000000E+00  0.11635533839E+04  0.11635533839E+04  0.25500000000E-02 0.  1.
          2   -1    0    0  501    0  0.00000000000E+00 -0.00000000000E+00 -0.27125948578E+04  0.27125948578E+04  0.25500000000E-02 0. -1.
    8880022    1    1    2    0    0 -0.86086848789E+03 -0.77889259760E+03 -0.22320413331E+04  0.25205492254E+04  0.15294330000E+03 0.  0.
    8880022    1    1    2    0    0  0.86086848789E+03  0.77889259760E+03  0.68299985920E+03  0.13555990162E+04  0.15294330000E+03 0.  0.
<mgrwt>
<rscale>  0 0.11709654E+04</rscale>
<asrwt>0</asrwt>
<pdfrwt beam="1">  1        2 0.41732228E+00 0.11709654E+04</pdfrwt>
<pdfrwt beam="2">  1       -2 0.17900821E+00 0.11709654E+04</pdfrwt>
<totfact> 0.47263276E-01</totfact>
</mgrwt>
</event>
<event>
 4    1  0.1033139E-008  0.6065173E+03  0.7818608E-02  0.9891976E-01
          2   -1    0    0  501    0  0.00000000000E+00  0.00000000000E+00  0.47349308035E+04  0.47349308035E+04  0.25500000000E-02 0. -1.
         -2   -1    0    0    0  501 -0.00000000000E+00 -0.00000000000E+00 -0.23400680903E+03  0.23400680904E+03  0.25500000000E-02 0.  1.
    8880022    1    1    2    0    0  0.32140498957E+03 -0.49109099946E+03  0.42810427215E+04  0.43237934703E+04  0.15294330000E+03 0.  0.
    8880022    1    1    2    0    0 -0.32140498957E+03  0.49109099946E+03  0.21988127292E+03  0.64514414224E+03  0.15294330000E+03 0.  0.
<mgrwt>
<rscale>  0 0.60651726E+03</rscale>
<asrwt>0</asrwt>
<pdfrwt beam="1">  1        2 0.72845088E+00 0.60651726E+03</pdfrwt>
<pdfrwt beam="2">  1       -2 0.36001048E-01 0.60651726E+03</pdfrwt>
<totfact> 0.61715826E-01</totfact>
</mgrwt>
</event>
<event>
 4    1  0.1033139E-008  0.4602775E+03  0.7818608E-02  0.1024701E+00
         -2   -1    0    0    0  501 -0.00000000000E+00  0.00000000000E+00  0.12138004449E+04  0.12138004449E+04  0.25500000000E-02 0.  1.
          2   -1    0    0  501    0  0.00000000000E+00 -0.00000000000E+00 -0.50495680902E+03  0.50495680902E+03  0.25500000000E-02 0. -1.
    8880022    1    1    2    0    0 -0.14079312520E+03  0.41065921974E+03  0.10495889727E+04  0.11460769449E+04  0.15294330000E+03 0.  0.
    8880022    1    1    2    0    0  0.14079312520E+03 -0.41065921974E+03 -0.34074533680E+03  0.57268030910E+03  0.15294330000E+03 0.  0.
<mgrwt>
<rscale>  0 0.46027747E+03</rscale>
<asrwt>0</asrwt>
<pdfrwt beam="1">  1        2 0.77685663E-01 0.46027747E+03</pdfrwt>
<pdfrwt beam="2">  1       -2 0.18673853E+00 0.46027747E+03</pdfrwt>
<totfact> 0.10496736E+01</totfact>
</mgrwt>
</event>
<event>
 4    1  0.1033139E-008  0.5751559E+03  0.7818608E-02  0.9958334E-01
          2   -1    0    0  501    0  0.00000000000E+00  0.00000000000E+00  0.14186334299E+04  0.14186334299E+04  0.25500000000E-02 0. -1.
         -2   -1    0    0    0  501 -0.00000000000E+00 -0.00000000000E+00 -0.10519853680E+04  0.10519853680E+04  0.25500000000E-02 0.  1.
    8880022    1    1    2    0    0  0.30175435198E+03  0.46514188610E+03  0.12731567908E+04  0.13970442119E+04  0.15294330000E+03 0.  0.
    8880022    1    1    2    0    0 -0.30175435198E+03 -0.46514188610E+03 -0.90650872890E+03  0.10735745860E+04  0.15294330000E+03 0.  0.
<mgrwt>
<rscale>  0 0.57515591E+03</rscale>
<asrwt>0</asrwt>
<pdfrwt beam="1">  1        2 0.21825130E+00 0.57515591E+03</pdfrwt>
<pdfrwt beam="2">  1       -2 0.16184390E+00 0.57515591E+03</pdfrwt>
<totfact> 0.36497449E+00</totfact>
</mgrwt>
</event>
<event>
 4    1  0.1033139E-008  0.6344426E+03  0.7818608E-02  0.9836418E-01
         -2   -1    0    0    0  501 -0.00000000000E+00  0.00000000000E+00  0.27071344087E+03  0.27071344088E+03  0.25500000000E-02 0.  1.
          2   -1    0    0  501    0  0.00000000000E+00 -0.00000000000E+00 -0.24470223091E+04  0.24470223091E+04  0.25500000000E-02 0. -1.
    8880022    1    1    2    0    0 -0.27606008080E+03  0.55037858922E+03 -0.19393451864E+04  0.20404845417E+04  0.15294330000E+03 0.  0.
    8880022    1    1    2    0    0  0.27606008080E+03 -0.55037858922E+03 -0.23696368185E+03  0.67725120835E+03  0.15294330000E+03 0.  0.
<mgrwt>
<rscale>  0 0.63444260E+03</rscale>
<asrwt>0</asrwt>
<pdfrwt beam="1">  1        2 0.37646496E+00 0.63444260E+03</pdfrwt>
<pdfrwt beam="2">  1       -2 0.41648223E-01 0.63444260E+03</pdfrwt>
<totfact> 0.21712227E+01</totfact>
</mgrwt>
</event>
<event>
 4    1  0.1033139E-008  0.6232624E+03  0.7818608E-02  0.9858286E-01
          2   -1    0    0  501    0  0.00000000000E+00  0.00000000000E+00  0.12936913094E+04  0.12936913094E+04  0.25500000000E-02 0. -1.
         -2   -1    0    0    0  501 -0.00000000000E+00 -0.00000000000E+00 -0.12578795527E+04  0.12578795527E+04  0.25500000000E-02 0.  1.
    8880022    1    1    2    0    0  0.38908611883E+03 -0.46225142510E+03  0.11310527194E+04  0.12914086475E+04  0.15294330000E+03 0.  0.
    8880022    1    1    2    0    0 -0.38908611883E+03  0.46225142510E+03 -0.10952409627E+04  0.12601622147E+04  0.15294330000E+03 0.  0.
<mgrwt>
<rscale>  0 0.62326242E+03</rscale>
<asrwt>0</asrwt>
<pdfrwt beam="1">  1        2 0.19902943E+00 0.62326242E+03</pdfrwt>
<pdfrwt beam="2">  1       -2 0.19351993E+00 0.62326242E+03</pdfrwt>
<totfact> 0.25733322E+00</totfact>
</mgrwt>
</event>
<event>
 4    1  0.1033139E-008  0.1477132E+04  0.7818608E-02  0.8899804E-01
          2   -1    0    0  501    0  0.00000000000E+00  0.00000000000E+00  0.20829074370E+04  0.20829074370E+04  0.25500000000E-02 0. -1.
         -2   -1    0    0    0  501 -0.00000000000E+00 -0.00000000000E+00 -0.19907873958E+04  0.19907873958E+04  0.25500000000E-02 0.  1.
    8880022    1    1    2    0    0  0.80686265828E+03  0.12278024411E+04  0.14480989762E+04  0.20685522671E+04  0.15294330000E+03 0.  0.
    8880022    1    1    2    0    0 -0.80686265828E+03 -0.12278024411E+04 -0.13559789350E+04  0.20051425657E+04  0.15294330000E+03 0.  0.
<mgrwt>
<rscale>  0 0.14771316E+04</rscale>
<asrwt>0</asrwt>
<pdfrwt beam="1">  1        2 0.32044730E+00 0.14771316E+04</pdfrwt>
<pdfrwt beam="2">  1       -2 0.30627498E+00 0.14771316E+04</pdfrwt>
<totfact> 0.16436040E-01</totfact>
</mgrwt>
</event>
<event>
 4    1  0.1033139E-008  0.1045849E+04  0.7818608E-02  0.9259640E-01
         -2   -1    0    0    0  501 -0.00000000000E+00  0.00000000000E+00  0.15997514231E+04  0.15997514231E+04  0.25500000000E-02 0.  1.
          2   -1    0    0  501    0  0.00000000000E+00 -0.00000000000E+00 -0.11115092031E+04  0.11115092031E+04  0.25500000000E-02 0. -1.
    8880022    1    1    2    0    0 -0.84418398170E+03  0.59813267814E+03 -0.59687434894E+03  0.12041843451E+04  0.15294330000E+03 0.  0.
    8880022    1    1    2    0    0  0.84418398170E+03 -0.59813267814E+03  0.10851165689E+04  0.15070762810E+04  0.15294330000E+03 0.  0.
<mgrwt>
<rscale>  0 0.10458494E+04</rscale>
<asrwt>0</asrwt>
<pdfrwt beam="1">  1        2 0.17100142E+00 0.10458494E+04</pdfrwt>
<pdfrwt beam="2">  1       -2 0.24611560E+00 0.10458494E+04</pdfrwt>
<totfact> 0.14415023E+00</totfact>
</mgrwt>
</event>
<event>
 4    1  0.1033139E-008  0.3755650E+03  0.7818608E-02  0.1052585E+00
          2   -1    0    0  501    0  0.00000000000E+00  0.00000000000E+00  0.21179164863E+04  0.21179164863E+04  0.25500000000E-02 0. -1.
         -2   -1    0    0    0  501 -0.00000000000E+00 -0.00000000000E+00 -0.10431095541E+03  0.10431095544E+03  0.25500000000E-02 0.  1.
    8880022    1    1    2    0    0 -0.33889494169E+03  0.52987034082E+02  0.16748984627E+04  0.17164888350E+04  0.15294330000E+03 0.  0.
    8880022    1    1    2    0    0  0.33889494169E+03 -0.52987034082E+02  0.33870706817E+03  0.50573860672E+03  0.15294330000E+03 0.  0.
<mgrwt>
<rscale>  0 0.37556499E+03</rscale>
<asrwt>0</asrwt>
<pdfrwt beam="1">  1        2 0.32583327E+00 0.37556499E+03</pdfrwt>
<pdfrwt beam="2">  1       -2 0.16047841E-01 0.37556499E+03</pdfrwt>
<totfact> 0.19337100E+02</totfact>
</mgrwt>
</event>
<event>
 4    1  0.1033139E-008  0.1020499E+04  0.7818608E-02  0.9286343E-01
         -2   -1    0    0    0  501 -0.00000000000E+00  0.00000000000E+00  0.24800271513E+04  0.24800271513E+04  0.25500000000E-02 0.  1.
          2   -1    0    0  501    0  0.00000000000E+00 -0.00000000000E+00 -0.15047552925E+04  0.15047552925E+04  0.25500000000E-02 0. -1.
    8880022    1    1    2    0    0 -0.28344154961E+03 -0.96834244696E+03  0.21793353109E+04  0.24064330983E+04  0.15294330000E+03 0.  0.
    8880022    1    1    2    0    0  0.28344154961E+03  0.96834244696E+03 -0.12040634521E+04  0.15783493455E+04  0.15294330000E+03 0.  0.
<mgrwt>
<rscale>  0 0.10204988E+04</rscale>
<asrwt>0</asrwt>
<pdfrwt beam="1">  1        2 0.23150081E+00 0.10204988E+04</pdfrwt>
<pdfrwt beam="2">  1       -2 0.38154264E+00 0.10204988E+04</pdfrwt>
<totfact> 0.12502928E-01</totfact>
</mgrwt>
</event>
<event>
 4    1  0.1033139E-008  0.7341714E+03  0.7818608E-02  0.9660515E-01
         -2   -1    0    0    0  501 -0.00000000000E+00  0.00000000000E+00  0.54037402108E+03  0.54037402108E+03  0.25500000000E-02 0.  1.
          2   -1    0    0  501    0  0.00000000000E+00 -0.00000000000E+00 -0.37475221168E+04  0.37475221168E+04  0.25500000000E-02 0. -1.
    8880022    1    1    2    0    0 -0.61189437051E+03 -0.37576756138E+03 -0.34401652964E+04  0.35176334232E+04  0.15294330000E+03 0.  0.
    8880022    1    1    2    0    0  0.61189437051E+03  0.37576756138E+03  0.23301720062E+03  0.77026271469E+03  0.15294330000E+03 0.  0.
<mgrwt>
<rscale>  0 0.73417139E+03</rscale>
<asrwt>0</asrwt>
<pdfrwt beam="1">  1        2 0.57654185E+00 0.73417139E+03</pdfrwt>
<pdfrwt beam="2">  1       -2 0.83134467E-01 0.73417139E+03</pdfrwt>
<totfact> 0.75322246E-01</totfact>
</mgrwt>
</event>
<event>
 4    1  0.1033139E-008  0.4511137E+03  0.7818608E-02  0.1027390E+00
          2   -1    0    0  501    0  0.00000000000E+00  0.00000000000E+00  0.25420538732E+04  0.25420538732E+04  0.25500000000E-02 0. -1.
         -2   -1    0    0    0  501 -0.00000000000E+00 -0.00000000000E+00 -0.43038063202E+03  0.43038063202E+03  0.25500000000E-02 0.  1.
    8880022    1    1    2    0    0 -0.32947346118E+03 -0.26750535916E+03  0.23967231881E+04  0.24388082278E+04  0.15294330000E+03 0.  0.
    8880022    1    1    2    0    0  0.32947346118E+03  0.26750535916E+03 -0.28504994683E+03  0.53362627747E+03  0.15294330000E+03 0.  1.
<mgrwt>
<rscale>  0 0.45111366E+03</rscale>
<asrwt>0</asrwt>
<pdfrwt beam="1">  1        2 0.39108521E+00 0.45111366E+03</pdfrwt>
<pdfrwt beam="2">  1       -2 0.66212406E-01 0.45111366E+03</pdfrwt>
<totfact> 0.77561612E+00</totfact>
</mgrwt>
</event>
<event>
 4    1  0.1033139E-008  0.2684377E+03  0.7818608E-02  0.1102177E+00
         -2   -1    0    0    0  501 -0.00000000000E+00  0.00000000000E+00  0.34617382671E+03  0.34617382672E+03  0.25500000000E-02 0.  1.
          2   -1    0    0  501    0  0.00000000000E+00 -0.00000000000E+00 -0.26135266199E+04  0.26135266200E+04  0.25500000000E-02 0. -1.
    8880022    1    1    2    0    0  0.12341616760E+03 -0.18285396535E+03  0.28601888358E+03  0.39225703034E+03  0.15294330000E+03 0.  0.
    8880022    1    1    2    0    0 -0.12341616760E+03  0.18285396535E+03 -0.25533716768E+04  0.25674434163E+04  0.15294330000E+03 0.  0.
<mgrwt>
<rscale>  0 0.26843766E+03</rscale>
<asrwt>0</asrwt>
<pdfrwt beam="1">  1        2 0.40208101E+00 0.26843766E+03</pdfrwt>
<pdfrwt beam="2">  1       -2 0.53257514E-01 0.26843766E+03</pdfrwt>
<totfact> 0.11937955E+01</totfact>
</mgrwt>
</event>
<event>
 4    1  0.1033139E-008  0.5465777E+03  0.7818608E-02  0.1002289E+00
          2   -1    0    0  501    0  0.00000000000E+00  0.00000000000E+00  0.20993427348E+04  0.20993427348E+04  0.25500000000E-02 0. -1.
         -2   -1    0    0    0  501 -0.00000000000E+00 -0.00000000000E+00 -0.46922028390E+03  0.46922028390E+03  0.25500000000E-02 0.  1.
    8880022    1    1    2    0    0  0.36368344796E+03 -0.37827222202E+03  0.18870479007E+04  0.19646111465E+04  0.15294330000E+03 0. -1.
    8880022    1    1    2    0    0 -0.36368344796E+03  0.37827222202E+03 -0.25692544977E+03  0.60395187227E+03  0.15294330000E+03 0.  0.
<mgrwt>
<rscale>  0 0.54657770E+03</rscale>
<asrwt>0</asrwt>
<pdfrwt beam="1">  1        2 0.32297580E+00 0.54657770E+03</pdfrwt>
<pdfrwt beam="2">  1       -2 0.72187736E-01 0.54657770E+03</pdfrwt>
<totfact> 0.11001073E+01</totfact>
</mgrwt>
</event>
<event>
 4    1  0.1033139E-008  0.1404989E+04  0.7818608E-02  0.8950215E-01
          2   -1    0    0  501    0  0.00000000000E+00  0.00000000000E+00  0.19639359207E+04  0.19639359207E+04  0.25500000000E-02 0. -1.
         -2   -1    0    0    0  501 -0.00000000000E+00 -0.00000000000E+00 -0.14063603161E+04  0.14063603161E+04  0.25500000000E-02 0.  1.
    8880022    1    1    2    0    0 -0.97560807738E+03 -0.99939510167E+03  0.11788893110E+04  0.18340592549E+04  0.15294330000E+03 0.  0.
    8880022    1    1    2    0    0  0.97560807738E+03  0.99939510167E+03 -0.62131370635E+03  0.15362369819E+04  0.15294330000E+03 0.  0.
<mgrwt>
<rscale>  0 0.14049887E+04</rscale>
<asrwt>0</asrwt>
<pdfrwt beam="1">  1        2 0.30214399E+00 0.14049887E+04</pdfrwt>
<pdfrwt beam="2">  1       -2 0.21636313E+00 0.14049887E+04</pdfrwt>
<totfact> 0.69149752E-01</totfact>
</mgrwt>
</event>
<event>
 4    1  0.1033139E-008  0.1355534E+04  0.7818608E-02  0.8986649E-01
          2   -1    0    0  501    0  0.00000000000E+00  0.00000000000E+00  0.26545356810E+04  0.26545356810E+04  0.25500000000E-02 0. -1.
         -2   -1    0    0    0  501 -0.00000000000E+00 -0.00000000000E+00 -0.82881552138E+03  0.82881552139E+03  0.25500000000E-02 0.  1.
    8880022    1    1    2    0    0 -0.41241110732E+03  0.12821848800E+04  0.16199693491E+04  0.21122910152E+04  0.15294330000E+03 0.  0.
    8880022    1    1    2    0    0  0.41241110732E+03 -0.12821848800E+04  0.20575081053E+03  0.13710601872E+04  0.15294330000E+03 0.  0.
<mgrwt>
<rscale>  0 0.13555341E+04</rscale>
<asrwt>0</asrwt>
<pdfrwt beam="1">  1        2 0.40839010E+00 0.13555341E+04</pdfrwt>
<pdfrwt beam="2">  1       -2 0.12751008E+00 0.13555341E+04</pdfrwt>
<totfact> 0.12421168E+00</totfact>
</mgrwt>
</event>
<event>
 4    1  0.1033139E-008  0.9710170E+03  0.7818608E-02  0.9340917E-01
          2   -1    0    0  501    0  0.00000000000E+00  0.00000000000E+00  0.93691590635E+03  0.93691590636E+03  0.25500000000E-02 0. -1.
         -2   -1    0    0    0  501 -0.00000000000E+00 -0.00000000000E+00 -0.12266190461E+04  0.12266190461E+04  0.25500000000E-02 0.  1.
    8880022    1    1    2    0    0  0.43132791117E+03 -0.85641026451E+03 -0.60325379148E+03  0.11431487646E+04  0.15294330000E+03 0.  0.
    8880022    1    1    2    0    0 -0.43132791117E+03  0.85641026451E+03  0.31355065173E+03  0.10203861878E+04  0.15294330000E+03 0.  0.
<mgrwt>
<rscale>  0 0.97101697E+03</rscale>
<asrwt>0</asrwt>
<pdfrwt beam="1">  1        2 0.14414091E+00 0.97101697E+03</pdfrwt>
<pdfrwt beam="2">  1       -2 0.18871062E+00 0.97101697E+03</pdfrwt>
<totfact> 0.43567565E+00</totfact>
</mgrwt>
</event>
<event>
 4    1  0.1033139E-008  0.8900232E+03  0.7818608E-02  0.9438140E-01
          2   -1    0    0  501    0  0.00000000000E+00  0.00000000000E+00  0.12209012129E+04  0.12209012129E+04  0.25500000000E-02 0. -1.
         -2   -1    0    0    0  501 -0.00000000000E+00 -0.00000000000E+00 -0.96549329358E+03  0.96549329358E+03  0.25500000000E-02 0.  1.
    8880022    1    1    2    0    0  0.87308951709E+03 -0.80400683844E+02  0.75378681234E+03  0.11663343373E+04  0.15294330000E+03 0.  0.
    8880022    1    1    2    0    0 -0.87308951709E+03  0.80400683844E+02 -0.49837889301E+03  0.10200601692E+04  0.15294330000E+03 0.  0.
<mgrwt>
<rscale>  0 0.89002316E+03</rscale>
<asrwt>0</asrwt>
<pdfrwt beam="1">  1        2 0.18783095E+00 0.89002316E+03</pdfrwt>
<pdfrwt beam="2">  1       -2 0.14853743E+00 0.89002316E+03</pdfrwt>
<totfact> 0.56790994E+00</totfact>
</mgrwt>
</event>
<event>
 4    1  0.1033139E-008  0.1149599E+04  0.7818608E-02  0.9158153E-01
         -2   -1    0    0    0  501 -0.00000000000E+00  0.00000000000E+00  0.83981441795E+03  0.83981441796E+03  0.25500000000E-02 0.  1.
          2   -1    0    0  501    0  0.00000000000E+00 -0.00000000000E+00 -0.20232987833E+04  0.20232987833E+04  0.25500000000E-02 0. -1.
    8880022    1    1    2    0    0 -0.89096389172E+03  0.71019023474E+03 -0.12666005325E+04  0.17105131943E+04  0.15294330000E+03 0.  0.
    8880022    1    1    2    0    0  0.89096389172E+03 -0.71019023474E+03  0.83116167146E+02  0.11526000070E+04  0.15294330000E+03 0.  0.
<mgrwt>
<rscale>  0 0.11495993E+04</rscale>
<asrwt>0</asrwt>
<pdfrwt beam="1">  1        2 0.31127673E+00 0.11495993E+04</pdfrwt>
<pdfrwt beam="2">  1       -2 0.12920222E+00 0.11495993E+04</pdfrwt>
<totfact> 0.28057975E+00</totfact>
</mgrwt>
</event>
<event>
 4    1  0.1033139E-008  0.4865006E+03  0.7818608E-02  0.1017364E+00
         -2   -1    0    0    0  501 -0.00000000000E+00  0.00000000000E+00  0.29370661287E+03  0.29370661288E+03  0.25500000000E-02 0.  1.
          2   -1    0    0  501    0  0.00000000000E+00 -0.00000000000E+00 -0.22591993041E+04  0.22591993041E+04  0.25500000000E-02 0. -1.
    8880022    1    1    2    0    0 -0.45440054471E+03 -0.82530912255E+02  0.41048308612E+02  0.48822927315E+03  0.15294330000E+03 0.  0.
    8880022    1    1    2    0    0  0.45440054471E+03  0.82530912255E+02 -0.20065409999E+04  0.20646766438E+04  0.15294330000E+03 0. -1.
<mgrwt>
<rscale>  0 0.48650063E+03</rscale>
<asrwt>0</asrwt>
<pdfrwt beam="1">  1        2 0.34756911E+00 0.48650063E+03</pdfrwt>
<pdfrwt beam="2">  1       -2 0.45185634E-01 0.48650063E+03</pdfrwt>
<totfact> 0.24188623E+01</totfact>
</mgrwt>
</event>
<event>
 4    1  0.1033139E-008  0.2093774E+04  0.7818608E-02  0.8563991E-01
         -2   -1    0    0    0  501 -0.00000000000E+00  0.00000000000E+00  0.23820209264E+04  0.23820209264E+04  0.25500000000E-02 0.  1.
          2   -1    0    0  501    0  0.00000000000E+00 -0.00000000000E+00 -0.24430680888E+04  0.24430680888E+04  0.25500000000E-02 0. -1.
    8880022    1    1    2    0    0  0.20242629383E+04  0.51269589527E+03  0.11677167810E+04  0.23973843367E+04  0.15294330000E+03 0.  0.
    8880022    1    1    2    0    0 -0.20242629383E+04 -0.51269589527E+03 -0.12287639433E+04  0.24277046785E+04  0.15294330000E+03 0.  0.
<mgrwt>
<rscale>  0 0.20937739E+04</rscale>
<asrwt>0</asrwt>
<pdfrwt beam="1">  1        2 0.37585663E+00 0.20937739E+04</pdfrwt>
<pdfrwt beam="2">  1       -2 0.36646476E+00 0.20937739E+04</pdfrwt>
<totfact> 0.40200807E-02</totfact>
</mgrwt>
</event>
<event>
 4    1  0.1033139E-008  0.3267032E+03  0.7818608E-02  0.1072605E+00
         -2   -1    0    0    0  501 -0.00000000000E+00  0.00000000000E+00  0.13876387883E+04  0.13876387883E+04  0.25500000000E-02 0.  1.
          2   -1    0    0  501    0  0.00000000000E+00 -0.00000000000E+00 -0.65713861454E+03  0.65713861455E+03  0.25500000000E-02 0. -1.
    8880022    1    1    2    0    0  0.15234038754E+03 -0.24522587297E+03 -0.59544146079E+03  0.67918002672E+03  0.15294330000E+03 0.  0.
    8880022    1    1    2    0    0 -0.15234038754E+03  0.24522587297E+03  0.13259416345E+04  0.13655973761E+04  0.15294330000E+03 0.  1.
<mgrwt>
<rscale>  0 0.32670319E+03</rscale>
<asrwt>0</asrwt>
<pdfrwt beam="1">  1        2 0.10109825E+00 0.32670319E+03</pdfrwt>
<pdfrwt beam="2">  1       -2 0.21348289E+00 0.32670319E+03</pdfrwt>
<totfact> 0.53551425E+00</totfact>
</mgrwt>
</event>
<event>
 4    1  0.1033139E-008  0.1028454E+04  0.7818608E-02  0.9277876E-01
          2   -1    0    0  501    0  0.00000000000E+00  0.00000000000E+00  0.26551393553E+04  0.26551393553E+04  0.25500000000E-02 0. -1.
         -2   -1    0    0    0  501 -0.00000000000E+00 -0.00000000000E+00 -0.73509829034E+03  0.73509829035E+03  0.25500000000E-02 0.  1.
    8880022    1    1    2    0    0 -0.97073828007E+03 -0.30330361232E+03 -0.18726033118E+03  0.10453630825E+04  0.15294330000E+03 0.  0.
    8880022    1    1    2    0    0  0.97073828007E+03  0.30330361232E+03  0.21073013961E+04  0.23448745631E+04  0.15294330000E+03 0.  0.
<mgrwt>
<rscale>  0 0.10284540E+04</rscale>
<asrwt>0</asrwt>
<pdfrwt beam="1">  1        2 0.40848298E+00 0.10284540E+04</pdfrwt>
<pdfrwt beam="2">  1       -2 0.11309204E+00 0.10284540E+04</pdfrwt>
<totfact> 0.17454492E+00</totfact>
</mgrwt>
</event>
<event>
 4    1  0.1033139E-008  0.1257437E+04  0.7818608E-02  0.9064016E-01
         -2   -1    0    0    0  501 -0.00000000000E+00  0.00000000000E+00  0.17316958197E+04  0.17316958197E+04  0.25500000000E-02 0.  1.
          2   -1    0    0  501    0  0.00000000000E+00 -0.00000000000E+00 -0.15034958919E+04  0.15034958919E+04  0.25500000000E-02 0. -1.
    8880022    1    1    2    0    0  0.77380168552E+03  0.97927858111E+03 -0.89958779921E+03  0.15460936095E+04  0.15294330000E+03 0.  0.
    8880022    1    1    2    0    0 -0.77380168552E+03 -0.97927858111E+03  0.11277877270E+04  0.16890981020E+04  0.15294330000E+03 0.  0.
<mgrwt>
<rscale>  0 0.12574368E+04</rscale>
<asrwt>0</asrwt>
<pdfrwt beam="1">  1        2 0.23130706E+00 0.12574368E+04</pdfrwt>
<pdfrwt beam="2">  1       -2 0.26641474E+00 0.12574368E+04</pdfrwt>
<totfact> 0.62211344E-01</totfact>
</mgrwt>
</event>
<event>
 4    1  0.1033139E-008  0.4145290E+03  0.7818608E-02  0.1038862E+00
         -2   -1    0    0    0  501 -0.00000000000E+00  0.00000000000E+00  0.33054335286E+03  0.33054335287E+03  0.25500000000E-02 0.  1.
          2   -1    0    0  501    0  0.00000000000E+00 -0.00000000000E+00 -0.12862962357E+04  0.12862962357E+04  0.25500000000E-02 0. -1.
    8880022    1    1    2    0    0 -0.14473199292E+03  0.35706484713E+03 -0.11019073968E+04  0.11772995452E+04  0.15294330000E+03 0.  0.
    8880022    1    1    2    0    0  0.14473199292E+03 -0.35706484713E+03  0.14615451396E+03  0.43954004345E+03  0.15294330000E+03 0.  0.
<mgrwt>
<rscale>  0 0.41452902E+03</rscale>
<asrwt>0</asrwt>
<pdfrwt beam="1">  1        2 0.19789173E+00 0.41452902E+03</pdfrwt>
<pdfrwt beam="2">  1       -2 0.50852824E-01 0.41452902E+03</pdfrwt>
<totfact> 0.65309826E+01</totfact>
</mgrwt>
</event>
<event>
 4    1  0.1033139E-008  0.7783849E+03  0.7818608E-02  0.9591842E-01
          2   -1    0    0  501    0  0.00000000000E+00  0.00000000000E+00  0.49040522855E+04  0.49040522855E+04  0.25500000000E-02 0. -1.
         -2   -1    0    0    0  501 -0.00000000000E+00 -0.00000000000E+00 -0.14053300894E+03  0.14053300896E+03  0.25500000000E-02 0.  1.
    8880022    1    1    2    0    0  0.70311564745E+03  0.29684965026E+03  0.32586527806E+04  0.33503284803E+04  0.15294330000E+03 0.  0.
    8880022    1    1    2    0    0 -0.70311564745E+03 -0.29684965026E+03  0.15048664960E+04  0.16942568142E+04  0.15294330000E+03 0.  0.
<mgrwt>
<rscale>  0 0.77838485E+03</rscale>
<asrwt>0</asrwt>
<pdfrwt beam="1">  1        2 0.75446948E+00 0.77838485E+03</pdfrwt>
<pdfrwt beam="2">  1       -2 0.21620466E-01 0.77838485E+03</pdfrwt>
<totfact> 0.96847805E-01</totfact>
</mgrwt>
</event>
<event>
 4    1  0.1033139E-008  0.7574887E+03  0.7818608E-02  0.9623674E-01
         -2   -1    0    0    0  501 -0.00000000000E+00  0.00000000000E+00  0.26349813810E+03  0.26349813811E+03  0.25500000000E-02 0.  1.
          2   -1    0    0  501    0  0.00000000000E+00 -0.00000000000E+00 -0.28825835290E+04  0.28825835290E+04  0.25500000000E-02 0. -1.
    8880022    1    1    2    0    0 -0.73921074931E+03  0.62967642789E+02 -0.20874784228E+04  0.22206655026E+04  0.15294330000E+03 0.  1.
    8880022    1    1    2    0    0  0.73921074931E+03 -0.62967642789E+02 -0.53160696813E+03  0.92541616450E+03  0.15294330000E+03 0.  0.
<mgrwt>
<rscale>  0 0.75748869E+03</rscale>
<asrwt>0</asrwt>
<pdfrwt beam="1">  1        2 0.44347437E+00 0.75748869E+03</pdfrwt>
<pdfrwt beam="2">  1       -2 0.40538177E-01 0.75748869E+03</pdfrwt>
<totfact> 0.12541553E+01</totfact>
</mgrwt>
</event>
<event>
 4    1  0.1033139E-008  0.1027698E+04  0.7818608E-02  0.9278677E-01
         -2   -1    0    0    0  501 -0.00000000000E+00  0.00000000000E+00  0.89182017812E+03  0.89182017812E+03  0.25500000000E-02 0.  1.
          2   -1    0    0  501    0  0.00000000000E+00 -0.00000000000E+00 -0.22568529685E+04  0.22568529685E+04  0.25500000000E-02 0. -1.
    8880022    1    1    2    0    0 -0.45217612961E+03 -0.91011474506E+03 -0.17678409100E+04  0.20448533535E+04  0.15294330000E+03 0.  0.
    8880022    1    1    2    0    0  0.45217612961E+03  0.91011474506E+03  0.40280811962E+03  0.11038197931E+04  0.15294330000E+03 0.  0.
<mgrwt>
<rscale>  0 0.10276983E+04</rscale>
<asrwt>0</asrwt>
<pdfrwt beam="1">  1        2 0.34720815E+00 0.10276983E+04</pdfrwt>
<pdfrwt beam="2">  1       -2 0.13720310E+00 0.10276983E+04</pdfrwt>
<totfact> 0.18114808E+00</totfact>
</mgrwt>
</event>
<event>
 4    1  0.1033139E-008  0.1353273E+04  0.7818608E-02  0.8988354E-01
          2   -1    0    0  501    0  0.00000000000E+00  0.00000000000E+00  0.20189373836E+04  0.20189373836E+04  0.25500000000E-02 0. -1.
         -2   -1    0    0    0  501 -0.00000000000E+00 -0.00000000000E+00 -0.12116357997E+04  0.12116357997E+04  0.25500000000E-02 0.  1.
    8880022    1    1    2    0    0 -0.13398679953E+04 -0.11273336677E+03 -0.40617909909E+03  0.14129147781E+04  0.15294330000E+03 0.  0.
    8880022    1    1    2    0    0  0.13398679953E+04  0.11273336677E+03  0.12134806831E+04  0.18176584052E+04  0.15294330000E+03 0.  0.
<mgrwt>
<rscale>  0 0.13532726E+04</rscale>
<asrwt>0</asrwt>
<pdfrwt beam="1">  1        2 0.31060575E+00 0.13532726E+04</pdfrwt>
<pdfrwt beam="2">  1       -2 0.18640551E+00 0.13532726E+04</pdfrwt>
<totfact> 0.10203847E+00</totfact>
</mgrwt>
</event>
<event>
 4    1  0.1033139E-008  0.9975903E+03  0.7818608E-02  0.9311192E-01
         -2   -1    0    0    0  501 -0.00000000000E+00  0.00000000000E+00  0.22454635819E+03  0.22454635821E+03  0.25500000000E-02 0.  1.
          2   -1    0    0  501    0  0.00000000000E+00 -0.00000000000E+00 -0.45369457538E+04  0.45369457538E+04  0.25500000000E-02 0. -1.
    8880022    1    1    2    0    0 -0.81881051123E+03 -0.54894810156E+03 -0.25183114353E+04  0.27087042677E+04  0.15294330000E+03 0.  0.
    8880022    1    1    2    0    0  0.81881051123E+03  0.54894810156E+03 -0.17940879602E+04  0.20527878443E+04  0.15294330000E+03 0.  0.
<mgrwt>
<rscale>  0 0.99759026E+03</rscale>
<asrwt>0</asrwt>
<pdfrwt beam="1">  1        2 0.69799159E+00 0.99759026E+03</pdfrwt>
<pdfrwt beam="2">  1       -2 0.34545597E-01 0.99759026E+03</pdfrwt>
<totfact> 0.95846213E-01</totfact>
</mgrwt>
</event>
<event>
 4    1  0.1033139E-008  0.1296850E+04  0.7818608E-02  0.9032067E-01
          2   -1    0    0  501    0  0.00000000000E+00  0.00000000000E+00  0.23538613279E+04  0.23538613279E+04  0.25500000000E-02 0. -1.
         -2   -1    0    0    0  501 -0.00000000000E+00 -0.00000000000E+00 -0.83747406851E+03  0.83747406851E+03  0.25500000000E-02 0.  1.
    8880022    1    1    2    0    0 -0.57839178321E+03 -0.11506048502E+04  0.14672552349E+03  0.13051239820E+04  0.15294330000E+03 0.  0.
    8880022    1    1    2    0    0  0.57839178321E+03  0.11506048502E+04  0.13696617359E+04  0.18862114144E+04  0.15294330000E+03 0.  0.
<mgrwt>
<rscale>  0 0.12968501E+04</rscale>
<asrwt>0</asrwt>
<pdfrwt beam="1">  1        2 0.36213251E+00 0.12968501E+04</pdfrwt>
<pdfrwt beam="2">  1       -2 0.12884216E+00 0.12968501E+04</pdfrwt>
<totfact> 0.18156461E+00</totfact>
</mgrwt>
</event>
<event>
 4    1  0.1033139E-008  0.1006044E+04  0.7818608E-02  0.9301941E-01
          2   -1    0    0  501    0  0.00000000000E+00  0.00000000000E+00  0.26525700144E+04  0.26525700144E+04  0.25500000000E-02 0. -1.
         -2   -1    0    0    0  501 -0.00000000000E+00 -0.00000000000E+00 -0.71786509376E+03  0.71786509376E+03  0.25500000000E-02 0.  1.
    8880022    1    1    2    0    0 -0.14981048487E+03 -0.98300000790E+03  0.21208031440E+04  0.23473239711E+04  0.15294330000E+03 0.  0.
    8880022    1    1    2    0    0  0.14981048487E+03  0.98300000790E+03 -0.18609822336E+03  0.10231111370E+04  0.15294330000E+03 0.  0.
<mgrwt>
<rscale>  0 0.10060437E+04</rscale>
<asrwt>0</asrwt>
<pdfrwt beam="1">  1        2 0.40808769E+00 0.10060437E+04</pdfrwt>
<pdfrwt beam="2">  1       -2 0.11044078E+00 0.10060437E+04</pdfrwt>
<totfact> 0.18620362E+00</totfact>
</mgrwt>
</event>
<event>
 4    1  0.1033139E-008  0.3490261E+03  0.7818608E-02  0.1063015E+00
          2   -1    0    0  501    0  0.00000000000E+00  0.00000000000E+00  0.12051204987E+04  0.12051204987E+04  0.25500000000E-02 0. -1.
         -2   -1    0    0    0  501 -0.00000000000E+00 -0.00000000000E+00 -0.49538470789E+03  0.49538470790E+03  0.25500000000E-02 0.  1.
    8880022    1    1    2    0    0  0.30718576252E+03  0.63753346935E+02  0.11134281247E+04  0.11668510719E+04  0.15294330000E+03 0.  0.
    8880022    1    1    2    0    0 -0.30718576252E+03 -0.63753346935E+02 -0.40369233398E+03  0.53365413469E+03  0.15294330000E+03 0.  1.
<mgrwt>
<rscale>  0 0.34902612E+03</rscale>
<asrwt>0</asrwt>
<pdfrwt beam="1">  1        2 0.18540315E+00 0.34902612E+03</pdfrwt>
<pdfrwt beam="2">  1       -2 0.76213032E-01 0.34902612E+03</pdfrwt>
<totfact> 0.31358889E+01</totfact>
</mgrwt>
</event>
<event>
 4    1  0.1033139E-008  0.1065622E+04  0.7818608E-02  0.9239362E-01
         -2   -1    0    0    0  501 -0.00000000000E+00  0.00000000000E+00  0.12654083729E+04  0.12654083729E+04  0.25500000000E-02 0.  1.
          2   -1    0    0  501    0  0.00000000000E+00 -0.00000000000E+00 -0.16297593894E+04  0.16297593894E+04  0.25500000000E-02 0. -1.
    8880022    1    1    2    0    0  0.85276370285E+03  0.62044567518E+03 -0.11525747718E+04  0.15697066689E+04  0.15294330000E+03 0. -1.
    8880022    1    1    2    0    0 -0.85276370285E+03 -0.62044567518E+03  0.78822375533E+03  0.13254610934E+04  0.15294330000E+03 0.  0.
<mgrwt>
<rscale>  0 0.10656221E+04</rscale>
<asrwt>0</asrwt>
<pdfrwt beam="1">  1        2 0.25073222E+00 0.10656221E+04</pdfrwt>
<pdfrwt beam="2">  1       -2 0.19467821E+00 0.10656221E+04</pdfrwt>
<totfact> 0.15258651E+00</totfact>
</mgrwt>
</event>
<event>
 4    1  0.1033139E-008  0.4358384E+03  0.7818608E-02  0.1032031E+00
         -2   -1    0    0    0  501 -0.00000000000E+00  0.00000000000E+00  0.58067820811E+03  0.58067820811E+03  0.25500000000E-02 0.  1.
          2   -1    0    0  501    0  0.00000000000E+00 -0.00000000000E+00 -0.63455736365E+03  0.63455736366E+03  0.25500000000E-02 0. -1.
    8880022    1    1    2    0    0  0.35176453913E+03  0.20694246481E+03 -0.44986996547E+03  0.62636899155E+03  0.15294330000E+03 0.  0.
    8880022    1    1    2    0    0 -0.35176453913E+03 -0.20694246481E+03  0.39599080993E+03  0.58886658022E+03  0.15294330000E+03 0.  0.
<mgrwt>
<rscale>  0 0.43583842E+03</rscale>
<asrwt>0</asrwt>
<pdfrwt beam="1">  1        2 0.97624210E-01 0.43583842E+03</pdfrwt>
<pdfrwt beam="2">  1       -2 0.89335109E-01 0.43583842E+03</pdfrwt>
<totfact> 0.51907672E+01</totfact>
</mgrwt>
</event>
<event>
 4    1  0.1033139E-008  0.1066449E+04  0.7818608E-02  0.9238524E-01
          2   -1    0    0  501    0  0.00000000000E+00  0.00000000000E+00  0.33769003058E+04  0.33769003058E+04  0.25500000000E-02 0. -1.
         -2   -1    0    0    0  501 -0.00000000000E+00 -0.00000000000E+00 -0.48003294923E+03  0.48003294924E+03  0.25500000000E-02 0.  1.
    8880022    1    1    2    0    0 -0.20822046429E+03  0.10346815209E+04  0.39499300208E+03  0.11372478780E+04  0.15294330000E+03 0.  0.
    8880022    1    1    2    0    0  0.20822046429E+03 -0.10346815209E+04  0.25018743544E+04  0.27196853770E+04  0.15294330000E+03 0.  0.
<mgrwt>
<rscale>  0 0.10664489E+04</rscale>
<asrwt>0</asrwt>
<pdfrwt beam="1">  1        2 0.51952313E+00 0.10664489E+04</pdfrwt>
<pdfrwt beam="2">  1       -2 0.73851223E-01 0.10664489E+04</pdfrwt>
<totfact> 0.16679867E+00</totfact>
</mgrwt>
</event>
<event>
 4    1  0.1033139E-008  0.1533757E+04  0.7818608E-02  0.8862310E-01
         -2   -1    0    0    0  501 -0.00000000000E+00  0.00000000000E+00  0.20440901582E+04  0.20440901582E+04  0.25500000000E-02 0.  1.
          2   -1    0    0  501    0  0.00000000000E+00 -0.00000000000E+00 -0.17978473064E+04  0.17978473064E+04  0.25500000000E-02 0. -1.
    8880022    1    1    2    0    0  0.60080048969E+03  0.14028748121E+04 -0.10292703346E+04  0.18471080211E+04  0.15294330000E+03 0.  0.
    8880022    1    1    2    0    0 -0.60080048969E+03 -0.14028748121E+04  0.12755131865E+04  0.19948294435E+04  0.15294330000E+03 0.  0.
<mgrwt>
<rscale>  0 0.15337570E+04</rscale>
<asrwt>0</asrwt>
<pdfrwt beam="1">  1        2 0.27659189E+00 0.15337570E+04</pdfrwt>
<pdfrwt beam="2">  1       -2 0.31447541E+00 0.15337570E+04</pdfrwt>
<totfact> 0.20961352E-01</totfact>
</mgrwt>
</event>
<event>
 4    1  0.1033139E-008  0.1770749E+04  0.7818608E-02  0.8722011E-01
         -2   -1    0    0    0  501 -0.00000000000E+00  0.00000000000E+00  0.10587531617E+04  0.10587531617E+04  0.25500000000E-02 0.  1.
          2   -1    0    0  501    0  0.00000000000E+00 -0.00000000000E+00 -0.31710610768E+04  0.31710610768E+04  0.25500000000E-02 0. -1.
    8880022    1    1    2    0    0  0.16354254112E+04 -0.66147054087E+03 -0.51253858705E+03  0.18434334835E+04  0.15294330000E+03 0.  0.
    8880022    1    1    2    0    0 -0.16354254112E+04  0.66147054087E+03 -0.15997693280E+04  0.23863807550E+04  0.15294330000E+03 0.  0.
<mgrwt>
<rscale>  0 0.17707488E+04</rscale>
<asrwt>0</asrwt>
<pdfrwt beam="1">  1        2 0.48785555E+00 0.17707488E+04</pdfrwt>
<pdfrwt beam="2">  1       -2 0.16288510E+00 0.17707488E+04</pdfrwt>
<totfact> 0.29878909E-01</totfact>
</mgrwt>
</event>
<event>
 4    1  0.1033139E-008  0.6015651E+03  0.7818608E-02  0.9902164E-01
          2   -1    0    0  501    0  0.00000000000E+00  0.00000000000E+00  0.11658755967E+04  0.11658755967E+04  0.25500000000E-02 0. -1.
         -2   -1    0    0    0  501 -0.00000000000E+00 -0.00000000000E+00 -0.50864960089E+03  0.50864960090E+03  0.25500000000E-02 0.  1.
    8880022    1    1    2    0    0  0.14557018955E+03  0.56329235013E+03 -0.19410234033E+03  0.63210467751E+03  0.15294330000E+03 0.  1.
    8880022    1    1    2    0    0 -0.14557018955E+03 -0.56329235013E+03  0.85132833617E+03  0.10424205201E+04  0.15294330000E+03 0.  0.
<mgrwt>
<rscale>  0 0.60156513E+03</rscale>
<asrwt>0</asrwt>
<pdfrwt beam="1">  1        2 0.17936547E+00 0.60156513E+03</pdfrwt>
<pdfrwt beam="2">  1       -2 0.78253786E-01 0.60156513E+03</pdfrwt>
<totfact> 0.29875840E+01</totfact>
</mgrwt>
</event>
<event>
 4    1  0.1033139E-008  0.4071877E+03  0.7818608E-02  0.1041319E+00
          2   -1    0    0  501    0  0.00000000000E+00  0.00000000000E+00  0.74267030268E+03  0.74267030269E+03  0.25500000000E-02 0. -1.
         -2   -1    0    0    0  501 -0.00000000000E+00 -0.00000000000E+00 -0.24918867970E+04  0.24918867970E+04  0.25500000000E-02 0.  1.
    8880022    1    1    2    0    0  0.59189411587E+02  0.37270199647E+03 -0.24177402257E+04  0.24517890644E+04  0.15294330000E+03 0.  0.
    8880022    1    1    2    0    0 -0.59189411587E+02 -0.37270199647E+03  0.66852373136E+03  0.78276803525E+03  0.15294330000E+03 0.  0.
<mgrwt>
<rscale>  0 0.40718769E+03</rscale>
<asrwt>0</asrwt>
<pdfrwt beam="1">  1        2 0.11425697E+00 0.40718769E+03</pdfrwt>
<pdfrwt beam="2">  1       -2 0.38336720E+00 0.40718769E+03</pdfrwt>
<totfact> 0.42425256E-01</totfact>
</mgrwt>
</event>
<event>
 4    1  0.1033139E-008  0.1900178E+04  0.7818608E-02  0.8654768E-01
          2   -1    0    0  501    0  0.00000000000E+00  0.00000000000E+00  0.23887480084E+04  0.23887480084E+04  0.25500000000E-02 0. -1.
         -2   -1    0    0    0  501 -0.00000000000E+00 -0.00000000000E+00 -0.19289976942E+04  0.19289976942E+04  0.25500000000E-02 0.  1.
    8880022    1    1    2    0    0  0.44859526936E+03 -0.18401212759E+04 -0.77444034086E+03  0.20519340926E+04  0.15294330000E+03 0.  0.
    8880022    1    1    2    0    0 -0.44859526936E+03  0.18401212759E+04  0.12341906551E+04  0.22658116100E+04  0.15294330000E+03 0.  0.
<mgrwt>
<rscale>  0 0.19001778E+04</rscale>
<asrwt>0</asrwt>
<pdfrwt beam="1">  1        2 0.36749970E+00 0.19001778E+04</pdfrwt>
<pdfrwt beam="2">  1       -2 0.29676887E+00 0.19001778E+04</pdfrwt>
<totfact> 0.12028340E-01</totfact>
</mgrwt>
</event>
<event>
 4    1  0.1292940E-008  0.2025787E+04  0.7818608E-02  0.8594659E-01
          2   -1    0    0  501    0  0.00000000000E+00  0.00000000000E+00  0.34642646550E+04  0.34642646550E+04  0.25500000000E-02 0. -1.
         -2   -1    0    0    0  501 -0.00000000000E+00 -0.00000000000E+00 -0.18503687403E+04  0.18503687403E+04  0.25500000000E-02 0.  1.
    8880022    1    1    2    0    0  0.18104235902E+04  0.89598363789E+03  0.24008870880E+04  0.31413485508E+04  0.15294330000E+03 0.  0.
    8880022    1    1    2    0    0 -0.18104235902E+04 -0.89598363789E+03 -0.78699117331E+03  0.21732848444E+04  0.15294330000E+03 0.  0.
<mgrwt>
<rscale>  0 0.20257867E+04</rscale>
<asrwt>0</asrwt>
<pdfrwt beam="1">  1        2 0.53296379E+00 0.20257867E+04</pdfrwt>
<pdfrwt beam="2">  1       -2 0.28467212E+00 0.20257867E+04</pdfrwt>
<totfact> 0.29984977E-02</totfact>
</mgrwt>
</event>
<event>
 4    1  0.1033139E-008  0.1175166E+04  0.7818608E-02  0.9134875E-01
         -2   -1    0    0    0  501 -0.00000000000E+00  0.00000000000E+00  0.42131828713E+03  0.42131828713E+03  0.25500000000E-02 0.  1.
          2   -1    0    0  501    0  0.00000000000E+00 -0.00000000000E+00 -0.37395539095E+04  0.37395539095E+04  0.25500000000E-02 0. -1.
    8880022    1    1    2    0    0  0.29305670937E+03 -0.11277155161E+04 -0.23901364687E+04  0.26634129444E+04  0.15294330000E+03 0.  0.
    8880022    1    1    2    0    0 -0.29305670937E+03  0.11277155161E+04 -0.92809915368E+03  0.14974592523E+04  0.15294330000E+03 0.  0.
<mgrwt>
<rscale>  0 0.11751664E+04</rscale>
<asrwt>0</asrwt>
<pdfrwt beam="1">  1        2 0.57531596E+00 0.11751664E+04</pdfrwt>
<pdfrwt beam="2">  1       -2 0.64818201E-01 0.11751664E+04</pdfrwt>
<totfact> 0.12165308E+00</totfact>
</mgrwt>
</event>
<event>
 4    1  0.1033139E-008  0.4728006E+03  0.7818608E-02  0.1021133E+00
          2   -1    0    0  501    0  0.00000000000E+00  0.00000000000E+00  0.23517865138E+03  0.23517865139E+03  0.25500000000E-02 0. -1.
         -2   -1    0    0    0  501 -0.00000000000E+00 -0.00000000000E+00 -0.13744821057E+04  0.13744821057E+04  0.25500000000E-02 0.  1.
    8880022    1    1    2    0    0  0.40766979660E+03  0.18426647284E+03 -0.10166457738E+04  0.11212087577E+04  0.15294330000E+03 0.  0.
    8880022    1    1    2    0    0 -0.40766979660E+03 -0.18426647284E+03 -0.12265768057E+03  0.48845199937E+03  0.15294330000E+03 0.  0.
<mgrwt>
<rscale>  0 0.47280064E+03</rscale>
<asrwt>0</asrwt>
<pdfrwt beam="1">  1        2 0.36181332E-01 0.47280064E+03</pdfrwt>
<pdfrwt beam="2">  1       -2 0.21145878E+00 0.47280064E+03</pdfrwt>
<totfact> 0.16949697E+01</totfact>
</mgrwt>
</event>
<event>
 4    1  0.1033139E-008  0.8904824E+03  0.7818608E-02  0.9437558E-01
          2   -1    0    0  501    0  0.00000000000E+00  0.00000000000E+00  0.27144122721E+04  0.27144122721E+04  0.25500000000E-02 0. -1.
         -2   -1    0    0    0  501 -0.00000000000E+00 -0.00000000000E+00 -0.37171545697E+03  0.37171545698E+03  0.25500000000E-02 0.  1.
    8880022    1    1    2    0    0  0.19569022913E+03  0.85514481190E+03  0.45734916892E+03  0.10010630502E+04  0.15294330000E+03 0.  0.
    8880022    1    1    2    0    0 -0.19569022913E+03 -0.85514481190E+03  0.18853476462E+04  0.20850646789E+04  0.15294330000E+03 0.  0.
<mgrwt>
<rscale>  0 0.89048244E+03</rscale>
<asrwt>0</asrwt>
<pdfrwt beam="1">  1        2 0.41760191E+00 0.89048244E+03</pdfrwt>
<pdfrwt beam="2">  1       -2 0.57186991E-01 0.89048244E+03</pdfrwt>
<totfact> 0.76978947E+00</totfact>
</mgrwt>
</event>
<event>
 4    1  0.1033139E-008  0.1153073E+04  0.7818608E-02  0.9154953E-01
          2   -1    0    0  501    0  0.00000000000E+00  0.00000000000E+00  0.11111621981E+04  0.11111621981E+04  0.25500000000E-02 0. -1.
         -2   -1    0    0    0  501 -0.00000000000E+00 -0.00000000000E+00 -0.20641783938E+04  0.20641783938E+04  0.25500000000E-02 0.  1.
    8880022    1    1    2    0    0 -0.19721839095E+02  0.11427147688E+04 -0.15058267984E+04  0.18966001143E+04  0.15294330000E+03 0.  0.
    8880022    1    1    2    0    0  0.19721839095E+02 -0.11427147688E+04  0.55281060268E+03  0.12787404777E+04  0.15294330000E+03 0.  0.
<mgrwt>
<rscale>  0 0.11530731E+04</rscale>
<asrwt>0</asrwt>
<pdfrwt beam="1">  1        2 0.17094803E+00 0.11530731E+04</pdfrwt>
<pdfrwt beam="2">  1       -2 0.31756590E+00 0.11530731E+04</pdfrwt>
<totfact> 0.52346817E-01</totfact>
</mgrwt>
</event>
<event>
 4    1  0.1159501E-008  0.1399921E+04  0.7818608E-02  0.8953876E-01
          2   -1    0    0  501    0  0.00000000000E+00  0.00000000000E+00  0.33016535094E+04  0.33016535094E+04  0.25500000000E-02 0. -1.
         -2   -1    0    0    0  501 -0.00000000000E+00 -0.00000000000E+00 -0.14137369555E+04  0.14137369555E+04  0.25500000000E-02 0.  1.
    8880022    1    1    2    0    0  0.13521740480E+04  0.32865045009E+03 -0.85182240184E+03  0.16387125531E+04  0.15294330000E+03 0.  0.
    8880022    1    1    2    0    0 -0.13521740480E+04 -0.32865045009E+03  0.27397389558E+04  0.30766779118E+04  0.15294330000E+03 0.  0.
<mgrwt>
<rscale>  0 0.13999205E+04</rscale>
<asrwt>0</asrwt>
<pdfrwt beam="1">  1        2 0.50794669E+00 0.13999205E+04</pdfrwt>
<pdfrwt beam="2">  1       -2 0.21749799E+00 0.13999205E+04</pdfrwt>
<totfact> 0.10911201E-01</totfact>
</mgrwt>
</event>
<event>
 4    1  0.1033139E-008  0.8129570E+03  0.7818608E-02  0.9541449E-01
          2   -1    0    0  501    0  0.00000000000E+00  0.00000000000E+00  0.13998940764E+04  0.13998940764E+04  0.25500000000E-02 0. -1.
         -2   -1    0    0    0  501 -0.00000000000E+00 -0.00000000000E+00 -0.60394947211E+03  0.60394947212E+03  0.25500000000E-02 0.  1.
    8880022    1    1    2    0    0  0.44206539656E+03 -0.66489522504E+03 -0.70152835523E+02  0.81597827696E+03  0.15294330000E+03 0.  0.
    8880022    1    1    2    0    0 -0.44206539656E+03  0.66489522504E+03  0.86609743984E+03  0.11878652716E+04  0.15294330000E+03 0.  0.
<mgrwt>
<rscale>  0 0.81295703E+03</rscale>
<asrwt>0</asrwt>
<pdfrwt beam="1">  1        2 0.21536832E+00 0.81295703E+03</pdfrwt>
<pdfrwt beam="2">  1       -2 0.92915305E-01 0.81295703E+03</pdfrwt>
<totfact> 0.14416460E+01</totfact>
</mgrwt>
</event>
<event>
 4    1  0.1033139E-008  0.5113378E+03  0.7818608E-02  0.1010861E+00
         -2   -1    0    0    0  501 -0.00000000000E+00  0.00000000000E+00  0.38282095010E+03  0.38282095011E+03  0.25500000000E-02 0.  1.
          2   -1    0    0  501    0  0.00000000000E+00 -0.00000000000E+00 -0.11450356084E+04  0.11450356084E+04  0.25500000000E-02 0. -1.
    8880022    1    1    2    0    0  0.21778008524E+03  0.43663087757E+03 -0.86637489516E+03  0.10060177935E+04  0.15294330000E+03 0.  0.
    8880022    1    1    2    0    0 -0.21778008524E+03 -0.43663087757E+03  0.10416023685E+03  0.52183876507E+03  0.15294330000E+03 0.  1.
<mgrwt>
<rscale>  0 0.51133780E+03</rscale>
<asrwt>0</asrwt>
<pdfrwt beam="1">  1        2 0.17615932E+00 0.51133780E+03</pdfrwt>
<pdfrwt beam="2">  1       -2 0.58895531E-01 0.51133780E+03</pdfrwt>
<totfact> 0.57460518E+01</totfact>
</mgrwt>
</event>
<event>
 4    1  0.1033139E-008  0.1273201E+04  0.7818608E-02  0.9051091E-01
         -2   -1    0    0    0  501 -0.00000000000E+00  0.00000000000E+00  0.68818678247E+03  0.68818678247E+03  0.25500000000E-02 0.  1.
          2   -1    0    0  501    0  0.00000000000E+00 -0.00000000000E+00 -0.31174985971E+04  0.31174985971E+04  0.25500000000E-02 0. -1.
    8880022    1    1    2    0    0 -0.77642060395E+03 -0.99740638258E+03 -0.27391472134E+03  0.13023322824E+04  0.15294330000E+03 0.  0.
    8880022    1    1    2    0    0  0.77642060395E+03  0.99740638258E+03 -0.21553970933E+04  0.25033530972E+04  0.15294330000E+03 0.  0.
<mgrwt>
<rscale>  0 0.12732007E+04</rscale>
<asrwt>0</asrwt>
<pdfrwt beam="1">  1        2 0.47961516E+00 0.12732007E+04</pdfrwt>
<pdfrwt beam="2">  1       -2 0.10587489E+00 0.12732007E+04</pdfrwt>
<totfact> 0.10378751E+00</totfact>
</mgrwt>
</event>
<event>
 4    1  0.1033139E-008  0.2572138E+03  0.7818608E-02  0.1108829E+00
         -2   -1    0    0    0  501 -0.00000000000E+00  0.00000000000E+00  0.54440139732E+02  0.54440139791E+02  0.25500000000E-02 0.  1.
          2   -1    0    0  501    0  0.00000000000E+00 -0.00000000000E+00 -0.19996624898E+04  0.19996624898E+04  0.25500000000E-02 0. -1.
    8880022    1    1    2    0    0 -0.61373946663E+02 -0.19748554012E+03 -0.32935623686E+03  0.41789290932E+03  0.15294330000E+03 0.  0.
    8880022    1    1    2    0    0  0.61373946663E+02  0.19748554012E+03 -0.16158661132E+04  0.16362097202E+04  0.15294330000E+03 0.  0.
<mgrwt>
<rscale>  0 0.25721383E+03</rscale>
<asrwt>0</asrwt>
<pdfrwt beam="1">  1        2 0.30764033E+00 0.25721383E+03</pdfrwt>
<pdfrwt beam="2">  1       -2 0.83754076E-02 0.25721383E+03</pdfrwt>
<totfact> 0.65594221E+02</totfact>
</mgrwt>
</event>
<event>
 4    1  0.1033139E-008  0.1386037E+04  0.7818608E-02  0.8963988E-01
         -2   -1    0    0    0  501 -0.00000000000E+00  0.00000000000E+00  0.87547488790E+03  0.87547488790E+03  0.25500000000E-02 0.  1.
          2   -1    0    0  501    0  0.00000000000E+00 -0.00000000000E+00 -0.28419459173E+04  0.28419459173E+04  0.25500000000E-02 0. -1.
    8880022    1    1    2    0    0  0.91925501834E+03 -0.10260003738E+04 -0.95965266980E+02  0.13893550810E+04  0.15294330000E+03 0.  0.
    8880022    1    1    2    0    0 -0.91925501834E+03  0.10260003738E+04 -0.18705057624E+04  0.23280657241E+04  0.15294330000E+03 0.  0.
<mgrwt>
<rscale>  0 0.13860369E+04</rscale>
<asrwt>0</asrwt>
<pdfrwt beam="1">  1        2 0.43722244E+00 0.13860369E+04</pdfrwt>
<pdfrwt beam="2">  1       -2 0.13468845E+00 0.13860369E+04</pdfrwt>
<totfact> 0.83170523E-01</totfact>
</mgrwt>
</event>
<event>
 4    1  0.1033139E-008  0.1177090E+04  0.7818608E-02  0.9133149E-01
         -2   -1    0    0    0  501 -0.00000000000E+00  0.00000000000E+00  0.81002201446E+03  0.81002201446E+03  0.25500000000E-02 0.  1.
          2   -1    0    0  501    0  0.00000000000E+00 -0.00000000000E+00 -0.27980500645E+04  0.27980500645E+04  0.25500000000E-02 0. -1.
    8880022    1    1    2    0    0 -0.11625928839E+04  0.10260633010E+03  0.13070043311E+03  0.11843245032E+04  0.15294330000E+03 0.  0.
    8880022    1    1    2    0    0  0.11625928839E+04 -0.10260633010E+03 -0.21187284832E+04  0.24237475758E+04  0.15294330000E+03 0.  0.
<mgrwt>
<rscale>  0 0.11770904E+04</rscale>
<asrwt>0</asrwt>
<pdfrwt beam="1">  1        2 0.43046924E+00 0.11770904E+04</pdfrwt>
<pdfrwt beam="2">  1       -2 0.12461877E+00 0.11770904E+04</pdfrwt>
<totfact> 0.11059732E+00</totfact>
</mgrwt>
</event>
<event>
 4    1  0.1033139E-008  0.8598762E+03  0.7818608E-02  0.9477177E-01
          2   -1    0    0  501    0  0.00000000000E+00  0.00000000000E+00  0.19907381432E+04  0.19907381432E+04  0.25500000000E-02 0. -1.
         -2   -1    0    0    0  501 -0.00000000000E+00 -0.00000000000E+00 -0.47857570191E+03  0.47857570192E+03  0.25500000000E-02 0.  1.
    8880022    1    1    2    0    0  0.48343910510E+03  0.69446528976E+03  0.17184060097E+03  0.87687869867E+03  0.15294330000E+03 0.  0.
    8880022    1    1    2    0    0 -0.48343910510E+03 -0.69446528976E+03  0.13403218403E+04  0.15924351465E+04  0.15294330000E+03 0.  0.
<mgrwt>
<rscale>  0 0.85987619E+03</rscale>
<asrwt>0</asrwt>
<pdfrwt beam="1">  1        2 0.30626741E+00 0.85987619E+03</pdfrwt>
<pdfrwt beam="2">  1       -2 0.73627031E-01 0.85987619E+03</pdfrwt>
<totfact> 0.11464664E+01</totfact>
</mgrwt>
</event>
<event>
 4    1  0.1033139E-008  0.3262182E+03  0.7818608E-02  0.1072823E+00
          2   -1    0    0  501    0  0.00000000000E+00  0.00000000000E+00  0.11614553462E+04  0.11614553462E+04  0.25500000000E-02 0. -1.
         -2   -1    0    0    0  501 -0.00000000000E+00 -0.00000000000E+00 -0.13130748887E+03  0.13130748889E+03  0.25500000000E-02 0.  1.
    8880022    1    1    2    0    0 -0.28565281034E+03 -0.37803673492E+02  0.87041367591E+03  0.92953658670E+03  0.15294330000E+03 0. -1.
    8880022    1    1    2    0    0  0.28565281034E+03  0.37803673492E+02  0.15973418141E+03  0.36322624838E+03  0.15294330000E+03 0.  1.
<mgrwt>
<rscale>  0 0.32621818E+03</rscale>
<asrwt>0</asrwt>
<pdfrwt beam="1">  1        2 0.17868544E+00 0.32621818E+03</pdfrwt>
<pdfrwt beam="2">  1       -2 0.20201152E-01 0.32621818E+03</pdfrwt>
<totfact> 0.43440780E+02</totfact>
</mgrwt>
</event>
<event>
 4    1  0.1033139E-008  0.1324095E+04  0.7818608E-02  0.9010673E-01
          2   -1    0    0  501    0  0.00000000000E+00  0.00000000000E+00  0.11613860447E+04  0.11613860447E+04  0.25500000000E-02 0. -1.
         -2   -1    0    0    0  501 -0.00000000000E+00 -0.00000000000E+00 -0.18530764632E+04  0.18530764632E+04  0.25500000000E-02 0.  1.
    8880022    1    1    2    0    0 -0.12202702819E+04 -0.49068838856E+03  0.30306235410E+03  0.13583346786E+04  0.15294330000E+03 0.  0.
    8880022    1    1    2    0    0  0.12202702819E+04  0.49068838856E+03 -0.99475277258E+03  0.16561278294E+04  0.15294330000E+03 0.  0.
<mgrwt>
<rscale>  0 0.13240945E+04</rscale>
<asrwt>0</asrwt>
<pdfrwt beam="1">  1        2 0.17867478E+00 0.13240945E+04</pdfrwt>
<pdfrwt beam="2">  1       -2 0.28508869E+00 0.13240945E+04</pdfrwt>
<totfact> 0.75354094E-01</totfact>
</mgrwt>
</event>
<event>
 4    1  0.1033139E-008  0.1382921E+04  0.7818608E-02  0.8966275E-01
         -2   -1    0    0    0  501 -0.00000000000E+00  0.00000000000E+00  0.12900611489E+04  0.12900611489E+04  0.25500000000E-02 0.  1.
          2   -1    0    0  501    0  0.00000000000E+00 -0.00000000000E+00 -0.23579490472E+04  0.23579490472E+04  0.25500000000E-02 0. -1.
    8880022    1    1    2    0    0 -0.50877709111E+03 -0.12768021181E+04 -0.16453766334E+04  0.21493565772E+04  0.15294330000E+03 0.  0.
    8880022    1    1    2    0    0  0.50877709111E+03  0.12768021181E+04  0.57748873505E+03  0.14986536189E+04  0.15294330000E+03 0.  0.
<mgrwt>
<rscale>  0 0.13829206E+04</rscale>
<asrwt>0</asrwt>
<pdfrwt beam="1">  1        2 0.36276139E+00 0.13829206E+04</pdfrwt>
<pdfrwt beam="2">  1       -2 0.19847095E+00 0.13829206E+04</pdfrwt>
<totfact> 0.54448023E-01</totfact>
</mgrwt>
</event>
<event>
 4    1  0.1033139E-008  0.1617254E+04  0.7818608E-02  0.8810018E-01
         -2   -1    0    0    0  501 -0.00000000000E+00  0.00000000000E+00  0.38484711965E+04  0.38484711965E+04  0.25500000000E-02 0.  1.
          2   -1    0    0  501    0  0.00000000000E+00 -0.00000000000E+00 -0.10982786210E+04  0.10982786210E+04  0.25500000000E-02 0. -1.
    8880022    1    1    2    0    0  0.55291929451E+03 -0.15120840698E+04 -0.15198493350E+03  0.16243795903E+04  0.15294330000E+03 0.  0.
    8880022    1    1    2    0    0 -0.55291929451E+03  0.15120840698E+04  0.29021775090E+04  0.33223702272E+04  0.15294330000E+03 0.  0.
<mgrwt>
<rscale>  0 0.16172537E+04</rscale>
<asrwt>0</asrwt>
<pdfrwt beam="1">  1        2 0.16896594E+00 0.16172537E+04</pdfrwt>
<pdfrwt beam="2">  1       -2 0.59207249E+00 0.16172537E+04</pdfrwt>
<totfact> 0.10802068E-02</totfact>
</mgrwt>
</event>
<event>
 4    1  0.1033139E-008  0.1412710E+04  0.7818608E-02  0.8944670E-01
          2   -1    0    0  501    0  0.00000000000E+00  0.00000000000E+00  0.30291497024E+04  0.30291497024E+04  0.25500000000E-02 0. -1.
         -2   -1    0    0    0  501 -0.00000000000E+00 -0.00000000000E+00 -0.13374366815E+04  0.13374366815E+04  0.25500000000E-02 0.  1.
    8880022    1    1    2    0    0  0.76580269654E+03 -0.11772439240E+04  0.24010298718E+04  0.27858020613E+04  0.15294330000E+03 0.  0.
    8880022    1    1    2    0    0 -0.76580269654E+03  0.11772439240E+04 -0.70931685093E+03  0.15807843226E+04  0.15294330000E+03 0.  0.
<mgrwt>
<rscale>  0 0.14127097E+04</rscale>
<asrwt>0</asrwt>
<pdfrwt beam="1">  1        2 0.46602303E+00 0.14127097E+04</pdfrwt>
<pdfrwt beam="2">  1       -2 0.20575949E+00 0.14127097E+04</pdfrwt>
<totfact> 0.19407004E-01</totfact>
</mgrwt>
</event>
<event>
 4    1  0.1033139E-008  0.1291719E+04  0.7818608E-02  0.9036158E-01
         -2   -1    0    0    0  501 -0.00000000000E+00  0.00000000000E+00  0.10925575890E+04  0.10925575890E+04  0.25500000000E-02 0.  1.
          2   -1    0    0  501    0  0.00000000000E+00 -0.00000000000E+00 -0.18709512426E+04  0.18709512426E+04  0.25500000000E-02 0. -1.
    8880022    1    1    2    0    0  0.34470419654E+02 -0.12821695571E+04  0.24595271284E+03  0.13149263755E+04  0.15294330000E+03 0.  0.
    8880022    1    1    2    0    0 -0.34470419654E+02  0.12821695571E+04 -0.10243463664E+04  0.16485824561E+04  0.15294330000E+03 0.  0.
<mgrwt>
<rscale>  0 0.12917193E+04</rscale>
<asrwt>0</asrwt>
<pdfrwt beam="1">  1        2 0.28783865E+00 0.12917193E+04</pdfrwt>
<pdfrwt beam="2">  1       -2 0.16808578E+00 0.12917193E+04</pdfrwt>
<totfact> 0.16673040E+00</totfact>
</mgrwt>
</event>
<event>
 4    1  0.1033139E-008  0.2768316E+03  0.7818608E-02  0.1097432E+00
         -2   -1    0    0    0  501 -0.00000000000E+00  0.00000000000E+00  0.70668375959E+02  0.70668376005E+02  0.25500000000E-02 0.  1.
          2   -1    0    0  501    0  0.00000000000E+00 -0.00000000000E+00 -0.20298346627E+04  0.20298346627E+04  0.25500000000E-02 0. -1.
    8880022    1    1    2    0    0 -0.20464246586E+03  0.10660929447E+03 -0.26283072046E+03  0.38172728634E+03  0.15294330000E+03 0.  0.
    8880022    1    1    2    0    0  0.20464246586E+03 -0.10660929447E+03 -0.16963355662E+04  0.17187757523E+04  0.15294330000E+03 0.  0.
<mgrwt>
<rscale>  0 0.27683160E+03</rscale>
<asrwt>0</asrwt>
<pdfrwt beam="1">  1        2 0.31228221E+00 0.27683160E+03</pdfrwt>
<pdfrwt beam="2">  1       -2 0.10872059E-01 0.27683160E+03</pdfrwt>
<totfact> 0.41621336E+02</totfact>
</mgrwt>
</event>
<event>
 4    1  0.1033139E-008  0.8161126E+03  0.7818608E-02  0.9536983E-01
         -2   -1    0    0    0  501 -0.00000000000E+00  0.00000000000E+00  0.15842467493E+04  0.15842467493E+04  0.25500000000E-02 0.  1.
          2   -1    0    0  501    0  0.00000000000E+00 -0.00000000000E+00 -0.88617233916E+03  0.88617233916E+03  0.25500000000E-02 0. -1.
    8880022    1    1    2    0    0  0.67614423446E+03  0.43067055973E+03  0.12445293406E+04  0.14882516889E+04  0.15294330000E+03 0.  0.
    8880022    1    1    2    0    0 -0.67614423446E+03 -0.43067055973E+03 -0.54645493044E+03  0.98216739960E+03  0.15294330000E+03 0.  0.
<mgrwt>
<rscale>  0 0.81611262E+03</rscale>
<asrwt>0</asrwt>
<pdfrwt beam="1">  1        2 0.13633421E+00 0.81611262E+03</pdfrwt>
<pdfrwt beam="2">  1       -2 0.24373027E+00 0.81611262E+03</pdfrwt>
<totfact> 0.21485868E+00</totfact>
</mgrwt>
</event>
<event>
 4    1  0.1033139E-008  0.1415349E+04  0.7818608E-02  0.8942783E-01
          2   -1    0    0  501    0  0.00000000000E+00  0.00000000000E+00  0.26400829786E+04  0.26400829786E+04  0.25500000000E-02 0. -1.
         -2   -1    0    0    0  501 -0.00000000000E+00 -0.00000000000E+00 -0.93081886173E+03  0.93081886173E+03  0.25500000000E-02 0.  1.
    8880022    1    1    2    0    0  0.43371962673E+03 -0.13385469582E+04  0.87018083362E+02  0.14180213234E+04  0.15294330000E+03 0.  0.
    8880022    1    1    2    0    0 -0.43371962673E+03  0.13385469582E+04  0.16222460335E+04  0.21528805169E+04  0.15294330000E+03 0.  0.
<mgrwt>
<rscale>  0 0.14153488E+04</rscale>
<asrwt>0</asrwt>
<pdfrwt beam="1">  1        2 0.40616661E+00 0.14153488E+04</pdfrwt>
<pdfrwt beam="2">  1       -2 0.14320290E+00 0.14153488E+04</pdfrwt>
<totfact> 0.93196929E-01</totfact>
</mgrwt>
</event>
<event>
 4    1  0.1033139E-008  0.2281022E+03  0.7818608E-02  0.1127983E+00
          2   -1    0    0  501    0  0.00000000000E+00  0.00000000000E+00  0.39047763006E+03  0.39047763007E+03  0.25500000000E-02 0. -1.
         -2   -1    0    0    0  501 -0.00000000000E+00 -0.00000000000E+00 -0.82054979823E+03  0.82054979823E+03  0.25500000000E-02 0.  1.
    8880022    1    1    2    0    0 -0.11363671753E+03 -0.12540196044E+03  0.33913652236E+03  0.40871039755E+03  0.15294330000E+03 0.  0.
    8880022    1    1    2    0    0  0.11363671753E+03  0.12540196044E+03 -0.76920869052E+03  0.80231703076E+03  0.15294330000E+03 0.  0.
<mgrwt>
<rscale>  0 0.22810219E+03</rscale>
<asrwt>0</asrwt>
<pdfrwt beam="1">  1        2 0.60073482E-01 0.22810219E+03</pdfrwt>
<pdfrwt beam="2">  1       -2 0.12623843E+00 0.22810219E+03</pdfrwt>
<totfact> 0.40981974E+01</totfact>
</mgrwt>
</event>
<event>
 4    1  0.1033139E-008  0.6692292E+03  0.7818608E-02  0.9771351E-01
         -2   -1    0    0    0  501 -0.00000000000E+00  0.00000000000E+00  0.48533070178E+03  0.48533070179E+03  0.25500000000E-02 0.  1.
          2   -1    0    0  501    0  0.00000000000E+00 -0.00000000000E+00 -0.23510060280E+04  0.23510060280E+04  0.25500000000E-02 0. -1.
    8880022    1    1    2    0    0 -0.27420370201E+03 -0.59100630157E+03  0.17249985599E+03  0.69110344524E+03  0.15294330000E+03 0.  0.
    8880022    1    1    2    0    0  0.27420370201E+03  0.59100630157E+03 -0.20381751822E+04  0.21452332845E+04  0.15294330000E+03 0.  0.
<mgrwt>
<rscale>  0 0.66922924E+03</rscale>
<asrwt>0</asrwt>
<pdfrwt beam="1">  1        2 0.36169323E+00 0.66922924E+03</pdfrwt>
<pdfrwt beam="2">  1       -2 0.74666263E-01 0.66922924E+03</pdfrwt>
<totfact> 0.72506923E+00</totfact>
</mgrwt>
</event>
<event>
 4    1  0.1033139E-008  0.5490033E+03  0.7818608E-02  0.1001725E+00
          2   -1    0    0  501    0  0.00000000000E+00  0.00000000000E+00  0.47162453939E+03  0.47162453940E+03  0.25500000000E-02 0. -1.
         -2   -1    0    0    0  501 -0.00000000000E+00 -0.00000000000E+00 -0.85377793698E+03  0.85377793698E+03  0.25500000000E-02 0.  1.
    8880022    1    1    2    0    0  0.73705882712E+02  0.52209236527E+03 -0.52340072975E+03  0.75852025150E+03  0.15294330000E+03 0.  0.
    8880022    1    1    2    0    0 -0.73705882712E+02 -0.52209236527E+03  0.14124733216E+03  0.56688222488E+03  0.15294330000E+03 0.  0.
<mgrwt>
<rscale>  0 0.54900332E+03</rscale>
<asrwt>0</asrwt>
<pdfrwt beam="1">  1        2 0.72557621E-01 0.54900332E+03</pdfrwt>
<pdfrwt beam="2">  1       -2 0.13135045E+00 0.54900332E+03</pdfrwt>
<totfact> 0.28739179E+01</totfact>
</mgrwt>
</event>
<event>
 4    1  0.1033139E-008  0.5201361E+03  0.7818608E-02  0.1008653E+00
          2   -1    0    0  501    0  0.00000000000E+00  0.00000000000E+00  0.17970715072E+04  0.17970715072E+04  0.25500000000E-02 0. -1.
         -2   -1    0    0    0  501 -0.00000000000E+00 -0.00000000000E+00 -0.10309426893E+04  0.10309426893E+04  0.25500000000E-02 0.  1.
    8880022    1    1    2    0    0  0.13922584394E+03  0.47724838871E+03 -0.92362865292E+03  0.10600148120E+04  0.15294330000E+03 0.  0.
    8880022    1    1    2    0    0 -0.13922584394E+03 -0.47724838871E+03  0.16897574709E+04  0.17679993845E+04  0.15294330000E+03 0.  0.
<mgrwt>
<rscale>  0 0.52013605E+03</rscale>
<asrwt>0</asrwt>
<pdfrwt beam="1">  1        2 0.27647254E+00 0.52013605E+03</pdfrwt>
<pdfrwt beam="2">  1       -2 0.15860657E+00 0.52013605E+03</pdfrwt>
<totfact> 0.24258804E+00</totfact>
</mgrwt>
</event>
<event>
 4    1  0.1033139E-008  0.1464354E+04  0.7818608E-02  0.8908509E-01
         -2   -1    0    0    0  501 -0.00000000000E+00  0.00000000000E+00  0.13094658150E+04  0.13094658150E+04  0.25500000000E-02 0.  1.
          2   -1    0    0  501    0  0.00000000000E+00 -0.00000000000E+00 -0.32219109356E+04  0.32219109356E+04  0.25500000000E-02 0. -1.
    8880022    1    1    2    0    0 -0.13878934440E+04 -0.44124026698E+03  0.63257544099E+03  0.15951440458E+04  0.15294330000E+03 0.  0.
    8880022    1    1    2    0    0  0.13878934440E+04  0.44124026698E+03 -0.25450205616E+04  0.29362327049E+04  0.15294330000E+03 0.  0.
<mgrwt>
<rscale>  0 0.14643541E+04</rscale>
<asrwt>0</asrwt>
<pdfrwt beam="1">  1        2 0.49567860E+00 0.14643541E+04</pdfrwt>
<pdfrwt beam="2">  1       -2 0.20145628E+00 0.14643541E+04</pdfrwt>
<totfact> 0.15490986E-01</totfact>
</mgrwt>
</event>
<event>
 4    1  0.1033139E-008  0.2192202E+04  0.7818608E-02  0.8521681E-01
          2   -1    0    0  501    0  0.00000000000E+00  0.00000000000E+00  0.33837785955E+04  0.33837785955E+04  0.25500000000E-02 0. -1.
         -2   -1    0    0    0  501 -0.00000000000E+00 -0.00000000000E+00 -0.18631406494E+04  0.18631406494E+04  0.25500000000E-02 0.  1.
    8880022    1    1    2    0    0  0.19682092186E+04 -0.95315921818E+03  0.20394307416E+04  0.29941658982E+04  0.15294330000E+03 0.  0.
    8880022    1    1    2    0    0 -0.19682092186E+04  0.95315921818E+03 -0.51879279543E+03  0.22527533467E+04  0.15294330000E+03 0.  0.
<mgrwt>
<rscale>  0 0.21922025E+04</rscale>
<asrwt>0</asrwt>
<pdfrwt beam="1">  1        2 0.52058132E+00 0.21922025E+04</pdfrwt>
<pdfrwt beam="2">  1       -2 0.28663702E+00 0.21922025E+04</pdfrwt>
<totfact> 0.32541139E-02</totfact>
</mgrwt>
</event>
<event>
 4    1  0.1883193E-008  0.1258484E+04  0.7818608E-02  0.9063151E-01
          2   -1    0    0  501    0  0.00000000000E+00  0.00000000000E+00  0.32557891730E+04  0.32557891730E+04  0.25500000000E-02 0. -1.
         -2   -1    0    0    0  501 -0.00000000000E+00 -0.00000000000E+00 -0.16160743654E+04  0.16160743654E+04  0.25500000000E-02 0.  1.
    8880022    1    1    2    0    0 -0.11062600528E+04 -0.58015452471E+03 -0.12167216027E+04  0.17504838441E+04  0.15294330000E+03 0.  0.
    8880022    1    1    2    0    0  0.11062600528E+04  0.58015452471E+03  0.28564364103E+04  0.31213796943E+04  0.15294330000E+03 0.  0.
<mgrwt>
<rscale>  0 0.12584841E+04</rscale>
<asrwt>0</asrwt>
<pdfrwt beam="1">  1        2 0.50089064E+00 0.12584841E+04</pdfrwt>
<pdfrwt beam="2">  1       -2 0.24862683E+00 0.12584841E+04</pdfrwt>
<totfact> 0.76451552E-02</totfact>
</mgrwt>
</event>
<event>
 4    1  0.1033139E-008  0.5582935E+03  0.7818608E-02  0.9995923E-01
          2   -1    0    0  501    0  0.00000000000E+00  0.00000000000E+00  0.74467721020E+03  0.74467721021E+03  0.25500000000E-02 0. -1.
         -2   -1    0    0    0  501 -0.00000000000E+00 -0.00000000000E+00 -0.13109538995E+04  0.13109538995E+04  0.25500000000E-02 0.  1.
    8880022    1    1    2    0    0  0.34376584182E+03 -0.41246217965E+03  0.56486958844E+03  0.79420986433E+03  0.15294330000E+03 0.  0.
    8880022    1    1    2    0    0 -0.34376584182E+03  0.41246217965E+03 -0.11311462778E+04  0.12614212454E+04  0.15294330000E+03 0.  0.
<mgrwt>
<rscale>  0 0.55829352E+03</rscale>
<asrwt>0</asrwt>
<pdfrwt beam="1">  1        2 0.11456572E+00 0.55829352E+03</pdfrwt>
<pdfrwt beam="2">  1       -2 0.20168522E+00 0.55829352E+03</pdfrwt>
<totfact> 0.51617830E+00</totfact>
</mgrwt>
</event>
<event>
 4    1  0.1033139E-008  0.1073916E+04  0.7818608E-02  0.9230995E-01
         -2   -1    0    0    0  501 -0.00000000000E+00  0.00000000000E+00  0.11063029184E+04  0.11063029184E+04  0.25500000000E-02 0.  1.
          2   -1    0    0  501    0  0.00000000000E+00 -0.00000000000E+00 -0.25159186105E+04  0.25159186105E+04  0.25500000000E-02 0. -1.
    8880022    1    1    2    0    0  0.10382348183E+04  0.22797358756E+03 -0.20908077807E+04  0.23504834234E+04  0.15294330000E+03 0.  0.
    8880022    1    1    2    0    0 -0.10382348183E+04 -0.22797358756E+03  0.68119208852E+03  0.12717381055E+04  0.15294330000E+03 0.  0.
<mgrwt>
<rscale>  0 0.10739158E+04</rscale>
<asrwt>0</asrwt>
<pdfrwt beam="1">  1        2 0.38706440E+00 0.10739158E+04</pdfrwt>
<pdfrwt beam="2">  1       -2 0.17020045E+00 0.10739158E+04</pdfrwt>
<totfact> 0.71984574E-01</totfact>
</mgrwt>
</event>
<event>
 4    1  0.1033139E-008  0.8795476E+03  0.7818608E-02  0.9451515E-01
         -2   -1    0    0    0  501 -0.00000000000E+00  0.00000000000E+00  0.22562134026E+04  0.22562134026E+04  0.25500000000E-02 0.  1.
          2   -1    0    0  501    0  0.00000000000E+00 -0.00000000000E+00 -0.14110258800E+04  0.14110258801E+04  0.25500000000E-02 0. -1.
    8880022    1    1    2    0    0  0.34359087293E+03 -0.79508338501E+03  0.20179498536E+04  0.22013008749E+04  0.15294330000E+03 0.  0.
    8880022    1    1    2    0    0 -0.34359087293E+03  0.79508338501E+03 -0.11727623311E+04  0.14659384077E+04  0.15294330000E+03 0.  0.
<mgrwt>
<rscale>  0 0.87954757E+03</rscale>
<asrwt>0</asrwt>
<pdfrwt beam="1">  1        2 0.21708090E+00 0.87954757E+03</pdfrwt>
<pdfrwt beam="2">  1       -2 0.34710975E+00 0.87954757E+03</pdfrwt>
<totfact> 0.23950293E-01</totfact>
</mgrwt>
</event>
<event>
 4    1  0.1033139E-008  0.2852904E+03  0.7818608E-02  0.1092834E+00
         -2   -1    0    0    0  501 -0.00000000000E+00  0.00000000000E+00  0.16057581392E+03  0.16057581394E+03  0.25500000000E-02 0.  1.
          2   -1    0    0  501    0  0.00000000000E+00 -0.00000000000E+00 -0.13894300989E+04  0.13894300989E+04  0.25500000000E-02 0. -1.
    8880022    1    1    2    0    0 -0.23884780483E+03 -0.30833077784E+02  0.32447698060E+01  0.28530883987E+03  0.15294330000E+03 0.  0.
    8880022    1    1    2    0    0  0.23884780483E+03  0.30833077784E+02 -0.12320990548E+04  0.12646970730E+04  0.15294330000E+03 0.  0.
<mgrwt>
<rscale>  0 0.28529039E+03</rscale>
<asrwt>0</asrwt>
<pdfrwt beam="1">  1        2 0.21375847E+00 0.28529039E+03</pdfrwt>
<pdfrwt beam="2">  1       -2 0.24703972E-01 0.28529039E+03</pdfrwt>
<totfact> 0.22878372E+02</totfact>
</mgrwt>
</event>
<event>
 4    1  0.1033139E-008  0.9660426E+03  0.7818608E-02  0.9346593E-01
         -2   -1    0    0    0  501 -0.00000000000E+00  0.00000000000E+00  0.10422917426E+04  0.10422917426E+04  0.25500000000E-02 0.  1.
          2   -1    0    0  501    0  0.00000000000E+00 -0.00000000000E+00 -0.17264440810E+04  0.17264440810E+04  0.25500000000E-02 0. -1.
    8880022    1    1    2    0    0  0.74626640499E+03  0.59408165550E+03  0.61841808262E+03  0.11470305744E+04  0.15294330000E+03 0.  0.
    8880022    1    1    2    0    0 -0.74626640499E+03 -0.59408165550E+03 -0.13025704210E+04  0.16217052492E+04  0.15294330000E+03 0.  0.
<mgrwt>
<rscale>  0 0.96604255E+03</rscale>
<asrwt>0</asrwt>
<pdfrwt beam="1">  1        2 0.26560678E+00 0.96604255E+03</pdfrwt>
<pdfrwt beam="2">  1       -2 0.16035258E+00 0.96604255E+03</pdfrwt>
<totfact> 0.23710567E+00</totfact>
</mgrwt>
</event>
<event>
 4    1  0.1033139E-008  0.9487783E+03  0.7818608E-02  0.9366580E-01
         -2   -1    0    0    0  501 -0.00000000000E+00  0.00000000000E+00  0.76501711587E+03  0.76501711587E+03  0.25500000000E-02 0.  1.
          2   -1    0    0  501    0  0.00000000000E+00 -0.00000000000E+00 -0.21128736846E+04  0.21128736846E+04  0.25500000000E-02 0. -1.
    8880022    1    1    2    0    0  0.92099780482E+03 -0.16897261468E+03  0.28390604307E+03  0.99034488705E+03  0.15294330000E+03 0.  0.
    8880022    1    1    2    0    0 -0.92099780482E+03  0.16897261468E+03 -0.16317626118E+04  0.18875459134E+04  0.15294330000E+03 0.  0.
<mgrwt>
<rscale>  0 0.94877835E+03</rscale>
<asrwt>0</asrwt>
<pdfrwt beam="1">  1        2 0.32505749E+00 0.94877835E+03</pdfrwt>
<pdfrwt beam="2">  1       -2 0.11769494E+00 0.94877835E+03</pdfrwt>
<totfact> 0.32444494E+00</totfact>
</mgrwt>
</event>
<event>
 4    1  0.1033139E-008  0.9043096E+03  0.7818608E-02  0.9420210E-01
         -2   -1    0    0    0  501 -0.00000000000E+00  0.00000000000E+00  0.54712237380E+03  0.54712237380E+03  0.25500000000E-02 0.  1.
          2   -1    0    0  501    0  0.00000000000E+00 -0.00000000000E+00 -0.33190736186E+04  0.33190736186E+04  0.25500000000E-02 0. -1.
    8880022    1    1    2    0    0  0.41996838601E+03 -0.78613655470E+03  0.47215359842E+02  0.90554131385E+03  0.15294330000E+03 0.  0.
    8880022    1    1    2    0    0 -0.41996838601E+03  0.78613655470E+03 -0.28191666047E+04  0.29606546786E+04  0.15294330000E+03 0.  0.
<mgrwt>
<rscale>  0 0.90430956E+03</rscale>
<asrwt>0</asrwt>
<pdfrwt beam="1">  1        2 0.51062670E+00 0.90430956E+03</pdfrwt>
<pdfrwt beam="2">  1       -2 0.84172675E-01 0.90430956E+03</pdfrwt>
<totfact> 0.13949611E+00</totfact>
</mgrwt>
</event>
<event>
 4    1  0.1033139E-008  0.2188440E+03  0.7818608E-02  0.1134748E+00
         -2   -1    0    0    0  501 -0.00000000000E+00  0.00000000000E+00  0.17045350145E+03  0.17045350147E+03  0.25500000000E-02 0.  1.
          2   -1    0    0  501    0  0.00000000000E+00 -0.00000000000E+00 -0.38996349390E+03  0.38996349390E+03  0.25500000000E-02 0. -1.
    8880022    1    1    2    0    0  0.58596707078E+01  0.15641834573E+03 -0.25789260127E+03  0.33823258481E+03  0.15294330000E+03 0.  0.
    8880022    1    1    2    0    0 -0.58596707078E+01 -0.15641834573E+03  0.38382608817E+02  0.22218441056E+03  0.15294330000E+03 0.  0.
<mgrwt>
<rscale>  0 0.21884398E+03</rscale>
<asrwt>0</asrwt>
<pdfrwt beam="1">  1        2 0.59994383E-01 0.21884398E+03</pdfrwt>
<pdfrwt beam="2">  1       -2 0.26223616E-01 0.21884398E+03</pdfrwt>
<totfact> 0.10701574E+03</totfact>
</mgrwt>
</event>
<event>
 4    1  0.1033139E-008  0.9033782E+03  0.7818608E-02  0.9421368E-01
          2   -1    0    0  501    0  0.00000000000E+00  0.00000000000E+00  0.10046909989E+04  0.10046909989E+04  0.25500000000E-02 0. -1.
         -2   -1    0    0    0  501 -0.00000000000E+00 -0.00000000000E+00 -0.16347698010E+04  0.16347698010E+04  0.25500000000E-02 0.  1.
    8880022    1    1    2    0    0 -0.51978771546E+03 -0.72285625975E+03  0.62105949731E+03  0.10962695807E+04  0.15294330000E+03 0.  0.
    8880022    1    1    2    0    0  0.51978771546E+03  0.72285625975E+03 -0.12511382994E+04  0.15431912191E+04  0.15294330000E+03 0.  0.
<mgrwt>
<rscale>  0 0.90337816E+03</rscale>
<asrwt>0</asrwt>
<pdfrwt beam="1">  1        2 0.15456785E+00 0.90337816E+03</pdfrwt>
<pdfrwt beam="2">  1       -2 0.25150305E+00 0.90337816E+03</pdfrwt>
<totfact> 0.15893317E+00</totfact>
</mgrwt>
</event>
<event>
 4    1  0.1033139E-008  0.5803551E+03  0.7818608E-02  0.9947022E-01
          2   -1    0    0  501    0  0.00000000000E+00  0.00000000000E+00  0.21317533262E+04  0.21317533262E+04  0.25500000000E-02 0. -1.
         -2   -1    0    0    0  501 -0.00000000000E+00 -0.00000000000E+00 -0.66578340768E+03  0.66578340769E+03  0.25500000000E-02 0.  1.
    8880022    1    1    2    0    0 -0.45148849516E+03 -0.33102653897E+03  0.19545583459E+04  0.20388993137E+04  0.15294330000E+03 0.  0.
    8880022    1    1    2    0    0  0.45148849516E+03  0.33102653897E+03 -0.48858842746E+03  0.75863742014E+03  0.15294330000E+03 0.  0.
<mgrwt>
<rscale>  0 0.58035514E+03</rscale>
<asrwt>0</asrwt>
<pdfrwt beam="1">  1        2 0.32796205E+00 0.58035514E+03</pdfrwt>
<pdfrwt beam="2">  1       -2 0.10242822E+00 0.58035514E+03</pdfrwt>
<totfact> 0.47276624E+00</totfact>
</mgrwt>
</event>
<event>
 4    1  0.1033139E-008  0.3835885E+03  0.7818608E-02  0.1049615E+00
         -2   -1    0    0    0  501 -0.00000000000E+00  0.00000000000E+00  0.17819601196E+04  0.17819601196E+04  0.25500000000E-02 0.  1.
          2   -1    0    0  501    0  0.00000000000E+00 -0.00000000000E+00 -0.41605751410E+03  0.41605751411E+03  0.25500000000E-02 0. -1.
    8880022    1    1    2    0    0 -0.34859350649E+03  0.47233714793E+02 -0.30097584293E+03  0.48757211531E+03  0.15294330000E+03 0.  0.
    8880022    1    1    2    0    0  0.34859350649E+03 -0.47233714793E+02  0.16668784484E+04  0.17104455184E+04  0.15294330000E+03 0.  0.
<mgrwt>
<rscale>  0 0.38358846E+03</rscale>
<asrwt>0</asrwt>
<pdfrwt beam="1">  1        2 0.64008848E-01 0.38358846E+03</pdfrwt>
<pdfrwt beam="2">  1       -2 0.27414771E+00 0.38358846E+03</pdfrwt>
<totfact> 0.38563671E+00</totfact>
</mgrwt>
</event>
<event>
 4    1  0.1033139E-008  0.1970201E+04  0.7818608E-02  0.8620681E-01
          2   -1    0    0  501    0  0.00000000000E+00  0.00000000000E+00  0.14577456476E+04  0.14577456476E+04  0.25500000000E-02 0. -1.
         -2   -1    0    0    0  501 -0.00000000000E+00 -0.00000000000E+00 -0.30676794358E+04  0.30676794358E+04  0.25500000000E-02 0.  1.
    8880022    1    1    2    0    0  0.43905871689E+03  0.19145563790E+04 -0.16269924749E+04  0.25551506515E+04  0.15294330000E+03 0.  0.
    8880022    1    1    2    0    0 -0.43905871689E+03 -0.19145563790E+04  0.17058686748E+02  0.19702744319E+04  0.15294330000E+03 0.  0.
<mgrwt>
<rscale>  0 0.19702006E+04</rscale>
<asrwt>0</asrwt>
<pdfrwt beam="1">  1        2 0.22426856E+00 0.19702006E+04</pdfrwt>
<pdfrwt beam="2">  1       -2 0.47195068E+00 0.19702006E+04</pdfrwt>
<totfact> 0.29768434E-02</totfact>
</mgrwt>
</event>
<event>
 4    1  0.1033139E-008  0.5349154E+03  0.7818608E-02  0.1005047E+00
         -2   -1    0    0    0  501 -0.00000000000E+00  0.00000000000E+00  0.91689272785E+03  0.91689272786E+03  0.25500000000E-02 0.  1.
          2   -1    0    0  501    0  0.00000000000E+00 -0.00000000000E+00 -0.26315322520E+04  0.26315322520E+04  0.25500000000E-02 0. -1.
    8880022    1    1    2    0    0 -0.41243890384E+03 -0.30436326121E+03  0.80837323653E+03  0.96933058691E+03  0.15294330000E+03 0.  0.
    8880022    1    1    2    0    0  0.41243890384E+03  0.30436326121E+03 -0.25230127607E+04  0.25790943929E+04  0.15294330000E+03 0.  0.
<mgrwt>
<rscale>  0 0.53491541E+03</rscale>
<asrwt>0</asrwt>
<pdfrwt beam="1">  1        2 0.40485111E+00 0.53491541E+03</pdfrwt>
<pdfrwt beam="2">  1       -2 0.14106042E+00 0.53491541E+03</pdfrwt>
<totfact> 0.11459147E+00</totfact>
</mgrwt>
</event>
<event>
 4    1  0.1033139E-008  0.6800904E+03  0.7818608E-02  0.9751899E-01
          2   -1    0    0  501    0  0.00000000000E+00  0.00000000000E+00  0.14939836735E+04  0.14939836735E+04  0.25500000000E-02 0. -1.
         -2   -1    0    0    0  501 -0.00000000000E+00 -0.00000000000E+00 -0.15805405254E+04  0.15805405254E+04  0.25500000000E-02 0.  1.
    8880022    1    1    2    0    0  0.54406984361E+03  0.37831115361E+03  0.13352297914E+04  0.14984530598E+04  0.15294330000E+03 0. -1.
    8880022    1    1    2    0    0 -0.54406984361E+03 -0.37831115361E+03 -0.14217866433E+04  0.15760711391E+04  0.15294330000E+03 0.  0.
<mgrwt>
<rscale>  0 0.68009042E+03</rscale>
<asrwt>0</asrwt>
<pdfrwt beam="1">  1        2 0.22984364E+00 0.68009042E+03</pdfrwt>
<pdfrwt beam="2">  1       -2 0.24316008E+00 0.68009042E+03</pdfrwt>
<totfact> 0.95667491E-01</totfact>
</mgrwt>
</event>
<event>
 4    1  0.1033139E-008  0.3368073E+03  0.7818608E-02  0.1068164E+00
         -2   -1    0    0    0  501 -0.00000000000E+00  0.00000000000E+00  0.38271214732E+03  0.38271214733E+03  0.25500000000E-02 0.  1.
          2   -1    0    0  501    0  0.00000000000E+00 -0.00000000000E+00 -0.98344917700E+03  0.98344917700E+03  0.25500000000E-02 0. -1.
    8880022    1    1    2    0    0 -0.27875701144E+03 -0.11109484016E+03 -0.87130422891E+03  0.93413609676E+03  0.15294330000E+03 0. -1.
    8880022    1    1    2    0    0  0.27875701144E+03  0.11109484016E+03  0.27056719923E+03  0.43202522757E+03  0.15294330000E+03 0.  0.
<mgrwt>
<rscale>  0 0.33680735E+03</rscale>
<asrwt>0</asrwt>
<pdfrwt beam="1">  1        2 0.15129987E+00 0.33680735E+03</pdfrwt>
<pdfrwt beam="2">  1       -2 0.58878792E-01 0.33680735E+03</pdfrwt>
<totfact> 0.74025454E+01</totfact>
</mgrwt>
</event>
<event>
 4    1  0.1033139E-008  0.3040719E+03  0.7818608E-02  0.1083223E+00
         -2   -1    0    0    0  501 -0.00000000000E+00  0.00000000000E+00  0.11798479393E+03  0.11798479396E+03  0.25500000000E-02 0.  1.
          2   -1    0    0  501    0  0.00000000000E+00 -0.00000000000E+00 -0.15754125308E+04  0.15754125308E+04  0.25500000000E-02 0. -1.
    8880022    1    1    2    0    0  0.25952626119E+03 -0.41402471707E+02 -0.13289568265E+04  0.13632996532E+04  0.15294330000E+03 0.  0.
    8880022    1    1    2    0    0 -0.25952626119E+03  0.41402471707E+02 -0.12847091041E+03  0.33009767153E+03  0.15294330000E+03 0.  0.
<mgrwt>
<rscale>  0 0.30407186E+03</rscale>
<asrwt>0</asrwt>
<pdfrwt beam="1">  1        2 0.24237114E+00 0.30407186E+03</pdfrwt>
<pdfrwt beam="2">  1       -2 0.18151508E-01 0.30407186E+03</pdfrwt>
<totfact> 0.30887519E+02</totfact>
</mgrwt>
</event>
<event>
 4    1  0.1033139E-008  0.7690259E+03  0.7818608E-02  0.9605966E-01
          2   -1    0    0  501    0  0.00000000000E+00  0.00000000000E+00  0.12606104485E+04  0.12606104485E+04  0.25500000000E-02 0. -1.
         -2   -1    0    0    0  501 -0.00000000000E+00 -0.00000000000E+00 -0.79963242105E+03  0.79963242105E+03  0.25500000000E-02 0.  1.
    8880022    1    1    2    0    0  0.72184664040E+03  0.21667178384E+03  0.89274359123E+03  0.11783004739E+04  0.15294330000E+03 0.  0.
    8880022    1    1    2    0    0 -0.72184664040E+03 -0.21667178384E+03 -0.43176556376E+03  0.88194239564E+03  0.15294330000E+03 0.  0.
<mgrwt>
<rscale>  0 0.76902593E+03</rscale>
<asrwt>0</asrwt>
<pdfrwt beam="1">  1        2 0.19394007E+00 0.76902593E+03</pdfrwt>
<pdfrwt beam="2">  1       -2 0.12302037E+00 0.76902593E+03</pdfrwt>
<totfact> 0.88609028E+00</totfact>
</mgrwt>
</event>
<event>
 4    1  0.1033139E-008  0.5479183E+03  0.7818608E-02  0.1001977E+00
          2   -1    0    0  501    0  0.00000000000E+00  0.00000000000E+00  0.62474887766E+03  0.62474887766E+03  0.25500000000E-02 0. -1.
         -2   -1    0    0    0  501 -0.00000000000E+00 -0.00000000000E+00 -0.11944605393E+04  0.11944605393E+04  0.25500000000E-02 0.  1.
    8880022    1    1    2    0    0  0.51929877328E+03 -0.84567234552E+02  0.41836685694E+03  0.68938038345E+03  0.15294330000E+03 0.  0.
    8880022    1    1    2    0    0 -0.51929877328E+03  0.84567234552E+02 -0.98807851858E+03  0.11298290335E+04  0.15294330000E+03 0.  0.
<mgrwt>
<rscale>  0 0.54791832E+03</rscale>
<asrwt>0</asrwt>
<pdfrwt beam="1">  1        2 0.96115212E-01 0.54791832E+03</pdfrwt>
<pdfrwt beam="2">  1       -2 0.18376316E+00 0.54791832E+03</pdfrwt>
<totfact> 0.84347256E+00</totfact>
</mgrwt>
</event>
<event>
 4    1  0.1033139E-008  0.8794805E+03  0.7818608E-02  0.9451602E-01
         -2   -1    0    0    0  501 -0.00000000000E+00  0.00000000000E+00  0.86268964253E+03  0.86268964253E+03  0.25500000000E-02 0.  1.
          2   -1    0    0  501    0  0.00000000000E+00 -0.00000000000E+00 -0.15253551288E+04  0.15253551288E+04  0.25500000000E-02 0. -1.
    8880022    1    1    2    0    0  0.64848199111E+03  0.57407783609E+03  0.43526653669E+03  0.98129652280E+03  0.15294330000E+03 0.  0.
    8880022    1    1    2    0    0 -0.64848199111E+03 -0.57407783609E+03 -0.10979320230E+04  0.14067482485E+04  0.15294330000E+03 0.  0.
<mgrwt>
<rscale>  0 0.87948048E+03</rscale>
<asrwt>0</asrwt>
<pdfrwt beam="1">  1        2 0.23467002E+00 0.87948048E+03</pdfrwt>
<pdfrwt beam="2">  1       -2 0.13272148E+00 0.87948048E+03</pdfrwt>
<totfact> 0.51003409E+00</totfact>
</mgrwt>
</event>
<event>
 4    1  0.1033139E-008  0.2193417E+04  0.7818608E-02  0.8521173E-01
          2   -1    0    0  501    0  0.00000000000E+00  0.00000000000E+00  0.30016420114E+04  0.30016420114E+04  0.25500000000E-02 0. -1.
         -2   -1    0    0    0  501 -0.00000000000E+00 -0.00000000000E+00 -0.16246002331E+04  0.16246002331E+04  0.25500000000E-02 0.  1.
    8880022    1    1    2    0    0 -0.20915139047E+04 -0.64284981569E+03  0.95637760076E+03  0.23928510333E+04  0.15294330000E+03 0.  0.
    8880022    1    1    2    0    0  0.20915139047E+04  0.64284981569E+03  0.42066417748E+03  0.22333912112E+04  0.15294330000E+03 0.  0.
<mgrwt>
<rscale>  0 0.21934170E+04</rscale>
<asrwt>0</asrwt>
<pdfrwt beam="1">  1        2 0.46179107E+00 0.21934170E+04</pdfrwt>
<pdfrwt beam="2">  1       -2 0.24993850E+00 0.21934170E+04</pdfrwt>
<totfact> 0.97423049E-02</totfact>
</mgrwt>
</event>
<event>
 4    1  0.1033139E-008  0.4232067E+03  0.7818608E-02  0.1036028E+00
         -2   -1    0    0    0  501 -0.00000000000E+00  0.00000000000E+00  0.32497232982E+03  0.32497232983E+03  0.25500000000E-02 0.  1.
          2   -1    0    0  501    0  0.00000000000E+00 -0.00000000000E+00 -0.11597386117E+04  0.11597386117E+04  0.25500000000E-02 0. -1.
    8880022    1    1    2    0    0  0.35678026074E+03 -0.16858260121E+03 -0.95515591937E+03  0.10447137078E+04  0.15294330000E+03 0.  0.
    8880022    1    1    2    0    0 -0.35678026074E+03  0.16858260121E+03  0.12038963749E+03  0.43999723376E+03  0.15294330000E+03 0.  0.
<mgrwt>
<rscale>  0 0.42320669E+03</rscale>
<asrwt>0</asrwt>
<pdfrwt beam="1">  1        2 0.17842132E+00 0.42320669E+03</pdfrwt>
<pdfrwt beam="2">  1       -2 0.49995744E-01 0.42320669E+03</pdfrwt>
<totfact> 0.79840072E+01</totfact>
</mgrwt>
</event>
<event>
 4    1  0.1033139E-008  0.6297480E+03  0.7818608E-02  0.9845541E-01
          2   -1    0    0  501    0  0.00000000000E+00  0.00000000000E+00  0.14698217261E+04  0.14698217261E+04  0.25500000000E-02 0. -1.
         -2   -1    0    0    0  501 -0.00000000000E+00 -0.00000000000E+00 -0.53070948799E+03  0.53070948799E+03  0.25500000000E-02 0.  1.
    8880022    1    1    2    0    0  0.60741445096E+03 -0.65104684705E+02 -0.23176653508E+03  0.67104270729E+03  0.15294330000E+03 0.  0.
    8880022    1    1    2    0    0 -0.60741445096E+03  0.65104684705E+02  0.11708787732E+04  0.13294885068E+04  0.15294330000E+03 0. -1.
<mgrwt>
<rscale>  0 0.62974804E+03</rscale>
<asrwt>0</asrwt>
<pdfrwt beam="1">  1        2 0.22612642E+00 0.62974804E+03</pdfrwt>
<pdfrwt beam="2">  1       -2 0.81647613E-01 0.62974804E+03</pdfrwt>
<totfact> 0.18133086E+01</totfact>
</mgrwt>
</event>
<event>
 4    1  0.1033139E-008  0.7014945E+03  0.7818608E-02  0.9714680E-01
         -2   -1    0    0    0  501 -0.00000000000E+00  0.00000000000E+00  0.19877989192E+04  0.19877989192E+04  0.25500000000E-02 0.  1.
          2   -1    0    0  501    0  0.00000000000E+00 -0.00000000000E+00 -0.86451045474E+03  0.86451045475E+03  0.25500000000E-02 0. -1.
    8880022    1    1    2    0    0  0.58708688696E+03 -0.35218150973E+03 -0.64313519160E+03  0.95169183895E+03  0.15294330000E+03 0.  0.
    8880022    1    1    2    0    0 -0.58708688696E+03  0.35218150973E+03  0.17664236561E+04  0.19006175350E+04  0.15294330000E+03 0.  0.
<mgrwt>
<rscale>  0 0.70149446E+03</rscale>
<asrwt>0</asrwt>
<pdfrwt beam="1">  1        2 0.13300161E+00 0.70149446E+03</pdfrwt>
<pdfrwt beam="2">  1       -2 0.30581522E+00 0.70149446E+03</pdfrwt>
<totfact> 0.95890037E-01</totfact>
</mgrwt>
</event>
<event>
 4    1  0.1033139E-008  0.5140413E+03  0.7818608E-02  0.1010178E+00
         -2   -1    0    0    0  501 -0.00000000000E+00  0.00000000000E+00  0.15275001473E+04  0.15275001473E+04  0.25500000000E-02 0.  1.
          2   -1    0    0  501    0  0.00000000000E+00 -0.00000000000E+00 -0.78712553387E+03  0.78712553387E+03  0.25500000000E-02 0. -1.
    8880022    1    1    2    0    0  0.46328963714E+03 -0.16189359252E+03  0.13924482259E+04  0.14843013636E+04  0.15294330000E+03 0.  0.
    8880022    1    1    2    0    0 -0.46328963714E+03  0.16189359252E+03 -0.65207361249E+03  0.83032431754E+03  0.15294330000E+03 0.  0.
<mgrwt>
<rscale>  0 0.51404132E+03</rscale>
<asrwt>0</asrwt>
<pdfrwt beam="1">  1        2 0.12109624E+00 0.51404132E+03</pdfrwt>
<pdfrwt beam="2">  1       -2 0.23500002E+00 0.51404132E+03</pdfrwt>
<totfact> 0.30052836E+00</totfact>
</mgrwt>
</event>
<event>
 4    1  0.1033139E-008  0.8014504E+03  0.7818608E-02  0.9557920E-01
         -2   -1    0    0    0  501 -0.00000000000E+00  0.00000000000E+00  0.55277724781E+03  0.55277724781E+03  0.25500000000E-02 0.  1.
          2   -1    0    0  501    0  0.00000000000E+00 -0.00000000000E+00 -0.19697236038E+04  0.19697236038E+04  0.25500000000E-02 0. -1.
    8880022    1    1    2    0    0  0.31661520527E+03 -0.72019852944E+03  0.99193578589E+02  0.80756555713E+03  0.15294330000E+03 0.  0.
    8880022    1    1    2    0    0 -0.31661520527E+03  0.72019852944E+03 -0.15161399345E+04  0.17149352945E+04  0.15294330000E+03 0.  0.
<mgrwt>
<rscale>  0 0.80145041E+03</rscale>
<asrwt>0</asrwt>
<pdfrwt beam="1">  1        2 0.30303440E+00 0.80145041E+03</pdfrwt>
<pdfrwt beam="2">  1       -2 0.85042654E-01 0.80145041E+03</pdfrwt>
<totfact> 0.85845882E+00</totfact>
</mgrwt>
</event>
<event>
 4    1  0.1033139E-008  0.4644698E+03  0.7818608E-02  0.1023493E+00
         -2   -1    0    0    0  501 -0.00000000000E+00  0.00000000000E+00  0.80650090633E+03  0.80650090633E+03  0.25500000000E-02 0.  1.
          2   -1    0    0  501    0  0.00000000000E+00 -0.00000000000E+00 -0.80134266907E+03  0.80134266908E+03  0.25500000000E-02 0. -1.
    8880022    1    1    2    0    0 -0.43856305662E+03 -0.17375683053E+01 -0.65358838555E+03  0.80181669010E+03  0.15294330000E+03 0.  0.
    8880022    1    1    2    0    0  0.43856305662E+03  0.17375683053E+01  0.65874662281E+03  0.80602688531E+03  0.15294330000E+03 0.  0.
<mgrwt>
<rscale>  0 0.46446983E+03</rscale>
<asrwt>0</asrwt>
<pdfrwt beam="1">  1        2 0.12328349E+00 0.46446983E+03</pdfrwt>
<pdfrwt beam="2">  1       -2 0.12407706E+00 0.46446983E+03</pdfrwt>
<totfact> 0.17667926E+01</totfact>
</mgrwt>
</event>
<event>
 4    1  0.1033139E-008  0.2453972E+03  0.7818608E-02  0.1116249E+00
         -2   -1    0    0    0  501 -0.00000000000E+00  0.00000000000E+00  0.18091992156E+03  0.18091992158E+03  0.25500000000E-02 0.  1.
          2   -1    0    0  501    0  0.00000000000E+00 -0.00000000000E+00 -0.13879505421E+04  0.13879505421E+04  0.25500000000E-02 0. -1.
    8880022    1    1    2    0    0 -0.19133046491E+03 -0.14858123701E+02  0.80422121087E+02  0.25823919381E+03  0.15294330000E+03 0.  0.
    8880022    1    1    2    0    0  0.19133046491E+03  0.14858123701E+02 -0.12874527416E+04  0.13106312699E+04  0.15294330000E+03 0.  0.
<mgrwt>
<rscale>  0 0.24539715E+03</rscale>
<asrwt>0</asrwt>
<pdfrwt beam="1">  1        2 0.21353085E+00 0.24539715E+03</pdfrwt>
<pdfrwt beam="2">  1       -2 0.27833835E-01 0.24539715E+03</pdfrwt>
<totfact> 0.18672651E+02</totfact>
</mgrwt>
</event>
<event>
 4    1  0.1033139E-008  0.1331222E+04  0.7818608E-02  0.9005166E-01
          2   -1    0    0  501    0  0.00000000000E+00  0.00000000000E+00  0.31952043702E+04  0.31952043702E+04  0.25500000000E-02 0. -1.
         -2   -1    0    0    0  501 -0.00000000000E+00 -0.00000000000E+00 -0.10753102057E+04  0.10753102057E+04  0.25500000000E-02 0.  1.
    8880022    1    1    2    0    0  0.12128227425E+04  0.52708748880E+03 -0.42588395799E+03  0.13976870266E+04  0.15294330000E+03 0.  0.
    8880022    1    1    2    0    0 -0.12128227425E+04 -0.52708748880E+03  0.25457781225E+04  0.28728275493E+04  0.15294330000E+03 0.  0.
<mgrwt>
<rscale>  0 0.13312219E+04</rscale>
<asrwt>0</asrwt>
<pdfrwt beam="1">  1        2 0.49156990E+00 0.13312219E+04</pdfrwt>
<pdfrwt beam="2">  1       -2 0.16543234E+00 0.13312219E+04</pdfrwt>
<totfact> 0.29079967E-01</totfact>
</mgrwt>
</event>
<event>
 4    1  0.1033139E-008  0.3496424E+03  0.7818608E-02  0.1062762E+00
          2   -1    0    0  501    0  0.00000000000E+00  0.00000000000E+00  0.97061439792E+03  0.97061439793E+03  0.25500000000E-02 0. -1.
         -2   -1    0    0    0  501 -0.00000000000E+00 -0.00000000000E+00 -0.33456086848E+03  0.33456086849E+03  0.25500000000E-02 0.  1.
    8880022    1    1    2    0    0 -0.30603294098E+03  0.72124880730E+02 -0.19728343340E+03  0.40146054039E+03  0.15294330000E+03 0.  1.
    8880022    1    1    2    0    0  0.30603294098E+03 -0.72124880730E+02  0.83333696284E+03  0.90371472603E+03  0.15294330000E+03 0.  0.
<mgrwt>
<rscale>  0 0.34964241E+03</rscale>
<asrwt>0</asrwt>
<pdfrwt beam="1">  1        2 0.14932529E+00 0.34964241E+03</pdfrwt>
<pdfrwt beam="2">  1       -2 0.51470904E-01 0.34964241E+03</pdfrwt>
<totfact> 0.99144280E+01</totfact>
</mgrwt>
</event>
<event>
 4    1  0.1033139E-008  0.5212507E+03  0.7818608E-02  0.1008376E+00
          2   -1    0    0  501    0  0.00000000000E+00  0.00000000000E+00  0.50632485873E+03  0.50632485874E+03  0.25500000000E-02 0. -1.
         -2   -1    0    0    0  501 -0.00000000000E+00 -0.00000000000E+00 -0.15227856921E+04  0.15227856921E+04  0.25500000000E-02 0.  1.
    8880022    1    1    2    0    0 -0.49657833122E+03 -0.41480107541E+02  0.30822415920E+03  0.60556124685E+03  0.15294330000E+03 0.  0.
    8880022    1    1    2    0    0  0.49657833122E+03  0.41480107541E+02 -0.13246849926E+04  0.14235493040E+04  0.15294330000E+03 0.  1.
<mgrwt>
<rscale>  0 0.52125070E+03</rscale>
<asrwt>0</asrwt>
<pdfrwt beam="1">  1        2 0.77896133E-01 0.52125070E+03</pdfrwt>
<pdfrwt beam="2">  1       -2 0.23427472E+00 0.52125070E+03</pdfrwt>
<totfact> 0.51820233E+00</totfact>
</mgrwt>
</event>
<event>
 4    1  0.1033139E-008  0.6768033E+03  0.7818608E-02  0.9757745E-01
          2   -1    0    0  501    0  0.00000000000E+00  0.00000000000E+00  0.24091361747E+04  0.24091361747E+04  0.25500000000E-02 0. -1.
         -2   -1    0    0    0  501 -0.00000000000E+00 -0.00000000000E+00 -0.23601965347E+03  0.23601965348E+03  0.25500000000E-02 0.  1.
    8880022    1    1    2    0    0  0.65535585091E+03 -0.71970473562E+02  0.50341160020E+03  0.84349625525E+03  0.15294330000E+03 0.  0.
    8880022    1    1    2    0    0 -0.65535585091E+03  0.71970473562E+02  0.16697049210E+04  0.18016595729E+04  0.15294330000E+03 0.  0.
<mgrwt>
<rscale>  0 0.67680329E+03</rscale>
<asrwt>0</asrwt>
<pdfrwt beam="1">  1        2 0.37063635E+00 0.67680329E+03</pdfrwt>
<pdfrwt beam="2">  1       -2 0.36310715E-01 0.67680329E+03</pdfrwt>
<totfact> 0.29522844E+01</totfact>
</mgrwt>
</event>
<event>
 4    1  0.1033139E-008  0.1582438E+04  0.7818608E-02  0.8831410E-01
         -2   -1    0    0    0  501 -0.00000000000E+00  0.00000000000E+00  0.12929660858E+04  0.12929660858E+04  0.25500000000E-02 0.  1.
          2   -1    0    0  501    0  0.00000000000E+00 -0.00000000000E+00 -0.24050918167E+04  0.24050918167E+04  0.25500000000E-02 0. -1.
    8880022    1    1    2    0    0 -0.19469810574E+03  0.15629494853E+04 -0.13720332527E+04  0.20944176627E+04  0.15294330000E+03 0.  0.
    8880022    1    1    2    0    0  0.19469810574E+03 -0.15629494853E+04  0.25990752180E+03  0.16036402399E+04  0.15294330000E+03 0.  0.
<mgrwt>
<rscale>  0 0.15824380E+04</rscale>
<asrwt>0</asrwt>
<pdfrwt beam="1">  1        2 0.37001413E+00 0.15824380E+04</pdfrwt>
<pdfrwt beam="2">  1       -2 0.19891786E+00 0.15824380E+04</pdfrwt>
<totfact> 0.49721248E-01</totfact>
</mgrwt>
</event>
<event>
 4    1  0.1033139E-008  0.2308002E+03  0.7818608E-02  0.1126078E+00
          2   -1    0    0  501    0  0.00000000000E+00  0.00000000000E+00  0.16248514948E+04  0.16248514948E+04  0.25500000000E-02 0. -1.
         -2   -1    0    0    0  501 -0.00000000000E+00 -0.00000000000E+00 -0.22816616666E+04  0.22816616666E+04  0.25500000000E-02 0.  1.
    8880022    1    1    2    0    0 -0.14027254974E+03  0.10099837055E+03  0.16107681739E+04  0.16272193528E+04  0.15294330000E+03 0.  0.
    8880022    1    1    2    0    0  0.14027254974E+03 -0.10099837055E+03 -0.22675783457E+04  0.22792938087E+04  0.15294330000E+03 0.  0.
<mgrwt>
<rscale>  0 0.23080016E+03</rscale>
<asrwt>0</asrwt>
<pdfrwt beam="1">  1        2 0.24997715E+00 0.23080016E+03</pdfrwt>
<pdfrwt beam="2">  1       -2 0.35102487E+00 0.23080016E+03</pdfrwt>
<totfact> 0.22416649E-01</totfact>
</mgrwt>
</event>
<event>
 4    1  0.1033139E-008  0.1403211E+04  0.7818608E-02  0.8951498E-01
         -2   -1    0    0    0  501 -0.00000000000E+00  0.00000000000E+00  0.10888893952E+04  0.10888893953E+04  0.25500000000E-02 0.  1.
          2   -1    0    0  501    0  0.00000000000E+00 -0.00000000000E+00 -0.25579691285E+04  0.25579691285E+04  0.25500000000E-02 0. -1.
    8880022    1    1    2    0    0 -0.13631330633E+04  0.29576451633E+03 -0.17216971707E+04  0.22210900923E+04  0.15294330000E+03 0.  0.
    8880022    1    1    2    0    0  0.13631330633E+04 -0.29576451633E+03  0.25261743741E+03  0.14257684315E+04  0.15294330000E+03 0.  0.
<mgrwt>
<rscale>  0 0.14032106E+04</rscale>
<asrwt>0</asrwt>
<pdfrwt beam="1">  1        2 0.39353371E+00 0.14032106E+04</pdfrwt>
<pdfrwt beam="2">  1       -2 0.16752145E+00 0.14032106E+04</pdfrwt>
<totfact> 0.68147554E-01</totfact>
</mgrwt>
</event>
<event>
 4    1  0.1033139E-008  0.1128930E+04  0.7818608E-02  0.9177444E-01
         -2   -1    0    0    0  501 -0.00000000000E+00  0.00000000000E+00  0.19713643851E+04  0.19713643851E+04  0.25500000000E-02 0.  1.
          2   -1    0    0  501    0  0.00000000000E+00 -0.00000000000E+00 -0.17176287156E+04  0.17176287156E+04  0.25500000000E-02 0. -1.
    8880022    1    1    2    0    0 -0.75204946687E+03  0.82795732559E+03  0.15834480671E+04  0.19446827937E+04  0.15294330000E+03 0.  0.
    8880022    1    1    2    0    0  0.75204946687E+03 -0.82795732559E+03 -0.13297123977E+04  0.17443103070E+04  0.15294330000E+03 0.  0.
<mgrwt>
<rscale>  0 0.11289302E+04</rscale>
<asrwt>0</asrwt>
<pdfrwt beam="1">  1        2 0.26425057E+00 0.11289302E+04</pdfrwt>
<pdfrwt beam="2">  1       -2 0.30328683E+00 0.11289302E+04</pdfrwt>
<totfact> 0.28700121E-01</totfact>
</mgrwt>
</event>
<event>
 4    1  0.1033139E-008  0.8054650E+03  0.7818608E-02  0.9552140E-01
          2   -1    0    0  501    0  0.00000000000E+00  0.00000000000E+00  0.22069403206E+04  0.22069403206E+04  0.25500000000E-02 0. -1.
         -2   -1    0    0    0  501 -0.00000000000E+00 -0.00000000000E+00 -0.40948109780E+03  0.40948109780E+03  0.25500000000E-02 0.  1.
    8880022    1    1    2    0    0 -0.21593708797E+03 -0.76075844474E+03  0.20390862199E+03  0.83087460927E+03  0.15294330000E+03 0.  1.
    8880022    1    1    2    0    0  0.21593708797E+03  0.76075844474E+03  0.15935506008E+04  0.17855468091E+04  0.15294330000E+03 0.  0.
<mgrwt>
<rscale>  0 0.80546501E+03</rscale>
<asrwt>0</asrwt>
<pdfrwt beam="1">  1        2 0.33952928E+00 0.80546501E+03</pdfrwt>
<pdfrwt beam="2">  1       -2 0.62997091E-01 0.80546501E+03</pdfrwt>
<totfact> 0.12326795E+01</totfact>
</mgrwt>
</event>
<event>
 4    1  0.1033139E-008  0.2498405E+03  0.7818608E-02  0.1113406E+00
          2   -1    0    0  501    0  0.00000000000E+00  0.00000000000E+00  0.25115926134E+04  0.25115926134E+04  0.25500000000E-02 0. -1.
         -2   -1    0    0    0  501 -0.00000000000E+00 -0.00000000000E+00 -0.12268097719E+04  0.12268097719E+04  0.25500000000E-02 0.  1.
    8880022    1    1    2    0    0 -0.95003474892E+02 -0.17321366788E+03  0.24925624816E+04  0.25050524969E+04  0.15294330000E+03 0. -1.
    8880022    1    1    2    0    0  0.95003474892E+02  0.17321366788E+03 -0.12077796401E+04  0.12333498883E+04  0.15294330000E+03 0.  0.
<mgrwt>
<rscale>  0 0.24984053E+03</rscale>
<asrwt>0</asrwt>
<pdfrwt beam="1">  1        2 0.38639885E+00 0.24984053E+03</pdfrwt>
<pdfrwt beam="2">  1       -2 0.18873997E+00 0.24984053E+03</pdfrwt>
<totfact> 0.69688646E-01</totfact>
</mgrwt>
</event>
<event>
 4    1  0.1033139E-008  0.3762208E+03  0.7818608E-02  0.1052339E+00
          2   -1    0    0  501    0  0.00000000000E+00  0.00000000000E+00  0.86016691277E+03  0.86016691277E+03  0.25500000000E-02 0. -1.
         -2   -1    0    0    0  501 -0.00000000000E+00 -0.00000000000E+00 -0.33590307698E+03  0.33590307699E+03  0.25500000000E-02 0.  1.
    8880022    1    1    2    0    0  0.29142688283E+03 -0.18226584085E+03 -0.16500108257E+03  0.41081318752E+03  0.15294330000E+03 0.  0.
    8880022    1    1    2    0    0 -0.29142688283E+03  0.18226584085E+03  0.68926491836E+03  0.78525680224E+03  0.15294330000E+03 0.  0.
<mgrwt>
<rscale>  0 0.37622084E+03</rscale>
<asrwt>0</asrwt>
<pdfrwt beam="1">  1        2 0.13233337E+00 0.37622084E+03</pdfrwt>
<pdfrwt beam="2">  1       -2 0.51677397E-01 0.37622084E+03</pdfrwt>
<totfact> 0.11560954E+02</totfact>
</mgrwt>
</event>
<event>
 4    1  0.1033139E-008  0.3500617E+03  0.7818608E-02  0.1062590E+00
          2   -1    0    0  501    0  0.00000000000E+00  0.00000000000E+00  0.65401195971E+03  0.65401195971E+03  0.25500000000E-02 0. -1.
         -2   -1    0    0    0  501 -0.00000000000E+00 -0.00000000000E+00 -0.18140224831E+04  0.18140224831E+04  0.25500000000E-02 0.  1.
    8880022    1    1    2    0    0 -0.19437533401E+03  0.24772925421E+03  0.58854413851E+03  0.68478274646E+03  0.15294330000E+03 0.  0.
    8880022    1    1    2    0    0  0.19437533401E+03 -0.24772925421E+03 -0.17485546619E+04  0.17832516963E+04  0.15294330000E+03 0.  1.
<mgrwt>
<rscale>  0 0.35006172E+03</rscale>
<asrwt>0</asrwt>
<pdfrwt beam="1">  1        2 0.10061723E+00 0.35006172E+03</pdfrwt>
<pdfrwt beam="2">  1       -2 0.27908038E+00 0.35006172E+03</pdfrwt>
<totfact> 0.21673172E+00</totfact>
</mgrwt>
</event>
<event>
 4    1  0.1033139E-008  0.2357431E+03  0.7818608E-02  0.1122662E+00
          2   -1    0    0  501    0  0.00000000000E+00  0.00000000000E+00  0.11741507611E+04  0.11741507611E+04  0.25500000000E-02 0. -1.
         -2   -1    0    0    0  501 -0.00000000000E+00 -0.00000000000E+00 -0.71145353585E+03  0.71145353585E+03  0.25500000000E-02 0.  1.
    8880022    1    1    2    0    0 -0.49672713844E+02  0.17238260569E+03  0.11422494573E+04  0.11663226899E+04  0.15294330000E+03 0.  0.
    8880022    1    1    2    0    0  0.49672713844E+02 -0.17238260569E+03 -0.67955223202E+03  0.71928160709E+03  0.15294330000E+03 0.  1.
<mgrwt>
<rscale>  0 0.23574307E+03</rscale>
<asrwt>0</asrwt>
<pdfrwt beam="1">  1        2 0.18063858E+00 0.23574307E+03</pdfrwt>
<pdfrwt beam="2">  1       -2 0.10945439E+00 0.23574307E+03</pdfrwt>
<totfact> 0.14773769E+01</totfact>
</mgrwt>
</event>
<event>
 4    1  0.1033139E-008  0.6636028E+03  0.7818608E-02  0.9781584E-01
          2   -1    0    0  501    0  0.00000000000E+00  0.00000000000E+00  0.10344483785E+04  0.10344483785E+04  0.25500000000E-02 0. -1.
         -2   -1    0    0    0  501 -0.00000000000E+00 -0.00000000000E+00 -0.65620180452E+03  0.65620180452E+03  0.25500000000E-02 0.  1.
    8880022    1    1    2    0    0 -0.40222266845E+03 -0.50516723692E+03 -0.31187769910E+03  0.73323690884E+03  0.15294330000E+03 0.  0.
    8880022    1    1    2    0    0  0.40222266845E+03  0.50516723692E+03  0.69012427313E+03  0.95741327422E+03  0.15294330000E+03 0.  0.
<mgrwt>
<rscale>  0 0.66360279E+03</rscale>
<asrwt>0</asrwt>
<pdfrwt beam="1">  1        2 0.15914590E+00 0.66360279E+03</pdfrwt>
<pdfrwt beam="2">  1       -2 0.10095412E+00 0.66360279E+03</pdfrwt>
<totfact> 0.19856779E+01</totfact>
</mgrwt>
</event>
<event>
 4    1  0.1033139E-008  0.1910825E+03  0.7818608E-02  0.1157489E+00
          2   -1    0    0  501    0  0.00000000000E+00  0.00000000000E+00  0.21608994785E+04  0.21608994785E+04  0.25500000000E-02 0. -1.
         -2   -1    0    0    0  501 -0.00000000000E+00 -0.00000000000E+00 -0.10598601479E+03  0.10598601482E+03  0.25500000000E-02 0.  1.
    8880022    1    1    2    0    0 -0.40387024305E+02  0.10719037115E+03 -0.11715624666E+02  0.19144136511E+03  0.15294330000E+03 0.  1.
    8880022    1    1    2    0    0  0.40387024305E+02 -0.10719037115E+03  0.20666290884E+04  0.20754441282E+04  0.15294330000E+03 0.  0.
<mgrwt>
<rscale>  0 0.19108255E+03</rscale>
<asrwt>0</asrwt>
<pdfrwt beam="1">  1        2 0.33244603E+00 0.19108255E+03</pdfrwt>
<pdfrwt beam="2">  1       -2 0.16305543E-01 0.19108255E+03</pdfrwt>
<totfact> 0.18742809E+02</totfact>
</mgrwt>
</event>
<event>
 4    1  0.1033139E-008  0.1679167E+04  0.7818608E-02  0.8773336E-01
         -2   -1    0    0    0  501 -0.00000000000E+00  0.00000000000E+00  0.12206958076E+04  0.12206958076E+04  0.25500000000E-02 0.  1.
          2   -1    0    0  501    0  0.00000000000E+00 -0.00000000000E+00 -0.26283310662E+04  0.26283310662E+04  0.25500000000E-02 0. -1.
    8880022    1    1    2    0    0  0.80177244510E+03 -0.14674368708E+04 -0.13737567043E+04  0.21695181859E+04  0.15294330000E+03 0.  0.
    8880022    1    1    2    0    0 -0.80177244510E+03  0.14674368708E+04 -0.33878554312E+02  0.16795086879E+04  0.15294330000E+03 0.  0.
<mgrwt>
<rscale>  0 0.16791670E+04</rscale>
<asrwt>0</asrwt>
<pdfrwt beam="1">  1        2 0.40435862E+00 0.16791670E+04</pdfrwt>
<pdfrwt beam="2">  1       -2 0.18779936E+00 0.16791670E+04</pdfrwt>
<totfact> 0.43376602E-01</totfact>
</mgrwt>
</event>
<event>
 4    1  0.1033139E-008  0.1216061E+04  0.7818608E-02  0.9098913E-01
          2   -1    0    0  501    0  0.00000000000E+00  0.00000000000E+00  0.19092491878E+04  0.19092491878E+04  0.25500000000E-02 0. -1.
         -2   -1    0    0    0  501 -0.00000000000E+00 -0.00000000000E+00 -0.88328503262E+03  0.88328503262E+03  0.25500000000E-02 0.  1.
    8880022    1    1    2    0    0  0.62928499928E+03  0.10292779062E+04  0.10028823934E+04  0.15762542201E+04  0.15294330000E+03 0.  0.
    8880022    1    1    2    0    0 -0.62928499928E+03 -0.10292779062E+04  0.23081761778E+02  0.12162800003E+04  0.15294330000E+03 0.  0.
<mgrwt>
<rscale>  0 0.12160610E+04</rscale>
<asrwt>0</asrwt>
<pdfrwt beam="1">  1        2 0.29373064E+00 0.12160610E+04</pdfrwt>
<pdfrwt beam="2">  1       -2 0.13589001E+00 0.12160610E+04</pdfrwt>
<totfact> 0.28309102E+00</totfact>
</mgrwt>
</event>
<event>
 4    1  0.1033139E-008  0.5615404E+03  0.7818608E-02  0.9988575E-01
          2   -1    0    0  501    0  0.00000000000E+00  0.00000000000E+00  0.20950980767E+04  0.20950980768E+04  0.25500000000E-02 0. -1.
         -2   -1    0    0    0  501 -0.00000000000E+00 -0.00000000000E+00 -0.47042689840E+03  0.47042689841E+03  0.25500000000E-02 0.  1.
    8880022    1    1    2    0    0 -0.25690373326E+03 -0.47532767382E+03 -0.24550589270E+03  0.61286272691E+03  0.15294330000E+03 0.  0.
    8880022    1    1    2    0    0  0.25690373326E+03  0.47532767382E+03  0.18701770711E+04  0.19526622483E+04  0.15294330000E+03 0.  0.
<mgrwt>
<rscale>  0 0.56154036E+03</rscale>
<asrwt>0</asrwt>
<pdfrwt beam="1">  1        2 0.32232279E+00 0.56154036E+03</pdfrwt>
<pdfrwt beam="2">  1       -2 0.72373368E-01 0.56154036E+03</pdfrwt>
<totfact> 0.10962814E+01</totfact>
</mgrwt>
</event>
<event>
 4    1  0.1033139E-008  0.1502264E+04  0.7818608E-02  0.8882949E-01
         -2   -1    0    0    0  501 -0.00000000000E+00  0.00000000000E+00  0.27438845611E+04  0.27438845611E+04  0.25500000000E-02 0.  1.
          2   -1    0    0  501    0  0.00000000000E+00 -0.00000000000E+00 -0.96608853172E+03  0.96608853172E+03  0.25500000000E-02 0. -1.
    8880022    1    1    2    0    0  0.92418921865E+03 -0.11744268973E+04  0.17371158531E+03  0.15122736580E+04  0.15294330000E+03 0.  0.
    8880022    1    1    2    0    0 -0.92418921865E+03  0.11744268973E+04  0.16040844440E+04  0.21976994348E+04  0.15294330000E+03 0.  0.
<mgrwt>
<rscale>  0 0.15022636E+04</rscale>
<asrwt>0</asrwt>
<pdfrwt beam="1">  1        2 0.14862901E+00 0.15022636E+04</pdfrwt>
<pdfrwt beam="2">  1       -2 0.42213608E+00 0.15022636E+04</pdfrwt>
<totfact> 0.13356925E-01</totfact>
</mgrwt>
</event>
<event>
 4    1  0.1033139E-008  0.1453960E+04  0.7818608E-02  0.8915660E-01
          2   -1    0    0  501    0  0.00000000000E+00  0.00000000000E+00  0.29222491109E+04  0.29222491109E+04  0.25500000000E-02 0. -1.
         -2   -1    0    0    0  501 -0.00000000000E+00 -0.00000000000E+00 -0.13003536658E+04  0.13003536658E+04  0.25500000000E-02 0.  1.
    8880022    1    1    2    0    0  0.11721407626E+04 -0.84657801079E+03 -0.59537233305E+03  0.15711359469E+04  0.15294330000E+03 0.  0.
    8880022    1    1    2    0    0 -0.11721407626E+04  0.84657801079E+03  0.22172677782E+04  0.26514668297E+04  0.15294330000E+03 0.  0.
<mgrwt>
<rscale>  0 0.14539601E+04</rscale>
<asrwt>0</asrwt>
<pdfrwt beam="1">  1        2 0.44957678E+00 0.14539601E+04</pdfrwt>
<pdfrwt beam="2">  1       -2 0.20005441E+00 0.14539601E+04</pdfrwt>
<totfact> 0.24506777E-01</totfact>
</mgrwt>
</event>
<event>
 4    1  0.1033139E-008  0.6683923E+03  0.7818608E-02  0.9772866E-01
          2   -1    0    0  501    0  0.00000000000E+00  0.00000000000E+00  0.63269319128E+03  0.63269319128E+03  0.25500000000E-02 0. -1.
         -2   -1    0    0    0  501 -0.00000000000E+00 -0.00000000000E+00 -0.72503785020E+03  0.72503785020E+03  0.25500000000E-02 0.  1.
    8880022    1    1    2    0    0  0.56317941166E+02  0.64821676141E+03  0.63526555222E+02  0.67140446566E+03  0.15294330000E+03 0.  0.
    8880022    1    1    2    0    0 -0.56317941166E+02 -0.64821676141E+03 -0.15587121414E+03  0.68632657583E+03  0.15294330000E+03 0.  0.
<mgrwt>
<rscale>  0 0.66839235E+03</rscale>
<asrwt>0</asrwt>
<pdfrwt beam="1">  1        2 0.97337415E-01 0.66839235E+03</pdfrwt>
<pdfrwt beam="2">  1       -2 0.11154428E+00 0.66839235E+03</pdfrwt>
<totfact> 0.30123604E+01</totfact>
</mgrwt>
</event>
<event>
 4    1  0.1033139E-008  0.9541009E+03  0.7818608E-02  0.9360370E-01
          2   -1    0    0  501    0  0.00000000000E+00  0.00000000000E+00  0.13094490240E+04  0.13094490240E+04  0.25500000000E-02 0. -1.
         -2   -1    0    0    0  501 -0.00000000000E+00 -0.00000000000E+00 -0.11635055527E+04  0.11635055527E+04  0.25500000000E-02 0.  1.
    8880022    1    1    2    0    0 -0.27603171607E+03 -0.90040176732E+03  0.85743716828E+03  0.12827731683E+04  0.15294330000E+03 0.  0.
    8880022    1    1    2    0    0  0.27603171607E+03  0.90040176732E+03 -0.71149369697E+03  0.11901814083E+04  0.15294330000E+03 0.  0.
<mgrwt>
<rscale>  0 0.95410089E+03</rscale>
<asrwt>0</asrwt>
<pdfrwt beam="1">  1        2 0.20145370E+00 0.95410089E+03</pdfrwt>
<pdfrwt beam="2">  1       -2 0.17900085E+00 0.95410089E+03</pdfrwt>
<totfact> 0.29990013E+00</totfact>
</mgrwt>
</event>
<event>
 4    1  0.1033139E-008  0.7978526E+03  0.7818608E-02  0.9563131E-01
          2   -1    0    0  501    0  0.00000000000E+00  0.00000000000E+00  0.28022867161E+04  0.28022867161E+04  0.25500000000E-02 0. -1.
         -2   -1    0    0    0  501 -0.00000000000E+00 -0.00000000000E+00 -0.32503965316E+03  0.32503965317E+03  0.25500000000E-02 0.  1.
    8880022    1    1    2    0    0 -0.78141542349E+03 -0.50665691248E+02  0.20966886280E+04  0.22433617480E+04  0.15294330000E+03 0.  0.
    8880022    1    1    2    0    0  0.78141542349E+03  0.50665691248E+02  0.38055843494E+03  0.88396462133E+03  0.15294330000E+03 0.  0.
<mgrwt>
<rscale>  0 0.79785257E+03</rscale>
<asrwt>0</asrwt>
<pdfrwt beam="1">  1        2 0.43112105E+00 0.79785257E+03</pdfrwt>
<pdfrwt beam="2">  1       -2 0.50006099E-01 0.79785257E+03</pdfrwt>
<totfact> 0.91483127E+00</totfact>
</mgrwt>
</event>
<event>
 4    1  0.1033139E-008  0.9118560E+03  0.7818608E-02  0.9410881E-01
         -2   -1    0    0    0  501 -0.00000000000E+00  0.00000000000E+00  0.84861041398E+03  0.84861041398E+03  0.25500000000E-02 0.  1.
          2   -1    0    0  501    0  0.00000000000E+00 -0.00000000000E+00 -0.16350841263E+04  0.16350841263E+04  0.25500000000E-02 0. -1.
    8880022    1    1    2    0    0  0.85099446471E+03  0.28965178565E+03  0.39291767174E+03  0.99290769242E+03  0.15294330000E+03 0.  0.
    8880022    1    1    2    0    0 -0.85099446471E+03 -0.28965178565E+03 -0.11793913840E+04  0.14907868478E+04  0.15294330000E+03 0.  0.
<mgrwt>
<rscale>  0 0.91185601E+03</rscale>
<asrwt>0</asrwt>
<pdfrwt beam="1">  1        2 0.25155140E+00 0.91185601E+03</pdfrwt>
<pdfrwt beam="2">  1       -2 0.13055545E+00 0.91185601E+03</pdfrwt>
<totfact> 0.46030429E+00</totfact>
</mgrwt>
</event>
<event>
 4    1  0.1033139E-008  0.1207367E+04  0.7818608E-02  0.9106433E-01
         -2   -1    0    0    0  501 -0.00000000000E+00  0.00000000000E+00  0.46922142626E+03  0.46922142627E+03  0.25500000000E-02 0.  1.
          2   -1    0    0  501    0  0.00000000000E+00 -0.00000000000E+00 -0.45174091552E+04  0.45174091552E+04  0.25500000000E-02 0. -1.
    8880022    1    1    2    0    0 -0.11933497226E+04 -0.10128629018E+03 -0.63077684295E+03  0.13622090704E+04  0.15294330000E+03 0.  0.
    8880022    1    1    2    0    0  0.11933497226E+04  0.10128629018E+03 -0.34174108860E+04  0.36244215110E+04  0.15294330000E+03 0.  0.
<mgrwt>
<rscale>  0 0.12073666E+04</rscale>
<asrwt>0</asrwt>
<pdfrwt beam="1">  1        2 0.69498599E+00 0.12073666E+04</pdfrwt>
<pdfrwt beam="2">  1       -2 0.72187915E-01 0.12073666E+04</pdfrwt>
<totfact> 0.21246871E-01</totfact>
</mgrwt>
</event>
<event>
 4    1  0.1033139E-008  0.9815651E+03  0.7818608E-02  0.9328998E-01
          2   -1    0    0  501    0  0.00000000000E+00  0.00000000000E+00  0.36297940433E+04  0.36297940433E+04  0.25500000000E-02 0. -1.
         -2   -1    0    0    0  501 -0.00000000000E+00 -0.00000000000E+00 -0.11994530133E+04  0.11994530133E+04  0.25500000000E-02 0.  1.
    8880022    1    1    2    0    0  0.63708319269E+03 -0.73089217361E+03 -0.91559526693E+03  0.13423057437E+04  0.15294330000E+03 0.  0.
    8880022    1    1    2    0    0 -0.63708319269E+03  0.73089217361E+03  0.33459362969E+04  0.34869413129E+04  0.15294330000E+03 0.  0.
<mgrwt>
<rscale>  0 0.98156509E+03</rscale>
<asrwt>0</asrwt>
<pdfrwt beam="1">  1        2 0.55842984E+00 0.98156509E+03</pdfrwt>
<pdfrwt beam="2">  1       -2 0.18453124E+00 0.98156509E+03</pdfrwt>
<totfact> 0.11524033E-01</totfact>
</mgrwt>
</event>
<event>
 4    1  0.1033139E-008  0.1159506E+04  0.7818608E-02  0.9149058E-01
         -2   -1    0    0    0  501 -0.00000000000E+00  0.00000000000E+00  0.42224010774E+03  0.42224010775E+03  0.25500000000E-02 0.  1.
          2   -1    0    0  501    0  0.00000000000E+00 -0.00000000000E+00 -0.37442484636E+04  0.37442484636E+04  0.25500000000E-02 0. -1.
    8880022    1    1    2    0    0 -0.76801278359E+03  0.85511329742E+03 -0.24667722861E+04  0.27256961591E+04  0.15294330000E+03 0.  0.
    8880022    1    1    2    0    0  0.76801278359E+03 -0.85511329742E+03 -0.85523606973E+03  0.14407924122E+04  0.15294330000E+03 0.  0.
<mgrwt>
<rscale>  0 0.11595059E+04</rscale>
<asrwt>0</asrwt>
<pdfrwt beam="1">  1        2 0.57603820E+00 0.11595059E+04</pdfrwt>
<pdfrwt beam="2">  1       -2 0.64960019E-01 0.11595059E+04</pdfrwt>
<totfact> 0.12040115E+00</totfact>
</mgrwt>
</event>
<event>
 4    1  0.1033139E-008  0.1747662E+03  0.7818608E-02  0.1172967E+00
         -2   -1    0    0    0  501 -0.00000000000E+00  0.00000000000E+00  0.29018816745E+03  0.29018816746E+03  0.25500000000E-02 0.  1.
          2   -1    0    0  501    0  0.00000000000E+00 -0.00000000000E+00 -0.12686765534E+03  0.12686765537E+03  0.25500000000E-02 0. -1.
    8880022    1    1    2    0    0 -0.33078367606E+02  0.77829228454E+02  0.16773214522E+03  0.24223396285E+03  0.15294330000E+03 0.  0.
    8880022    1    1    2    0    0  0.33078367606E+02 -0.77829228454E+02 -0.44116331102E+01  0.17482185998E+03  0.15294330000E+03 0.  0.
<mgrwt>
<rscale>  0 0.17476619E+03</rscale>
<asrwt>0</asrwt>
<pdfrwt beam="1">  1        2 0.19518101E-01 0.17476619E+03</pdfrwt>
<pdfrwt beam="2">  1       -2 0.44644333E-01 0.17476619E+03</pdfrwt>
<totfact> 0.13554618E+03</totfact>
</mgrwt>
</event>
<event>
 4    1  0.1033139E-008  0.1209228E+04  0.7818608E-02  0.9104817E-01
          2   -1    0    0  501    0  0.00000000000E+00  0.00000000000E+00  0.11739077126E+04  0.11739077126E+04  0.25500000000E-02 0. -1.
         -2   -1    0    0    0  501 -0.00000000000E+00 -0.00000000000E+00 -0.18341100879E+04  0.18341100879E+04  0.25500000000E-02 0.  1.
    8880022    1    1    2    0    0  0.37940256091E+03 -0.11379342001E+04 -0.11820444129E+04  0.16909941438E+04  0.15294330000E+03 0.  0.
    8880022    1    1    2    0    0 -0.37940256091E+03  0.11379342001E+04  0.52184203762E+03  0.13170236567E+04  0.15294330000E+03 0.  0.
<mgrwt>
<rscale>  0 0.12092279E+04</rscale>
<asrwt>0</asrwt>
<pdfrwt beam="1">  1        2 0.18060119E+00 0.12092279E+04</pdfrwt>
<pdfrwt beam="2">  1       -2 0.28217078E+00 0.12092279E+04</pdfrwt>
<totfact> 0.78138155E-01</totfact>
</mgrwt>
</event>
<event>
 4    1  0.1033139E-008  0.4051469E+03  0.7818608E-02  0.1042012E+00
          2   -1    0    0  501    0  0.00000000000E+00  0.00000000000E+00  0.27057494194E+04  0.27057494194E+04  0.25500000000E-02 0. -1.
         -2   -1    0    0    0  501 -0.00000000000E+00 -0.00000000000E+00 -0.89614460862E+02  0.89614460898E+02  0.25500000000E-02 0.  1.
    8880022    1    1    2    0    0 -0.33124607578E+03  0.17614875741E+03  0.51366545146E+03  0.65421418244E+03  0.15294330000E+03 0.  0.
    8880022    1    1    2    0    0  0.33124607578E+03 -0.17614875741E+03  0.21024695070E+04  0.21411496978E+04  0.15294330000E+03 0.  0.
<mgrwt>
<rscale>  0 0.40514689E+03</rscale>
<asrwt>0</asrwt>
<pdfrwt beam="1">  1        2 0.41626915E+00 0.40514689E+03</pdfrwt>
<pdfrwt beam="2">  1       -2 0.13786840E-01 0.40514689E+03</pdfrwt>
<totfact> 0.11748826E+02</totfact>
</mgrwt>
</event>
<event>
 4    1  0.1033139E-008  0.1472061E+04  0.7818608E-02  0.8903247E-01
          2   -1    0    0  501    0  0.00000000000E+00  0.00000000000E+00  0.19309993648E+04  0.19309993648E+04  0.25500000000E-02 0. -1.
         -2   -1    0    0    0  501 -0.00000000000E+00 -0.00000000000E+00 -0.11951754202E+04  0.11951754202E+04  0.25500000000E-02 0.  1.
    8880022    1    1    2    0    0 -0.13968721474E+04  0.43854457081E+03 -0.18330379011E+02  0.14721755305E+04  0.15294330000E+03 0.  0.
    8880022    1    1    2    0    0  0.13968721474E+04 -0.43854457081E+03  0.75415432368E+03  0.16539992545E+04  0.15294330000E+03 0.  0.
<mgrwt>
<rscale>  0 0.14720614E+04</rscale>
<asrwt>0</asrwt>
<pdfrwt beam="1">  1        2 0.29707683E+00 0.14720614E+04</pdfrwt>
<pdfrwt beam="2">  1       -2 0.18387314E+00 0.14720614E+04</pdfrwt>
<totfact> 0.11742503E+00</totfact>
</mgrwt>
</event>
<event>
 4    1  0.1033139E-008  0.1505672E+04  0.7818608E-02  0.8880690E-01
         -2   -1    0    0    0  501 -0.00000000000E+00  0.00000000000E+00  0.16988138205E+04  0.16988138205E+04  0.25500000000E-02 0.  1.
          2   -1    0    0  501    0  0.00000000000E+00 -0.00000000000E+00 -0.17077429339E+04  0.17077429339E+04  0.25500000000E-02 0. -1.
    8880022    1    1    2    0    0  0.12337464055E+04  0.84942722896E+03  0.79183513019E+03  0.17011911523E+04  0.15294330000E+03 0.  0.
    8880022    1    1    2    0    0 -0.12337464055E+04 -0.84942722896E+03 -0.80076424357E+03  0.17053656022E+04  0.15294330000E+03 0.  0.
<mgrwt>
<rscale>  0 0.15056721E+04</rscale>
<asrwt>0</asrwt>
<pdfrwt beam="1">  1        2 0.26272968E+00 0.15056721E+04</pdfrwt>
<pdfrwt beam="2">  1       -2 0.26135597E+00 0.15056721E+04</pdfrwt>
<totfact> 0.49865708E-01</totfact>
</mgrwt>
</event>
<event>
 4    1  0.1033139E-008  0.1091961E+04  0.7818608E-02  0.9213063E-01
         -2   -1    0    0    0  501 -0.00000000000E+00  0.00000000000E+00  0.49504198251E+03  0.49504198252E+03  0.25500000000E-02 0.  1.
          2   -1    0    0  501    0  0.00000000000E+00 -0.00000000000E+00 -0.40392896098E+04  0.40392896098E+04  0.25500000000E-02 0. -1.
    8880022    1    1    2    0    0  0.94284264207E+03  0.52918367659E+03 -0.32126154755E+04  0.33931220812E+04  0.15294330000E+03 0.  0.
    8880022    1    1    2    0    0 -0.94284264207E+03 -0.52918367659E+03 -0.33163215182E+03  0.11412095112E+04  0.15294330000E+03 0.  0.
<mgrwt>
<rscale>  0 0.10919612E+04</rscale>
<asrwt>0</asrwt>
<pdfrwt beam="1">  1        2 0.62142915E+00 0.10919612E+04</pdfrwt>
<pdfrwt beam="2">  1       -2 0.76160308E-01 0.10919612E+04</pdfrwt>
<totfact> 0.50854286E-01</totfact>
</mgrwt>
</event>
<event>
 4    1  0.1033139E-008  0.5016033E+03  0.7818608E-02  0.1013361E+00
          2   -1    0    0  501    0  0.00000000000E+00  0.00000000000E+00  0.18856460620E+04  0.18856460620E+04  0.25500000000E-02 0. -1.
         -2   -1    0    0    0  501 -0.00000000000E+00 -0.00000000000E+00 -0.46811109239E+03  0.46811109240E+03  0.25500000000E-02 0.  1.
    8880022    1    1    2    0    0 -0.14945486005E+03 -0.45373722666E+03 -0.28634313453E+03  0.57757966529E+03  0.15294330000E+03 0.  1.
    8880022    1    1    2    0    0  0.14945486005E+03  0.45373722666E+03  0.17038781041E+04  0.17761774891E+04  0.15294330000E+03 0.  0.
<mgrwt>
<rscale>  0 0.50160331E+03</rscale>
<asrwt>0</asrwt>
<pdfrwt beam="1">  1        2 0.29009939E+00 0.50160331E+03</pdfrwt>
<pdfrwt beam="2">  1       -2 0.72017092E-01 0.50160331E+03</pdfrwt>
<totfact> 0.14558984E+01</totfact>
</mgrwt>
</event>
<event>
 4    1  0.1033139E-008  0.3049312E+03  0.7818608E-02  0.1082801E+00
         -2   -1    0    0    0  501 -0.00000000000E+00  0.00000000000E+00  0.32149974684E+03  0.32149974685E+03  0.25500000000E-02 0.  1.
          2   -1    0    0  501    0  0.00000000000E+00 -0.00000000000E+00 -0.27044359219E+04  0.27044359219E+04  0.25500000000E-02 0. -1.
    8880022    1    1    2    0    0 -0.85473738323E+02  0.24957085051E+03 -0.26212494969E+04  0.26389262868E+04  0.15294330000E+03 0.  0.
    8880022    1    1    2    0    0  0.85473738323E+02 -0.24957085051E+03  0.23831332179E+03  0.38700938196E+03  0.15294330000E+03 0.  0.
<mgrwt>
<rscale>  0 0.30493118E+03</rscale>
<asrwt>0</asrwt>
<pdfrwt beam="1">  1        2 0.41606705E+00 0.30493118E+03</pdfrwt>
<pdfrwt beam="2">  1       -2 0.49461501E-01 0.30493118E+03</pdfrwt>
<totfact> 0.12112411E+01</totfact>
</mgrwt>
</event>
<event>
 4    1  0.1033139E-008  0.1513208E+04  0.7818608E-02  0.8875717E-01
          2   -1    0    0  501    0  0.00000000000E+00  0.00000000000E+00  0.29610805145E+04  0.29610805145E+04  0.25500000000E-02 0. -1.
         -2   -1    0    0    0  501 -0.00000000000E+00 -0.00000000000E+00 -0.14241064556E+04  0.14241064556E+04  0.25500000000E-02 0.  1.
    8880022    1    1    2    0    0 -0.14852591993E+04 -0.24579024061E+03  0.22507091440E+04  0.27121008527E+04  0.15294330000E+03 0.  0.
    8880022    1    1    2    0    0  0.14852591993E+04  0.24579024061E+03 -0.71373508509E+03  0.16730861174E+04  0.15294330000E+03 0.  0.
<mgrwt>
<rscale>  0 0.15132083E+04</rscale>
<asrwt>0</asrwt>
<pdfrwt beam="1">  1        2 0.45555084E+00 0.15132083E+04</pdfrwt>
<pdfrwt beam="2">  1       -2 0.21909330E+00 0.15132083E+04</pdfrwt>
<totfact> 0.17328450E-01</totfact>
</mgrwt>
</event>
<event>
 4    1  0.1033139E-008  0.5259954E+03  0.7818608E-02  0.1007208E+00
         -2   -1    0    0    0  501 -0.00000000000E+00  0.00000000000E+00  0.53821137780E+03  0.53821137781E+03  0.25500000000E-02 0.  1.
          2   -1    0    0  501    0  0.00000000000E+00 -0.00000000000E+00 -0.69917244525E+03  0.69917244526E+03  0.25500000000E-02 0. -1.
    8880022    1    1    2    0    0  0.48646006942E+03  0.12898117384E+03  0.23786876642E+03  0.57728047378E+03  0.15294330000E+03 0.  0.
    8880022    1    1    2    0    0 -0.48646006942E+03 -0.12898117384E+03 -0.39882983387E+03  0.66010334929E+03  0.15294330000E+03 0.  0.
<mgrwt>
<rscale>  0 0.52599543E+03</rscale>
<asrwt>0</asrwt>
<pdfrwt beam="1">  1        2 0.10756499E+00 0.52599543E+03</pdfrwt>
<pdfrwt beam="2">  1       -2 0.82801750E-01 0.52599543E+03</pdfrwt>
<totfact> 0.54201825E+01</totfact>
</mgrwt>
</event>
<event>
 4    1  0.1033139E-008  0.1081623E+04  0.7818608E-02  0.9223291E-01
          2   -1    0    0  501    0  0.00000000000E+00  0.00000000000E+00  0.21834399778E+04  0.21834399778E+04  0.25500000000E-02 0. -1.
         -2   -1    0    0    0  501 -0.00000000000E+00 -0.00000000000E+00 -0.66479694583E+03  0.66479694584E+03  0.25500000000E-02 0.  1.
    8880022    1    1    2    0    0  0.28326874147E+03 -0.10326061230E+04  0.13866211820E+04  0.17585865178E+04  0.15294330000E+03 0.  0.
    8880022    1    1    2    0    0 -0.28326874147E+03  0.10326061230E+04  0.13202184997E+03  0.10896504059E+04  0.15294330000E+03 0.  0.
<mgrwt>
<rscale>  0 0.10816230E+04</rscale>
<asrwt>0</asrwt>
<pdfrwt beam="1">  1        2 0.33591384E+00 0.10816230E+04</pdfrwt>
<pdfrwt beam="2">  1       -2 0.10227645E+00 0.10816230E+04</pdfrwt>
<totfact> 0.41010105E+00</totfact>
</mgrwt>
</event>
<event>
 4    1  0.1033139E-008  0.8609096E+03  0.7818608E-02  0.9475810E-01
          2   -1    0    0  501    0  0.00000000000E+00  0.00000000000E+00  0.34535611535E+04  0.34535611535E+04  0.25500000000E-02 0. -1.
         -2   -1    0    0    0  501 -0.00000000000E+00 -0.00000000000E+00 -0.77881290794E+03  0.77881290794E+03  0.25500000000E-02 0.  1.
    8880022    1    1    2    0    0 -0.58940881006E+03  0.60858107564E+03 -0.46379926199E+03  0.97789318407E+03  0.15294330000E+03 0.  0.
    8880022    1    1    2    0    0  0.58940881006E+03 -0.60858107564E+03  0.31385475075E+04  0.32544808774E+04  0.15294330000E+03 0.  0.
<mgrwt>
<rscale>  0 0.86090959E+03</rscale>
<asrwt>0</asrwt>
<pdfrwt beam="1">  1        2 0.53131710E+00 0.86090959E+03</pdfrwt>
<pdfrwt beam="2">  1       -2 0.11981737E+00 0.86090959E+03</pdfrwt>
<totfact> 0.49457765E-01</totfact>
</mgrwt>
</event>
<event>
 4    1  0.1033139E-008  0.9004465E+03  0.7818608E-02  0.9425023E-01
         -2   -1    0    0    0  501 -0.00000000000E+00  0.00000000000E+00  0.15348567319E+04  0.15348567320E+04  0.25500000000E-02 0.  1.
          2   -1    0    0  501    0  0.00000000000E+00 -0.00000000000E+00 -0.12758987498E+04  0.12758987498E+04  0.25500000000E-02 0. -1.
    8880022    1    1    2    0    0  0.21303028417E+03 -0.86141184611E+03 -0.94631910219E+03  0.13062632839E+04  0.15294330000E+03 0.  0.
    8880022    1    1    2    0    0 -0.21303028417E+03  0.86141184611E+03  0.12052770843E+04  0.15044921979E+04  0.15294330000E+03 0.  0.
<mgrwt>
<rscale>  0 0.90044651E+03</rscale>
<asrwt>0</asrwt>
<pdfrwt beam="1">  1        2 0.19629211E+00 0.90044651E+03</pdfrwt>
<pdfrwt beam="2">  1       -2 0.23613181E+00 0.90044651E+03</pdfrwt>
<totfact> 0.13498853E+00</totfact>
</mgrwt>
</event>
<event>
 4    1  0.1033139E-008  0.1398957E+04  0.7818608E-02  0.8954574E-01
          2   -1    0    0  501    0  0.00000000000E+00  0.00000000000E+00  0.16701908018E+04  0.16701908018E+04  0.25500000000E-02 0. -1.
         -2   -1    0    0    0  501 -0.00000000000E+00 -0.00000000000E+00 -0.14194959778E+04  0.14194959778E+04  0.25500000000E-02 0.  1.
    8880022    1    1    2    0    0 -0.75292369677E+03  0.11690997538E+04 -0.52001384018E+03  0.14924792710E+04  0.15294330000E+03 0.  0.
    8880022    1    1    2    0    0  0.75292369677E+03 -0.11690997538E+04  0.77070866421E+03  0.15972075086E+04  0.15294330000E+03 0.  0.
<mgrwt>
<rscale>  0 0.13989567E+04</rscale>
<asrwt>0</asrwt>
<pdfrwt beam="1">  1        2 0.25695243E+00 0.13989567E+04</pdfrwt>
<pdfrwt beam="2">  1       -2 0.21838400E+00 0.13989567E+04</pdfrwt>
<totfact> 0.97884918E-01</totfact>
</mgrwt>
</event>
<event>
 4    1  0.1033139E-008  0.5204910E+03  0.7818608E-02  0.1008565E+00
          2   -1    0    0  501    0  0.00000000000E+00  0.00000000000E+00  0.92752733702E+03  0.92752733702E+03  0.25500000000E-02 0. -1.
         -2   -1    0    0    0  501 -0.00000000000E+00 -0.00000000000E+00 -0.68346210733E+03  0.68346210733E+03  0.25500000000E-02 0.  1.
    8880022    1    1    2    0    0  0.16724903898E+03  0.46855842299E+03 -0.48751373742E+03  0.71314832537E+03  0.15294330000E+03 0.  0.
    8880022    1    1    2    0    0 -0.16724903898E+03 -0.46855842299E+03  0.73157896712E+03  0.89784111898E+03  0.15294330000E+03 0.  0.
<mgrwt>
<rscale>  0 0.52049101E+03</rscale>
<asrwt>0</asrwt>
<pdfrwt beam="1">  1        2 0.14269651E+00 0.52049101E+03</pdfrwt>
<pdfrwt beam="2">  1       -2 0.10514802E+00 0.52049101E+03</pdfrwt>
<totfact> 0.21496551E+01</totfact>
</mgrwt>
</event>
<event>
 4    1  0.1033139E-008  0.8824993E+03  0.7818608E-02  0.9447726E-01
         -2   -1    0    0    0  501 -0.00000000000E+00  0.00000000000E+00  0.67959847269E+03  0.67959847270E+03  0.25500000000E-02 0.  1.
          2   -1    0    0  501    0  0.00000000000E+00 -0.00000000000E+00 -0.18321039829E+04  0.18321039829E+04  0.25500000000E-02 0. -1.
    8880022    1    1    2    0    0 -0.84722947683E+03 -0.19394731184E+03  0.19228467036E+03  0.90320451374E+03  0.15294330000E+03 0.  0.
    8880022    1    1    2    0    0  0.84722947683E+03  0.19394731184E+03 -0.13447901806E+04  0.16084979419E+04  0.15294330000E+03 0.  0.
<mgrwt>
<rscale>  0 0.88249929E+03</rscale>
<asrwt>0</asrwt>
<pdfrwt beam="1">  1        2 0.28186215E+00 0.88249929E+03</pdfrwt>
<pdfrwt beam="2">  1       -2 0.10455361E+00 0.88249929E+03</pdfrwt>
<totfact> 0.62278528E+00</totfact>
</mgrwt>
</event>
<event>
 4    1  0.1033139E-008  0.7379571E+03  0.7818608E-02  0.9654435E-01
         -2   -1    0    0    0  501 -0.00000000000E+00  0.00000000000E+00  0.14756823497E+04  0.14756823497E+04  0.25500000000E-02 0.  1.
          2   -1    0    0  501    0  0.00000000000E+00 -0.00000000000E+00 -0.25941339312E+04  0.25941339312E+04  0.25500000000E-02 0. -1.
    8880022    1    1    2    0    0  0.47593863192E+03  0.54283652113E+03  0.13253912916E+04  0.15169847722E+04  0.15294330000E+03 0.  0.
    8880022    1    1    2    0    0 -0.47593863192E+03 -0.54283652113E+03 -0.24438428732E+04  0.25528315087E+04  0.15294330000E+03 0.  0.
<mgrwt>
<rscale>  0 0.73795713E+03</rscale>
<asrwt>0</asrwt>
<pdfrwt beam="1">  1        2 0.39909753E+00 0.73795713E+03</pdfrwt>
<pdfrwt beam="2">  1       -2 0.22702805E+00 0.73795713E+03</pdfrwt>
<totfact> 0.29283720E-01</totfact>
</mgrwt>
</event>
<event>
 4    1  0.1033139E-008  0.4184526E+03  0.7818608E-02  0.1037571E+00
         -2   -1    0    0    0  501 -0.00000000000E+00  0.00000000000E+00  0.43588872565E+03  0.43588872566E+03  0.25500000000E-02 0.  1.
          2   -1    0    0  501    0  0.00000000000E+00 -0.00000000000E+00 -0.10738267668E+04  0.10738267668E+04  0.25500000000E-02 0. -1.
    8880022    1    1    2    0    0 -0.61977718323E+02 -0.38453824461E+03 -0.91616807856E+03  0.10072072777E+04  0.15294330000E+03 0.  0.
    8880022    1    1    2    0    0  0.61977718323E+02  0.38453824461E+03  0.27823003741E+03  0.50250821473E+03  0.15294330000E+03 0.  0.
<mgrwt>
<rscale>  0 0.41845257E+03</rscale>
<asrwt>0</asrwt>
<pdfrwt beam="1">  1        2 0.16520412E+00 0.41845257E+03</pdfrwt>
<pdfrwt beam="2">  1       -2 0.67059804E-01 0.41845257E+03</pdfrwt>
<totfact> 0.48818615E+01</totfact>
</mgrwt>
</event>
<event>
 4    1  0.1033139E-008  0.5101754E+03  0.7818608E-02  0.1011157E+00
         -2   -1    0    0    0  501 -0.00000000000E+00  0.00000000000E+00  0.74765234436E+03  0.74765234437E+03  0.25500000000E-02 0.  1.
          2   -1    0    0  501    0  0.00000000000E+00 -0.00000000000E+00 -0.10058682917E+04  0.10058682917E+04  0.25500000000E-02 0. -1.
    8880022    1    1    2    0    0  0.15387633718E+03  0.46174603042E+03 -0.83809360622E+03  0.98116250924E+03  0.15294330000E+03 0.  0.
    8880022    1    1    2    0    0 -0.15387633718E+03 -0.46174603042E+03  0.57987765890E+03  0.77235812681E+03  0.15294330000E+03 0.  1.
<mgrwt>
<rscale>  0 0.51017544E+03</rscale>
<asrwt>0</asrwt>
<pdfrwt beam="1">  1        2 0.15474897E+00 0.51017544E+03</pdfrwt>
<pdfrwt beam="2">  1       -2 0.11502344E+00 0.51017544E+03</pdfrwt>
<totfact> 0.15454035E+01</totfact>
</mgrwt>
</event>
<event>
 4    1  0.1033139E-008  0.1410960E+04  0.7818608E-02  0.8945923E-01
         -2   -1    0    0    0  501 -0.00000000000E+00  0.00000000000E+00  0.68214113558E+03  0.68214113559E+03  0.25500000000E-02 0.  1.
          2   -1    0    0  501    0  0.00000000000E+00 -0.00000000000E+00 -0.32094680412E+04  0.32094680412E+04  0.25500000000E-02 0. -1.
    8880022    1    1    2    0    0  0.12072674539E+04  0.71408825450E+03 -0.67775767713E+03  0.15652999273E+04  0.15294330000E+03 0.  0.
    8880022    1    1    2    0    0 -0.12072674539E+04 -0.71408825450E+03 -0.18495692285E+04  0.23263092495E+04  0.15294330000E+03 0.  0.
<mgrwt>
<rscale>  0 0.14109601E+04</rscale>
<asrwt>0</asrwt>
<pdfrwt beam="1">  1        2 0.49376431E+00 0.14109601E+04</pdfrwt>
<pdfrwt beam="2">  1       -2 0.10494479E+00 0.14109601E+04</pdfrwt>
<totfact> 0.91017041E-01</totfact>
</mgrwt>
</event>
<event>
 4    1  0.1033139E-008  0.5852598E+03  0.7818608E-02  0.9936468E-01
          2   -1    0    0  501    0  0.00000000000E+00  0.00000000000E+00  0.91978915206E+03  0.91978915206E+03  0.25500000000E-02 0. -1.
         -2   -1    0    0    0  501 -0.00000000000E+00 -0.00000000000E+00 -0.42139142967E+03  0.42139142968E+03  0.25500000000E-02 0.  1.
    8880022    1    1    2    0    0  0.33851603754E+03  0.45226567655E+03  0.47785179015E+03  0.75556027967E+03  0.15294330000E+03 0.  0.
    8880022    1    1    2    0    0 -0.33851603754E+03 -0.45226567655E+03  0.20545932236E+02  0.58562030207E+03  0.15294330000E+03 0.  0.
<mgrwt>
<rscale>  0 0.58525977E+03</rscale>
<asrwt>0</asrwt>
<pdfrwt beam="1">  1        2 0.14150602E+00 0.58525977E+03</pdfrwt>
<pdfrwt beam="2">  1       -2 0.64829451E-01 0.58525977E+03</pdfrwt>
<totfact> 0.64259455E+01</totfact>
</mgrwt>
</event>
<event>
 4    1  0.1033139E-008  0.8383617E+03  0.7818608E-02  0.9506092E-01
          2   -1    0    0  501    0  0.00000000000E+00  0.00000000000E+00  0.35339506220E+04  0.35339506220E+04  0.25500000000E-02 0. -1.
         -2   -1    0    0    0  501 -0.00000000000E+00 -0.00000000000E+00 -0.35834728939E+03  0.35834728940E+03  0.25500000000E-02 0.  1.
    8880022    1    1    2    0    0  0.12596665308E+03 -0.81461097330E+03  0.28860351709E+04  0.30053368024E+04  0.15294330000E+03 0.  0.
    8880022    1    1    2    0    0 -0.12596665308E+03  0.81461097330E+03  0.28956816173E+03  0.88696110896E+03  0.15294330000E+03 0.  0.
<mgrwt>
<rscale>  0 0.83836167E+03</rscale>
<asrwt>0</asrwt>
<pdfrwt beam="1">  1        2 0.54368472E+00 0.83836167E+03</pdfrwt>
<pdfrwt beam="2">  1       -2 0.55130351E-01 0.83836167E+03</pdfrwt>
<totfact> 0.25431077E+00</totfact>
</mgrwt>
</event>
<event>
 4    1  0.1033139E-008  0.3906778E+03  0.7818608E-02  0.1047056E+00
         -2   -1    0    0    0  501 -0.00000000000E+00  0.00000000000E+00  0.79488390862E+03  0.79488390863E+03  0.25500000000E-02 0.  1.
          2   -1    0    0  501    0  0.00000000000E+00 -0.00000000000E+00 -0.16649618812E+04  0.16649618812E+04  0.25500000000E-02 0. -1.
    8880022    1    1    2    0    0  0.12839564587E+03  0.33578576605E+03  0.72179054335E+03  0.82073793872E+03  0.15294330000E+03 0.  1.
    8880022    1    1    2    0    0 -0.12839564587E+03 -0.33578576605E+03 -0.15918685160E+04  0.16391078511E+04  0.15294330000E+03 0.  0.
<mgrwt>
<rscale>  0 0.39067784E+03</rscale>
<asrwt>0</asrwt>
<pdfrwt beam="1">  1        2 0.25614798E+00 0.39067784E+03</pdfrwt>
<pdfrwt beam="2">  1       -2 0.12228983E+00 0.39067784E+03</pdfrwt>
<totfact> 0.57692920E+00</totfact>
</mgrwt>
</event>
<event>
 4    1  0.1033139E-008  0.4787230E+03  0.7818608E-02  0.1019487E+00
         -2   -1    0    0    0  501 -0.00000000000E+00  0.00000000000E+00  0.55288741189E+03  0.55288741189E+03  0.25500000000E-02 0.  1.
          2   -1    0    0  501    0  0.00000000000E+00 -0.00000000000E+00 -0.71028181485E+03  0.71028181486E+03  0.25500000000E-02 0. -1.
    8880022    1    1    2    0    0  0.44783462347E+03  0.72306599803E+02  0.32886765566E+03  0.58080089730E+03  0.15294330000E+03 0.  1.
    8880022    1    1    2    0    0 -0.44783462347E+03 -0.72306599803E+02 -0.48626205862E+03  0.68236832944E+03  0.15294330000E+03 0.  0.
<mgrwt>
<rscale>  0 0.47872304E+03</rscale>
<asrwt>0</asrwt>
<pdfrwt beam="1">  1        2 0.10927413E+00 0.47872304E+03</pdfrwt>
<pdfrwt beam="2">  1       -2 0.85059601E-01 0.47872304E+03</pdfrwt>
<totfact> 0.50276137E+01</totfact>
</mgrwt>
</event>
<event>
 4    1  0.1033139E-008  0.7811631E+03  0.7818608E-02  0.9587690E-01
         -2   -1    0    0    0  501 -0.00000000000E+00  0.00000000000E+00  0.33626202468E+03  0.33626202469E+03  0.25500000000E-02 0.  1.
          2   -1    0    0  501    0  0.00000000000E+00 -0.00000000000E+00 -0.34597702101E+04  0.34597702101E+04  0.25500000000E-02 0. -1.
    8880022    1    1    2    0    0  0.74064103938E+03 -0.19563987573E+03 -0.28705383688E+04  0.29749296277E+04  0.15294330000E+03 0.  0.
    8880022    1    1    2    0    0 -0.74064103938E+03  0.19563987573E+03 -0.25296981662E+03  0.82110260706E+03  0.15294330000E+03 0.  1.
<mgrwt>
<rscale>  0 0.78116308E+03</rscale>
<asrwt>0</asrwt>
<pdfrwt beam="1">  1        2 0.53227232E+00 0.78116308E+03</pdfrwt>
<pdfrwt beam="2">  1       -2 0.51732622E-01 0.78116308E+03</pdfrwt>
<totfact> 0.32967382E+00</totfact>
</mgrwt>
</event>
<event>
 4    1  0.1033139E-008  0.1779511E+03  0.7818608E-02  0.1169801E+00
          2   -1    0    0  501    0  0.00000000000E+00  0.00000000000E+00  0.69867999118E+03  0.69867999118E+03  0.25500000000E-02 0. -1.
         -2   -1    0    0    0  501 -0.00000000000E+00 -0.00000000000E+00 -0.34682902420E+03  0.34682902421E+03  0.25500000000E-02 0.  1.
    8880022    1    1    2    0    0  0.90630178102E+02  0.78170165854E+01  0.66332797171E+03  0.68678277934E+03  0.15294330000E+03 0.  0.
    8880022    1    1    2    0    0 -0.90630178102E+02 -0.78170165854E+01 -0.31147700474E+03  0.35872623604E+03  0.15294330000E+03 0.  1.
<mgrwt>
<rscale>  0 0.17795108E+03</rscale>
<asrwt>0</asrwt>
<pdfrwt beam="1">  1        2 0.10748923E+00 0.17795108E+03</pdfrwt>
<pdfrwt beam="2">  1       -2 0.53358312E-01 0.17795108E+03</pdfrwt>
<totfact> 0.14538632E+02</totfact>
</mgrwt>
</event>
<event>
 4    1  0.1033139E-008  0.1258465E+04  0.7818608E-02  0.9063167E-01
         -2   -1    0    0    0  501 -0.00000000000E+00  0.00000000000E+00  0.15671255330E+04  0.15671255330E+04  0.25500000000E-02 0.  1.
          2   -1    0    0  501    0  0.00000000000E+00 -0.00000000000E+00 -0.14410401216E+04  0.14410401216E+04  0.25500000000E-02 0. -1.
    8880022    1    1    2    0    0  0.78618232730E+02 -0.12466605675E+04  0.88507851648E+03  0.15385379522E+04  0.15294330000E+03 0.  0.
    8880022    1    1    2    0    0 -0.78618232730E+02  0.12466605675E+04 -0.75899310505E+03  0.14696277024E+04  0.15294330000E+03 0.  0.
<mgrwt>
<rscale>  0 0.12584654E+04</rscale>
<asrwt>0</asrwt>
<pdfrwt beam="1">  1        2 0.22169848E+00 0.12584654E+04</pdfrwt>
<pdfrwt beam="2">  1       -2 0.24109623E+00 0.12584654E+04</pdfrwt>
<totfact> 0.96453350E-01</totfact>
</mgrwt>
</event>
<event>
 4    1  0.1033139E-008  0.1527992E+04  0.7818608E-02  0.8866049E-01
         -2   -1    0    0    0  501 -0.00000000000E+00  0.00000000000E+00  0.18680878401E+04  0.18680878401E+04  0.25500000000E-02 0.  1.
          2   -1    0    0  501    0  0.00000000000E+00 -0.00000000000E+00 -0.13400700295E+04  0.13400700295E+04  0.25500000000E-02 0. -1.
    8880022    1    1    2    0    0  0.15108419770E+04  0.16947889389E+03 -0.15229011705E+03  0.15355619517E+04  0.15294330000E+03 0.  0.
    8880022    1    1    2    0    0 -0.15108419770E+04 -0.16947889389E+03  0.68030792766E+03  0.16725959178E+04  0.15294330000E+03 0.  0.
<mgrwt>
<rscale>  0 0.15279916E+04</rscale>
<asrwt>0</asrwt>
<pdfrwt beam="1">  1        2 0.20616462E+00 0.15279916E+04</pdfrwt>
<pdfrwt beam="2">  1       -2 0.28739813E+00 0.15279916E+04</pdfrwt>
<totfact> 0.55882490E-01</totfact>
</mgrwt>
</event>
<event>
 4    1  0.1033139E-008  0.6725277E+03  0.7818608E-02  0.9765402E-01
          2   -1    0    0  501    0  0.00000000000E+00  0.00000000000E+00  0.12179630099E+04  0.12179630099E+04  0.25500000000E-02 0. -1.
         -2   -1    0    0    0  501 -0.00000000000E+00 -0.00000000000E+00 -0.25835452602E+04  0.25835452602E+04  0.25500000000E-02 0.  1.
    8880022    1    1    2    0    0 -0.12062528503E+03  0.64370137045E+03  0.10760612662E+04  0.12689371204E+04  0.15294330000E+03 0.  0.
    8880022    1    1    2    0    0  0.12062528503E+03 -0.64370137045E+03 -0.24416435165E+04  0.25325711498E+04  0.15294330000E+03 0.  1.
<mgrwt>
<rscale>  0 0.67252774E+03</rscale>
<asrwt>0</asrwt>
<pdfrwt beam="1">  1        2 0.18737893E+00 0.67252774E+03</pdfrwt>
<pdfrwt beam="2">  1       -2 0.39746850E+00 0.67252774E+03</pdfrwt>
<totfact> 0.15583167E-01</totfact>
</mgrwt>
</event>
<event>
 4    1  0.1033139E-008  0.8792424E+03  0.7818608E-02  0.9451908E-01
          2   -1    0    0  501    0  0.00000000000E+00  0.00000000000E+00  0.12505283564E+04  0.12505283564E+04  0.25500000000E-02 0. -1.
         -2   -1    0    0    0  501 -0.00000000000E+00 -0.00000000000E+00 -0.11548395083E+04  0.11548395083E+04  0.25500000000E-02 0.  1.
    8880022    1    1    2    0    0 -0.86413791808E+03 -0.54232710708E+02 -0.77200684106E+03  0.11700691193E+04  0.15294330000E+03 0.  0.
    8880022    1    1    2    0    0  0.86413791808E+03  0.54232710708E+02  0.86769568910E+03  0.12352987454E+04  0.15294330000E+03 0.  0.
<mgrwt>
<rscale>  0 0.87924239E+03</rscale>
<asrwt>0</asrwt>
<pdfrwt beam="1">  1        2 0.19238898E+00 0.87924239E+03</pdfrwt>
<pdfrwt beam="2">  1       -2 0.17766762E+00 0.87924239E+03</pdfrwt>
<totfact> 0.33472222E+00</totfact>
</mgrwt>
</event>
<event>
 4    1  0.1033139E-008  0.1685008E+04  0.7818608E-02  0.8769961E-01
          2   -1    0    0  501    0  0.00000000000E+00  0.00000000000E+00  0.37469082346E+04  0.37469082346E+04  0.25500000000E-02 0. -1.
         -2   -1    0    0    0  501 -0.00000000000E+00 -0.00000000000E+00 -0.10618870535E+04  0.10618870535E+04  0.25500000000E-02 0.  1.
    8880022    1    1    2    0    0  0.13152231350E+04  0.10421359935E+04  0.26292655203E+04  0.31228653754E+04  0.15294330000E+03 0.  0.
    8880022    1    1    2    0    0 -0.13152231350E+04 -0.10421359935E+04  0.55755660729E+02  0.16859299127E+04  0.15294330000E+03 0.  0.
<mgrwt>
<rscale>  0 0.16850077E+04</rscale>
<asrwt>0</asrwt>
<pdfrwt beam="1">  1        2 0.57644741E+00 0.16850077E+04</pdfrwt>
<pdfrwt beam="2">  1       -2 0.16336724E+00 0.16850077E+04</pdfrwt>
<totfact> 0.11953916E-01</totfact>
</mgrwt>
</event>
<event>
 4    1  0.1033139E-008  0.1578758E+04  0.7818608E-02  0.8833705E-01
          2   -1    0    0  501    0  0.00000000000E+00  0.00000000000E+00  0.21876318834E+04  0.21876318834E+04  0.25500000000E-02 0. -1.
         -2   -1    0    0    0  501 -0.00000000000E+00 -0.00000000000E+00 -0.18487555425E+04  0.18487555425E+04  0.25500000000E-02 0.  1.
    8880022    1    1    2    0    0  0.68070847803E+03 -0.14162347952E+04 -0.10807363165E+04  0.19132348696E+04  0.15294330000E+03 0.  0.
    8880022    1    1    2    0    0 -0.68070847803E+03  0.14162347952E+04  0.14196126575E+04  0.21231525563E+04  0.15294330000E+03 0.  0.
<mgrwt>
<rscale>  0 0.15787580E+04</rscale>
<asrwt>0</asrwt>
<pdfrwt beam="1">  1        2 0.33655875E+00 0.15787580E+04</pdfrwt>
<pdfrwt beam="2">  1       -2 0.28442393E+00 0.15787580E+04</pdfrwt>
<totfact> 0.19286634E-01</totfact>
</mgrwt>
</event>
<event>
 4    1  0.1033139E-008  0.7865771E+03  0.7818608E-02  0.9579652E-01
          2   -1    0    0  501    0  0.00000000000E+00  0.00000000000E+00  0.19239543323E+04  0.19239543323E+04  0.25500000000E-02 0. -1.
         -2   -1    0    0    0  501 -0.00000000000E+00 -0.00000000000E+00 -0.49039128374E+03  0.49039128375E+03  0.25500000000E-02 0.  1.
    8880022    1    1    2    0    0  0.48138556170E+03  0.60297579908E+03  0.14250533252E+04  0.16277224905E+04  0.15294330000E+03 0.  0.
    8880022    1    1    2    0    0 -0.48138556170E+03 -0.60297579908E+03  0.85097233482E+01  0.78662312558E+03  0.15294330000E+03 0.  0.
<mgrwt>
<rscale>  0 0.78657709E+03</rscale>
<asrwt>0</asrwt>
<pdfrwt beam="1">  1        2 0.29599297E+00 0.78657709E+03</pdfrwt>
<pdfrwt beam="2">  1       -2 0.75444813E-01 0.78657709E+03</pdfrwt>
<totfact> 0.11931275E+01</totfact>
</mgrwt>
</event>
<event>
 4    1  0.1033139E-008  0.1014532E+04  0.7818608E-02  0.9292748E-01
          2   -1    0    0  501    0  0.00000000000E+00  0.00000000000E+00  0.18057272657E+04  0.18057272657E+04  0.25500000000E-02 0. -1.
         -2   -1    0    0    0  501 -0.00000000000E+00 -0.00000000000E+00 -0.85110796546E+03  0.85110796546E+03  0.25500000000E-02 0.  1.
    8880022    1    1    2    0    0  0.93740243221E+03  0.35659668903E+03  0.12407478717E+04  0.16027262563E+04  0.15294330000E+03 0.  0.
    8880022    1    1    2    0    0 -0.93740243221E+03 -0.35659668903E+03 -0.28612857141E+03  0.10541089749E+04  0.15294330000E+03 0.  0.
<mgrwt>
<rscale>  0 0.10145325E+04</rscale>
<asrwt>0</asrwt>
<pdfrwt beam="1">  1        2 0.27780419E+00 0.10145325E+04</pdfrwt>
<pdfrwt beam="2">  1       -2 0.13093969E+00 0.10145325E+04</pdfrwt>
<totfact> 0.36320630E+00</totfact>
</mgrwt>
</event>
<event>
 4    1  0.1033139E-008  0.7589770E+03  0.7818608E-02  0.9621371E-01
          2   -1    0    0  501    0  0.00000000000E+00  0.00000000000E+00  0.87862148680E+03  0.87862148680E+03  0.25500000000E-02 0. -1.
         -2   -1    0    0    0  501 -0.00000000000E+00 -0.00000000000E+00 -0.12378688187E+04  0.12378688187E+04  0.25500000000E-02 0.  1.
    8880022    1    1    2    0    0  0.74340300661E+03 -0.25328651102E+01  0.54615043710E+03  0.93505422228E+03  0.15294330000E+03 0.  0.
    8880022    1    1    2    0    0 -0.74340300661E+03  0.25328651102E+01 -0.90539776903E+03  0.11814360833E+04  0.15294330000E+03 0.  0.
<mgrwt>
<rscale>  0 0.75897701E+03</rscale>
<asrwt>0</asrwt>
<pdfrwt beam="1">  1        2 0.13517254E+00 0.75897701E+03</pdfrwt>
<pdfrwt beam="2">  1       -2 0.19044136E+00 0.75897701E+03</pdfrwt>
<totfact> 0.47617559E+00</totfact>
</mgrwt>
</event>
<event>
 4    1  0.1033139E-008  0.4757126E+03  0.7818608E-02  0.1020320E+00
         -2   -1    0    0    0  501 -0.00000000000E+00  0.00000000000E+00  0.79676527553E+03  0.79676527554E+03  0.25500000000E-02 0.  1.
          2   -1    0    0  501    0  0.00000000000E+00 -0.00000000000E+00 -0.56139724136E+03  0.56139724137E+03  0.25500000000E-02 0. -1.
    8880022    1    1    2    0    0 -0.43466673594E+03  0.11821860862E+03 -0.35964399339E+03  0.59636085196E+03  0.15294330000E+03 0. -1.
    8880022    1    1    2    0    0  0.43466673594E+03 -0.11821860862E+03  0.59501202756E+03  0.76180166494E+03  0.15294330000E+03 0.  0.
<mgrwt>
<rscale>  0 0.47571259E+03</rscale>
<asrwt>0</asrwt>
<pdfrwt beam="1">  1        2 0.86368806E-01 0.47571259E+03</pdfrwt>
<pdfrwt beam="2">  1       -2 0.12257927E+00 0.47571259E+03</pdfrwt>
<totfact> 0.28170197E+01</totfact>
</mgrwt>
</event>
<event>
 4    1  0.1033139E-008  0.2476257E+03  0.7818608E-02  0.1114815E+00
         -2   -1    0    0    0  501 -0.00000000000E+00  0.00000000000E+00  0.38573091838E+03  0.38573091839E+03  0.25500000000E-02 0.  1.
          2   -1    0    0  501    0  0.00000000000E+00 -0.00000000000E+00 -0.19731312890E+04  0.19731312890E+04  0.25500000000E-02 0. -1.
    8880022    1    1    2    0    0  0.23343193537E+02 -0.19334405789E+03 -0.19246228121E+04  0.19404874263E+04  0.15294330000E+03 0.  0.
    8880022    1    1    2    0    0 -0.23343193537E+02  0.19334405789E+03  0.33722244153E+03  0.41837478114E+03  0.15294330000E+03 0.  0.
<mgrwt>
<rscale>  0 0.24762569E+03</rscale>
<asrwt>0</asrwt>
<pdfrwt beam="1">  1        2 0.30355865E+00 0.24762569E+03</pdfrwt>
<pdfrwt beam="2">  1       -2 0.59343219E-01 0.24762569E+03</pdfrwt>
<totfact> 0.21315945E+01</totfact>
</mgrwt>
</event>
<event>
 4    1  0.1033139E-008  0.5167491E+03  0.7818608E-02  0.1009497E+00
          2   -1    0    0  501    0  0.00000000000E+00  0.00000000000E+00  0.18796333128E+04  0.18796333128E+04  0.25500000000E-02 0. -1.
         -2   -1    0    0    0  501 -0.00000000000E+00 -0.00000000000E+00 -0.14937234979E+03  0.14937234981E+03  0.25500000000E-02 0.  1.
    8880022    1    1    2    0    0 -0.28333558373E+03  0.40417680187E+03  0.10895218886E+04  0.12058555216E+04  0.15294330000E+03 0.  0.
    8880022    1    1    2    0    0  0.28333558373E+03 -0.40417680187E+03  0.64073907437E+03  0.82315014099E+03  0.15294330000E+03 0.  0.
<mgrwt>
<rscale>  0 0.51674906E+03</rscale>
<asrwt>0</asrwt>
<pdfrwt beam="1">  1        2 0.28917436E+00 0.51674906E+03</pdfrwt>
<pdfrwt beam="2">  1       -2 0.22980361E-01 0.51674906E+03</pdfrwt>
<totfact> 0.13655620E+02</totfact>
</mgrwt>
</event>
<event>
 4    1  0.1071487E-008  0.1098587E+04  0.7818608E-02  0.9206571E-01
         -2   -1    0    0    0  501 -0.00000000000E+00  0.00000000000E+00  0.14093038379E+04  0.14093038379E+04  0.25500000000E-02 0.  1.
          2   -1    0    0  501    0  0.00000000000E+00 -0.00000000000E+00 -0.32934129575E+04  0.32934129575E+04  0.25500000000E-02 0. -1.
    8880022    1    1    2    0    0  0.10721283221E+04 -0.18450427194E+03 -0.29647331570E+04  0.31617297973E+04  0.15294330000E+03 0. -1.
    8880022    1    1    2    0    0 -0.10721283221E+04  0.18450427194E+03  0.10806240374E+04  0.15409869982E+04  0.15294330000E+03 0.  0.
<mgrwt>
<rscale>  0 0.10985866E+04</rscale>
<asrwt>0</asrwt>
<pdfrwt beam="1">  1        2 0.50667891E+00 0.10985866E+04</pdfrwt>
<pdfrwt beam="2">  1       -2 0.21681598E+00 0.10985866E+04</pdfrwt>
<totfact> 0.11729905E-01</totfact>
</mgrwt>
</event>
<event>
 4    1  0.1182117E-008  0.1021795E+04  0.7818608E-02  0.9284959E-01
         -2   -1    0    0    0  501 -0.00000000000E+00  0.00000000000E+00  0.18998453212E+04  0.18998453212E+04  0.25500000000E-02 0.  1.
          2   -1    0    0  501    0  0.00000000000E+00 -0.00000000000E+00 -0.15984266307E+04  0.15984266307E+04  0.25500000000E-02 0. -1.
    8880022    1    1    2    0    0  0.54124503650E+02 -0.10088324440E+04 -0.12661899550E+04  0.16270528624E+04  0.15294330000E+03 0.  0.
    8880022    1    1    2    0    0 -0.54124503650E+02  0.10088324440E+04  0.15676086455E+04  0.18712190894E+04  0.15294330000E+03 0.  0.
<mgrwt>
<rscale>  0 0.10217945E+04</rscale>
<asrwt>0</asrwt>
<pdfrwt beam="1">  1        2 0.24591179E+00 0.10217945E+04</pdfrwt>
<pdfrwt beam="2">  1       -2 0.29228390E+00 0.10217945E+04</pdfrwt>
<totfact> 0.39643087E-01</totfact>
</mgrwt>
</event>
<event>
 4    1  0.1033139E-008  0.6345970E+03  0.7818608E-02  0.9836119E-01
         -2   -1    0    0    0  501 -0.00000000000E+00  0.00000000000E+00  0.18454210502E+04  0.18454210502E+04  0.25500000000E-02 0.  1.
          2   -1    0    0  501    0  0.00000000000E+00 -0.00000000000E+00 -0.20582107202E+04  0.20582107202E+04  0.25500000000E-02 0. -1.
    8880022    1    1    2    0    0  0.60785663045E+03 -0.99156654147E+02 -0.19518410348E+04  0.20524124350E+04  0.15294330000E+03 0.  0.
    8880022    1    1    2    0    0 -0.60785663045E+03  0.99156654147E+02  0.17390513648E+04  0.18512193354E+04  0.15294330000E+03 0.  0.
<mgrwt>
<rscale>  0 0.63459702E+03</rscale>
<asrwt>0</asrwt>
<pdfrwt beam="1">  1        2 0.31664780E+00 0.63459702E+03</pdfrwt>
<pdfrwt beam="2">  1       -2 0.28391093E+00 0.63459702E+03</pdfrwt>
<totfact> 0.27132304E-01</totfact>
</mgrwt>
</event>
<event>
 4    1  0.1033139E-008  0.6750076E+03  0.7818608E-02  0.9760954E-01
         -2   -1    0    0    0  501 -0.00000000000E+00  0.00000000000E+00  0.10996511442E+04  0.10996511442E+04  0.25500000000E-02 0.  1.
          2   -1    0    0  501    0  0.00000000000E+00 -0.00000000000E+00 -0.51456811698E+03  0.51456811699E+03  0.25500000000E-02 0. -1.
    8880022    1    1    2    0    0 -0.62516625466E+03 -0.20349631412E+03  0.64874196311E+03  0.93621652599E+03  0.15294330000E+03 0.  0.
    8880022    1    1    2    0    0  0.62516625466E+03  0.20349631412E+03 -0.63658935870E+02  0.67800273522E+03  0.15294330000E+03 0.  0.
<mgrwt>
<rscale>  0 0.67500759E+03</rscale>
<asrwt>0</asrwt>
<pdfrwt beam="1">  1        2 0.79164325E-01 0.67500759E+03</pdfrwt>
<pdfrwt beam="2">  1       -2 0.16917710E+00 0.67500759E+03</pdfrwt>
<totfact> 0.13164986E+01</totfact>
</mgrwt>
</event>
<event>
 4    1  0.1033139E-008  0.1428983E+04  0.7818608E-02  0.8933103E-01
         -2   -1    0    0    0  501 -0.00000000000E+00  0.00000000000E+00  0.15468753589E+04  0.15468753589E+04  0.25500000000E-02 0.  1.
          2   -1    0    0  501    0  0.00000000000E+00 -0.00000000000E+00 -0.16257071231E+04  0.16257071231E+04  0.25500000000E-02 0. -1.
    8880022    1    1    2    0    0  0.12051663779E+04 -0.75244500208E+03  0.64838295142E+03  0.15692009381E+04  0.15294330000E+03 0.  0.
    8880022    1    1    2    0    0 -0.12051663779E+04  0.75244500208E+03 -0.72721471557E+03  0.16033815438E+04  0.15294330000E+03 0.  0.
<mgrwt>
<rscale>  0 0.14289826E+04</rscale>
<asrwt>0</asrwt>
<pdfrwt beam="1">  1        2 0.25010879E+00 0.14289826E+04</pdfrwt>
<pdfrwt beam="2">  1       -2 0.23798082E+00 0.14289826E+04</pdfrwt>
<totfact> 0.77840923E-01</totfact>
</mgrwt>
</event>
<event>
 4    1  0.1033139E-008  0.2979354E+03  0.7818608E-02  0.1086277E+00
          2   -1    0    0  501    0  0.00000000000E+00  0.00000000000E+00  0.20350402739E+04  0.20350402739E+04  0.25500000000E-02 0. -1.
         -2   -1    0    0    0  501 -0.00000000000E+00 -0.00000000000E+00 -0.32903994411E+03  0.32903994412E+03  0.25500000000E-02 0.  1.
    8880022    1    1    2    0    0  0.20912748836E+03  0.14710382466E+03 -0.24790819012E+03  0.38758736481E+03  0.15294330000E+03 0.  0.
    8880022    1    1    2    0    0 -0.20912748836E+03 -0.14710382466E+03  0.19539085199E+04  0.19764928532E+04  0.15294330000E+03 0. -1.
<mgrwt>
<rscale>  0 0.29793539E+03</rscale>
<asrwt>0</asrwt>
<pdfrwt beam="1">  1        2 0.31308312E+00 0.29793539E+03</pdfrwt>
<pdfrwt beam="2">  1       -2 0.50621530E-01 0.29793539E+03</pdfrwt>
<totfact> 0.26816146E+01</totfact>
</mgrwt>
</event>
<event>
 4    1  0.1033139E-008  0.1024694E+04  0.7818608E-02  0.9281868E-01
         -2   -1    0    0    0  501 -0.00000000000E+00  0.00000000000E+00  0.81297414983E+03  0.81297414983E+03  0.25500000000E-02 0.  1.
          2   -1    0    0  501    0  0.00000000000E+00 -0.00000000000E+00 -0.22564943711E+04  0.22564943711E+04  0.25500000000E-02 0. -1.
    8880022    1    1    2    0    0 -0.74824090220E+03 -0.68318472289E+03  0.28185456851E+03  0.10627508947E+04  0.15294330000E+03 0.  0.
    8880022    1    1    2    0    0  0.74824090220E+03  0.68318472289E+03 -0.17253747898E+04  0.20067176263E+04  0.15294330000E+03 0.  0.
<mgrwt>
<rscale>  0 0.10246938E+04</rscale>
<asrwt>0</asrwt>
<pdfrwt beam="1">  1        2 0.34715298E+00 0.10246938E+04</pdfrwt>
<pdfrwt beam="2">  1       -2 0.12507295E+00 0.10246938E+04</pdfrwt>
<totfact> 0.22953221E+00</totfact>
</mgrwt>
</event>
<event>
 4    1  0.1033139E-008  0.1279764E+04  0.7818608E-02  0.9045769E-01
         -2   -1    0    0    0  501 -0.00000000000E+00  0.00000000000E+00  0.92330126260E+03  0.92330126260E+03  0.25500000000E-02 0.  1.
          2   -1    0    0  501    0  0.00000000000E+00 -0.00000000000E+00 -0.22263574743E+04  0.22263574743E+04  0.25500000000E-02 0. -1.
    8880022    1    1    2    0    0 -0.12580440410E+04  0.17812408402E+03 -0.13615155141E+04  0.18685607152E+04  0.15294330000E+03 0.  0.
    8880022    1    1    2    0    0  0.12580440410E+04 -0.17812408402E+03  0.58459302324E+02  0.12810980217E+04  0.15294330000E+03 0.  0.
<mgrwt>
<rscale>  0 0.12797635E+04</rscale>
<asrwt>0</asrwt>
<pdfrwt beam="1">  1        2 0.34251653E+00 0.12797635E+04</pdfrwt>
<pdfrwt beam="2">  1       -2 0.14204635E+00 0.12797635E+04</pdfrwt>
<totfact> 0.16684354E+00</totfact>
</mgrwt>
</event>
<event>
 4    1  0.1033139E-008  0.6818894E+03  0.7818608E-02  0.9748715E-01
         -2   -1    0    0    0  501 -0.00000000000E+00  0.00000000000E+00  0.72156615802E+03  0.72156615803E+03  0.25500000000E-02 0.  1.
          2   -1    0    0  501    0  0.00000000000E+00 -0.00000000000E+00 -0.19086146997E+04  0.19086146997E+04  0.25500000000E-02 0. -1.
    8880022    1    1    2    0    0  0.48058020895E+03  0.45893813256E+03 -0.16638300308E+04  0.17981389188E+04  0.15294330000E+03 0.  0.
    8880022    1    1    2    0    0 -0.48058020895E+03 -0.45893813256E+03  0.47678148915E+03  0.83204193894E+03  0.15294330000E+03 0.  0.
<mgrwt>
<rscale>  0 0.68188943E+03</rscale>
<asrwt>0</asrwt>
<pdfrwt beam="1">  1        2 0.29363303E+00 0.68188943E+03</pdfrwt>
<pdfrwt beam="2">  1       -2 0.11101018E+00 0.68188943E+03</pdfrwt>
<totfact> 0.50483858E+00</totfact>
</mgrwt>
</event>
<event>
 4    1  0.1033139E-008  0.8676327E+03  0.7818608E-02  0.9466972E-01
         -2   -1    0    0    0  501 -0.00000000000E+00  0.00000000000E+00  0.13478011795E+04  0.13478011795E+04  0.25500000000E-02 0.  1.
          2   -1    0    0  501    0  0.00000000000E+00 -0.00000000000E+00 -0.18828434194E+04  0.18828434194E+04  0.25500000000E-02 0. -1.
    8880022    1    1    2    0    0 -0.53347643003E+03  0.66693160841E+03 -0.16222350036E+04  0.18396828345E+04  0.15294330000E+03 0.  0.
    8880022    1    1    2    0    0  0.53347643003E+03 -0.66693160841E+03  0.10871927636E+04  0.13909617644E+04  0.15294330000E+03 0.  0.
<mgrwt>
<rscale>  0 0.86763271E+03</rscale>
<asrwt>0</asrwt>
<pdfrwt beam="1">  1        2 0.28966822E+00 0.86763271E+03</pdfrwt>
<pdfrwt beam="2">  1       -2 0.20735403E+00 0.86763271E+03</pdfrwt>
<totfact> 0.94216065E-01</totfact>
</mgrwt>
</event>
<event>
 4    1  0.1033139E-008  0.2050154E+03  0.7818608E-02  0.1145575E+00
         -2   -1    0    0    0  501 -0.00000000000E+00  0.00000000000E+00  0.23093279937E+03  0.23093279938E+03  0.25500000000E-02 0.  1.
          2   -1    0    0  501    0  0.00000000000E+00 -0.00000000000E+00 -0.22237252106E+04  0.22237252106E+04  0.25500000000E-02 0. -1.
    8880022    1    1    2    0    0 -0.13325437172E+03 -0.29713872664E+02  0.17963374194E+03  0.27257948578E+03  0.15294330000E+03 0.  1.
    8880022    1    1    2    0    0  0.13325437172E+03  0.29713872664E+02 -0.21724261532E+04  0.21820785242E+04  0.15294330000E+03 0.  0.
<mgrwt>
<rscale>  0 0.20501535E+03</rscale>
<asrwt>0</asrwt>
<pdfrwt beam="1">  1        2 0.34211155E+00 0.20501535E+03</pdfrwt>
<pdfrwt beam="2">  1       -2 0.35528125E-01 0.20501535E+03</pdfrwt>
<totfact> 0.43999234E+01</totfact>
</mgrwt>
</event>
<event>
 4    1  0.1033139E-008  0.9620397E+03  0.7818608E-02  0.9351188E-01
         -2   -1    0    0    0  501 -0.00000000000E+00  0.00000000000E+00  0.47158730810E+03  0.47158730810E+03  0.25500000000E-02 0.  1.
          2   -1    0    0  501    0  0.00000000000E+00 -0.00000000000E+00 -0.36091933655E+04  0.36091933655E+04  0.25500000000E-02 0. -1.
    8880022    1    1    2    0    0  0.63182794848E+03  0.70917001485E+03 -0.19062253678E+03  0.98074322378E+03  0.15294330000E+03 0.  0.
    8880022    1    1    2    0    0 -0.63182794848E+03 -0.70917001485E+03 -0.29469835206E+04  0.31000374498E+04  0.15294330000E+03 0.  0.
<mgrwt>
<rscale>  0 0.96203967E+03</rscale>
<asrwt>0</asrwt>
<pdfrwt beam="1">  1        2 0.55526050E+00 0.96203967E+03</pdfrwt>
<pdfrwt beam="2">  1       -2 0.72551896E-01 0.96203967E+03</pdfrwt>
<totfact> 0.12226592E+00</totfact>
</mgrwt>
</event>
<event>
 4    1  0.1033139E-008  0.2805395E+03  0.7818608E-02  0.1095395E+00
         -2   -1    0    0    0  501 -0.00000000000E+00  0.00000000000E+00  0.76735078576E+02  0.76735078618E+02  0.25500000000E-02 0.  1.
          2   -1    0    0  501    0  0.00000000000E+00 -0.00000000000E+00 -0.15299524896E+04  0.15299524896E+04  0.25500000000E-02 0. -1.
    8880022    1    1    2    0    0 -0.23510950165E+03 -0.58526961666E+01 -0.11878342412E+04  0.12205132402E+04  0.15294330000E+03 0.  0.
    8880022    1    1    2    0    0  0.23510950165E+03  0.58526961666E+01 -0.26538316984E+03  0.38617432808E+03  0.15294330000E+03 0.  0.
<mgrwt>
<rscale>  0 0.28053945E+03</rscale>
<asrwt>0</asrwt>
<pdfrwt beam="1">  1        2 0.23537728E+00 0.28053945E+03</pdfrwt>
<pdfrwt beam="2">  1       -2 0.11805398E-01 0.28053945E+03</pdfrwt>
<totfact> 0.66883176E+02</totfact>
</mgrwt>
</event>
<event>
 4    1  0.1033139E-008  0.1529370E+04  0.7818608E-02  0.8865153E-01
          2   -1    0    0  501    0  0.00000000000E+00  0.00000000000E+00  0.27202694980E+04  0.27202694980E+04  0.25500000000E-02 0. -1.
         -2   -1    0    0    0  501 -0.00000000000E+00 -0.00000000000E+00 -0.13331153808E+04  0.13331153808E+04  0.25500000000E-02 0.  1.
    8880022    1    1    2    0    0 -0.12500144374E+04  0.86778228055E+03 -0.51399974467E+03  0.16134340925E+04  0.15294330000E+03 0.  0.
    8880022    1    1    2    0    0  0.12500144374E+04 -0.86778228055E+03  0.19011538619E+04  0.24399507863E+04  0.15294330000E+03 0.  0.
<mgrwt>
<rscale>  0 0.15293704E+04</rscale>
<asrwt>0</asrwt>
<pdfrwt beam="1">  1        2 0.41850300E+00 0.15293704E+04</pdfrwt>
<pdfrwt beam="2">  1       -2 0.20509468E+00 0.15293704E+04</pdfrwt>
<totfact> 0.29810020E-01</totfact>
</mgrwt>
</event>
<event>
 4    1  0.1033139E-008  0.7451589E+03  0.7818608E-02  0.9642976E-01
          2   -1    0    0  501    0  0.00000000000E+00  0.00000000000E+00  0.24436594419E+04  0.24436594419E+04  0.25500000000E-02 0. -1.
         -2   -1    0    0    0  501 -0.00000000000E+00 -0.00000000000E+00 -0.26533580245E+03  0.26533580246E+03  0.25500000000E-02 0.  1.
    8880022    1    1    2    0    0  0.72439794923E+03  0.84366316805E+02  0.16024976363E+04  0.17672748489E+04  0.15294330000E+03 0.  0.
    8880022    1    1    2    0    0 -0.72439794923E+03 -0.84366316805E+02  0.57582600314E+03  0.94172039543E+03  0.15294330000E+03 0.  0.
<mgrwt>
<rscale>  0 0.74515885E+03</rscale>
<asrwt>0</asrwt>
<pdfrwt beam="1">  1        2 0.37594759E+00 0.74515885E+03</pdfrwt>
<pdfrwt beam="2">  1       -2 0.40820895E-01 0.74515885E+03</pdfrwt>
<totfact> 0.22273859E+01</totfact>
</mgrwt>
</event>
<event>
 4    1  0.1033139E-008  0.1174084E+04  0.7818608E-02  0.9135848E-01
         -2   -1    0    0    0  501 -0.00000000000E+00  0.00000000000E+00  0.70332173200E+03  0.70332173201E+03  0.25500000000E-02 0.  1.
          2   -1    0    0  501    0  0.00000000000E+00 -0.00000000000E+00 -0.38337604051E+04  0.38337604051E+04  0.25500000000E-02 0. -1.
    8880022    1    1    2    0    0 -0.10357632894E+04 -0.53129590290E+03  0.20759743231E+02  0.11742672388E+04  0.15294330000E+03 0.  0.
    8880022    1    1    2    0    0  0.10357632894E+04  0.53129590290E+03 -0.31511984163E+04  0.33628148983E+04  0.15294330000E+03 0.  0.
<mgrwt>
<rscale>  0 0.11740837E+04</rscale>
<asrwt>0</asrwt>
<pdfrwt beam="1">  1        2 0.58980928E+00 0.11740837E+04</pdfrwt>
<pdfrwt beam="2">  1       -2 0.10820335E+00 0.11740837E+04</pdfrwt>
<totfact> 0.32021472E-01</totfact>
</mgrwt>
</event>
<event>
 4    1  0.1033139E-008  0.5365308E+03  0.7818608E-02  0.1004660E+00
         -2   -1    0    0    0  501 -0.00000000000E+00  0.00000000000E+00  0.55664033037E+03  0.55664033038E+03  0.25500000000E-02 0.  1.
          2   -1    0    0  501    0  0.00000000000E+00 -0.00000000000E+00 -0.15388137180E+04  0.15388137180E+04  0.25500000000E-02 0. -1.
    8880022    1    1    2    0    0  0.36755274412E+03  0.35969246511E+03  0.36262172966E+03  0.64758000356E+03  0.15294330000E+03 0.  0.
    8880022    1    1    2    0    0 -0.36755274412E+03 -0.35969246511E+03 -0.13447951173E+04  0.14478740448E+04  0.15294330000E+03 0.  0.
<mgrwt>
<rscale>  0 0.53653084E+03</rscale>
<asrwt>0</asrwt>
<pdfrwt beam="1">  1        2 0.23674057E+00 0.53653084E+03</pdfrwt>
<pdfrwt beam="2">  1       -2 0.85636975E-01 0.53653084E+03</pdfrwt>
<totfact> 0.15143265E+01</totfact>
</mgrwt>
</event>
<event>
 4    1  0.1033139E-008  0.1534705E+04  0.7818608E-02  0.8861697E-01
          2   -1    0    0  501    0  0.00000000000E+00  0.00000000000E+00  0.45235114002E+04  0.45235114002E+04  0.25500000000E-02 0. -1.
         -2   -1    0    0    0  501 -0.00000000000E+00 -0.00000000000E+00 -0.73882234790E+03  0.73882234790E+03  0.25500000000E-02 0.  1.
    8880022    1    1    2    0    0  0.64779041093E+03  0.13828576351E+04  0.33220433016E+04  0.36594112923E+04  0.15294330000E+03 0.  0.
    8880022    1    1    2    0    0 -0.64779041093E+03 -0.13828576351E+04  0.46264575067E+03  0.16029224558E+04  0.15294330000E+03 0.  0.
<mgrwt>
<rscale>  0 0.15347050E+04</rscale>
<asrwt>0</asrwt>
<pdfrwt beam="1">  1        2 0.69592482E+00 0.15347050E+04</pdfrwt>
<pdfrwt beam="2">  1       -2 0.11366498E+00 0.15347050E+04</pdfrwt>
<totfact> 0.68893522E-02</totfact>
</mgrwt>
</event>
<event>
 4    1  0.1033139E-008  0.6537609E+03  0.7818608E-02  0.9799748E-01
          2   -1    0    0  501    0  0.00000000000E+00  0.00000000000E+00  0.30067440983E+04  0.30067440983E+04  0.25500000000E-02 0. -1.
         -2   -1    0    0    0  501 -0.00000000000E+00 -0.00000000000E+00 -0.38882541928E+03  0.38882541929E+03  0.25500000000E-02 0.  1.
    8880022    1    1    2    0    0  0.43078205951E+03 -0.46737406768E+03 -0.43330549140E+02  0.65519530786E+03  0.15294330000E+03 0.  0.
    8880022    1    1    2    0    0 -0.43078205951E+03  0.46737406768E+03  0.26612492281E+04  0.27403742097E+04  0.15294330000E+03 0.  0.
<mgrwt>
<rscale>  0 0.65376093E+03</rscale>
<asrwt>0</asrwt>
<pdfrwt beam="1">  1        2 0.46257601E+00 0.65376093E+03</pdfrwt>
<pdfrwt beam="2">  1       -2 0.59819296E-01 0.65376093E+03</pdfrwt>
<totfact> 0.48901611E+00</totfact>
</mgrwt>
</event>
<event>
 4    1  0.1033139E-008  0.3986693E+03  0.7818608E-02  0.1044241E+00
          2   -1    0    0  501    0  0.00000000000E+00  0.00000000000E+00  0.44478542230E+03  0.44478542231E+03  0.25500000000E-02 0. -1.
         -2   -1    0    0    0  501 -0.00000000000E+00 -0.00000000000E+00 -0.85278139249E+03  0.85278139249E+03  0.25500000000E-02 0.  1.
    8880022    1    1    2    0    0  0.35471630632E+03  0.98599665214E+02  0.29051693904E+03  0.49329230364E+03  0.15294330000E+03 0.  0.
    8880022    1    1    2    0    0 -0.35471630632E+03 -0.98599665214E+02 -0.69851290922E+03  0.80427451117E+03  0.15294330000E+03 0.  0.
<mgrwt>
<rscale>  0 0.39866929E+03</rscale>
<asrwt>0</asrwt>
<pdfrwt beam="1">  1        2 0.68428527E-01 0.39866929E+03</pdfrwt>
<pdfrwt beam="2">  1       -2 0.13119714E+00 0.39866929E+03</pdfrwt>
<totfact> 0.31357975E+01</totfact>
</mgrwt>
</event>
<event>
 4    1  0.1033139E-008  0.4929486E+03  0.7818608E-02  0.1015636E+00
         -2   -1    0    0    0  501 -0.00000000000E+00  0.00000000000E+00  0.26141409213E+04  0.26141409213E+04  0.25500000000E-02 0.  1.
          2   -1    0    0  501    0  0.00000000000E+00 -0.00000000000E+00 -0.84870426689E+03  0.84870426690E+03  0.25500000000E-02 0. -1.
    8880022    1    1    2    0    0  0.12708620862E+03  0.45106069829E+03 -0.75113724082E+03  0.89844613947E+03  0.15294330000E+03 0.  0.
    8880022    1    1    2    0    0 -0.12708620862E+03 -0.45106069829E+03  0.25165738952E+04  0.25643990487E+04  0.15294330000E+03 0.  1.
<mgrwt>
<rscale>  0 0.49294859E+03</rscale>
<asrwt>0</asrwt>
<pdfrwt beam="1">  1        2 0.13056989E+00 0.49294859E+03</pdfrwt>
<pdfrwt beam="2">  1       -2 0.40217553E+00 0.49294859E+03</pdfrwt>
<totfact> 0.26186970E-01</totfact>
</mgrwt>
</event>
<event>
 4    1  0.1033139E-008  0.1151411E+04  0.7818608E-02  0.9156483E-01
         -2   -1    0    0    0  501 -0.00000000000E+00  0.00000000000E+00  0.15163767266E+04  0.15163767266E+04  0.25500000000E-02 0.  1.
          2   -1    0    0  501    0  0.00000000000E+00 -0.00000000000E+00 -0.14562915748E+04  0.14562915748E+04  0.25500000000E-02 0. -1.
    8880022    1    1    2    0    0 -0.58957484292E+03 -0.97711638933E+03  0.96967057169E+03  0.15053264112E+04  0.15294330000E+03 0.  0.
    8880022    1    1    2    0    0  0.58957484292E+03  0.97711638933E+03 -0.90958541987E+03  0.14673418902E+04  0.15294330000E+03 0.  0.
<mgrwt>
<rscale>  0 0.11514107E+04</rscale>
<asrwt>0</asrwt>
<pdfrwt beam="1">  1        2 0.22404486E+00 0.11514107E+04</pdfrwt>
<pdfrwt beam="2">  1       -2 0.23328873E+00 0.11514107E+04</pdfrwt>
<totfact> 0.10701540E+00</totfact>
</mgrwt>
</event>
<event>
 4    1  0.1033139E-008  0.8735261E+03  0.7818608E-02  0.9459294E-01
          2   -1    0    0  501    0  0.00000000000E+00  0.00000000000E+00  0.53662347949E+03  0.53662347950E+03  0.25500000000E-02 0. -1.
         -2   -1    0    0    0  501 -0.00000000000E+00 -0.00000000000E+00 -0.18410152934E+04  0.18410152934E+04  0.25500000000E-02 0.  1.
    8880022    1    1    2    0    0 -0.69569084742E+03  0.50563862442E+03 -0.12193901609E+04  0.14999867304E+04  0.15294330000E+03 0.  0.
    8880022    1    1    2    0    0  0.69569084742E+03 -0.50563862442E+03 -0.85001652946E+02  0.87765204250E+03  0.15294330000E+03 0.  0.
<mgrwt>
<rscale>  0 0.87352609E+03</rscale>
<asrwt>0</asrwt>
<pdfrwt beam="1">  1        2 0.82557459E-01 0.87352609E+03</pdfrwt>
<pdfrwt beam="2">  1       -2 0.28323312E+00 0.87352609E+03</pdfrwt>
<totfact> 0.23257028E+00</totfact>
</mgrwt>
</event>
<event>
 4    1  0.1033139E-008  0.1917325E+04  0.7818608E-02  0.8646280E-01
          2   -1    0    0  501    0  0.00000000000E+00  0.00000000000E+00  0.18863064348E+04  0.18863064348E+04  0.25500000000E-02 0. -1.
         -2   -1    0    0    0  501 -0.00000000000E+00 -0.00000000000E+00 -0.22069353879E+04  0.22069353879E+04  0.25500000000E-02 0.  1.
    8880022    1    1    2    0    0 -0.68081787741E+03  0.17858415298E+04 -0.86019110663E+03  0.21014431576E+04  0.15294330000E+03 0.  0.
    8880022    1    1    2    0    0  0.68081787741E+03 -0.17858415298E+04  0.53956215352E+03  0.19917986651E+04  0.15294330000E+03 0.  0.
<mgrwt>
<rscale>  0 0.19173249E+04</rscale>
<asrwt>0</asrwt>
<pdfrwt beam="1">  1        2 0.29020099E+00 0.19173249E+04</pdfrwt>
<pdfrwt beam="2">  1       -2 0.33952852E+00 0.19173249E+04</pdfrwt>
<totfact> 0.12555038E-01</totfact>
</mgrwt>
</event>
<event>
 4    1  0.1038739E-008  0.9920551E+03  0.7818608E-02  0.9317302E-01
         -2   -1    0    0    0  501 -0.00000000000E+00  0.00000000000E+00  0.13792946340E+04  0.13792946340E+04  0.25500000000E-02 0.  1.
          2   -1    0    0  501    0  0.00000000000E+00 -0.00000000000E+00 -0.22858885456E+04  0.22858885456E+04  0.25500000000E-02 0. -1.
    8880022    1    1    2    0    0 -0.85245425926E+03  0.48384233501E+03 -0.19731914201E+04  0.22085419858E+04  0.15294330000E+03 0.  0.
    8880022    1    1    2    0    0  0.85245425926E+03 -0.48384233501E+03  0.10665975086E+04  0.14566411939E+04  0.15294330000E+03 0.  1.
<mgrwt>
<rscale>  0 0.99205510E+03</rscale>
<asrwt>0</asrwt>
<pdfrwt beam="1">  1        2 0.35167516E+00 0.99205510E+03</pdfrwt>
<pdfrwt beam="2">  1       -2 0.21219917E+00 0.99205510E+03</pdfrwt>
<totfact> 0.51444071E-01</totfact>
</mgrwt>
</event>
<event>
 4    1  0.1033139E-008  0.5953357E+03  0.7818608E-02  0.9915130E-01
          2   -1    0    0  501    0  0.00000000000E+00  0.00000000000E+00  0.11298730728E+04  0.11298730728E+04  0.25500000000E-02 0. -1.
         -2   -1    0    0    0  501 -0.00000000000E+00 -0.00000000000E+00 -0.56194900706E+03  0.56194900707E+03  0.25500000000E-02 0.  1.
    8880022    1    1    2    0    0 -0.57078264270E+03 -0.72388984305E+02  0.84621635560E+03  0.10346529678E+04  0.15294330000E+03 0.  0.
    8880022    1    1    2    0    0  0.57078264270E+03  0.72388984305E+02 -0.27829228986E+03  0.65716911208E+03  0.15294330000E+03 0.  0.
<mgrwt>
<rscale>  0 0.59533574E+03</rscale>
<asrwt>0</asrwt>
<pdfrwt beam="1">  1        2 0.17382663E+00 0.59533574E+03</pdfrwt>
<pdfrwt beam="2">  1       -2 0.86453694E-01 0.59533574E+03</pdfrwt>
<totfact> 0.25095806E+01</totfact>
</mgrwt>
</event>
<event>
 4    1  0.1033139E-008  0.4304080E+03  0.7818608E-02  0.1033731E+00
         -2   -1    0    0    0  501 -0.00000000000E+00  0.00000000000E+00  0.55902792748E+03  0.55902792748E+03  0.25500000000E-02 0.  1.
          2   -1    0    0  501    0  0.00000000000E+00 -0.00000000000E+00 -0.56831276570E+03  0.56831276571E+03  0.25500000000E-02 0. -1.
    8880022    1    1    2    0    0 -0.37194921998E+03 -0.15333997873E+03  0.35930904522E+03  0.56067282288E+03  0.15294330000E+03 0.  1.
    8880022    1    1    2    0    0  0.37194921998E+03  0.15333997873E+03 -0.36859388345E+03  0.56666787032E+03  0.15294330000E+03 0.  0.
<mgrwt>
<rscale>  0 0.43040797E+03</rscale>
<asrwt>0</asrwt>
<pdfrwt beam="1">  1        2 0.87432733E-01 0.43040797E+03</pdfrwt>
<pdfrwt beam="2">  1       -2 0.86004296E-01 0.43040797E+03</pdfrwt>
<totfact> 0.64549732E+01</totfact>
</mgrwt>
</event>
<event>
 4    1  0.1033139E-008  0.6511139E+03  0.7818608E-02  0.9804691E-01
          2   -1    0    0  501    0  0.00000000000E+00  0.00000000000E+00  0.13373644959E+04  0.13373644959E+04  0.25500000000E-02 0. -1.
         -2   -1    0    0    0  501 -0.00000000000E+00 -0.00000000000E+00 -0.40135390240E+03  0.40135390241E+03  0.25500000000E-02 0.  1.
    8880022    1    1    2    0    0 -0.50586250067E+03  0.38034306301E+03  0.86655162708E+03  0.10839100934E+04  0.15294330000E+03 0.  0.
    8880022    1    1    2    0    0  0.50586250067E+03 -0.38034306301E+03  0.69458966434E+02  0.65480830492E+03  0.15294330000E+03 0.  0.
<mgrwt>
<rscale>  0 0.65111394E+03</rscale>
<asrwt>0</asrwt>
<pdfrwt beam="1">  1        2 0.20574839E+00 0.65111394E+03</pdfrwt>
<pdfrwt beam="2">  1       -2 0.61746754E-01 0.65111394E+03</pdfrwt>
<totfact> 0.39523165E+01</totfact>
</mgrwt>
</event>
<event>
 4    1  0.1033139E-008  0.7987863E+03  0.7818608E-02  0.9561776E-01
          2   -1    0    0  501    0  0.00000000000E+00  0.00000000000E+00  0.43743553486E+04  0.43743553486E+04  0.25500000000E-02 0. -1.
         -2   -1    0    0    0  501 -0.00000000000E+00 -0.00000000000E+00 -0.33759810030E+03  0.33759810031E+03  0.25500000000E-02 0.  1.
    8880022    1    1    2    0    0 -0.44609099010E+03 -0.64472531568E+03  0.37938801256E+04  0.38770589323E+04  0.15294330000E+03 0.  0.
    8880022    1    1    2    0    0  0.44609099010E+03  0.64472531568E+03  0.24287712271E+03  0.83489451661E+03  0.15294330000E+03 0.  0.
<mgrwt>
<rscale>  0 0.79878630E+03</rscale>
<asrwt>0</asrwt>
<pdfrwt beam="1">  1        2 0.67297774E+00 0.79878630E+03</pdfrwt>
<pdfrwt beam="2">  1       -2 0.51938170E-01 0.79878630E+03</pdfrwt>
<totfact> 0.63561743E-01</totfact>
</mgrwt>
</event>
<event>
 4    1  0.1033139E-008  0.1091814E+04  0.7818608E-02  0.9213208E-01
         -2   -1    0    0    0  501 -0.00000000000E+00  0.00000000000E+00  0.17653440894E+04  0.17653440894E+04  0.25500000000E-02 0.  1.
          2   -1    0    0  501    0  0.00000000000E+00 -0.00000000000E+00 -0.68032780553E+03  0.68032780554E+03  0.25500000000E-02 0. -1.
    8880022    1    1    2    0    0  0.72950190628E+03 -0.79780473094E+03  0.64810273540E+03  0.12696827275E+04  0.15294330000E+03 0.  0.
    8880022    1    1    2    0    0 -0.72950190628E+03  0.79780473094E+03  0.43691354847E+03  0.11759891674E+04  0.15294330000E+03 0.  0.
<mgrwt>
<rscale>  0 0.10918137E+04</rscale>
<asrwt>0</asrwt>
<pdfrwt beam="1">  1        2 0.10466582E+00 0.10918137E+04</pdfrwt>
<pdfrwt beam="2">  1       -2 0.27159140E+00 0.10918137E+04</pdfrwt>
<totfact> 0.19947787E+00</totfact>
</mgrwt>
</event>
<event>
 4    1  0.1033139E-008  0.1156822E+04  0.7818608E-02  0.9151513E-01
          2   -1    0    0  501    0  0.00000000000E+00  0.00000000000E+00  0.15817623901E+04  0.15817623902E+04  0.25500000000E-02 0. -1.
         -2   -1    0    0    0  501 -0.00000000000E+00 -0.00000000000E+00 -0.14018199004E+04  0.14018199004E+04  0.25500000000E-02 0.  1.
    8880022    1    1    2    0    0 -0.10263275761E+04  0.51136731603E+03 -0.84934705428E+03  0.14351400270E+04  0.15294330000E+03 0.  0.
    8880022    1    1    2    0    0  0.10263275761E+04 -0.51136731603E+03  0.10292895440E+04  0.15484422636E+04  0.15294330000E+03 0.  0.
<mgrwt>
<rscale>  0 0.11568217E+04</rscale>
<asrwt>0</asrwt>
<pdfrwt beam="1">  1        2 0.24334806E+00 0.11568217E+04</pdfrwt>
<pdfrwt beam="2">  1       -2 0.21566460E+00 0.11568217E+04</pdfrwt>
<totfact> 0.11726230E+00</totfact>
</mgrwt>
</event>
<event>
 4    1  0.1033139E-008  0.2917180E+03  0.7818608E-02  0.1089456E+00
         -2   -1    0    0    0  501 -0.00000000000E+00  0.00000000000E+00  0.84993803802E+03  0.84993803802E+03  0.25500000000E-02 0.  1.
          2   -1    0    0  501    0  0.00000000000E+00 -0.00000000000E+00 -0.17529780969E+03  0.17529780971E+03  0.25500000000E-02 0. -1.
    8880022    1    1    2    0    0  0.13556622547E+02  0.24804026282E+03  0.16303446406E+01  0.29172258231E+03  0.15294330000E+03 0.  0.
    8880022    1    1    2    0    0 -0.13556622547E+02 -0.24804026282E+03  0.67300988368E+03  0.73351326542E+03  0.15294330000E+03 0.  0.
<mgrwt>
<rscale>  0 0.29171803E+03</rscale>
<asrwt>0</asrwt>
<pdfrwt beam="1">  1        2 0.26968894E-01 0.29171803E+03</pdfrwt>
<pdfrwt beam="2">  1       -2 0.13075970E+00 0.29171803E+03</pdfrwt>
<totfact> 0.89142081E+01</totfact>
</mgrwt>
</event>
<event>
 4    1  0.1033139E-008  0.9090808E+03  0.7818608E-02  0.9414301E-01
          2   -1    0    0  501    0  0.00000000000E+00  0.00000000000E+00  0.16810131479E+04  0.16810131479E+04  0.25500000000E-02 0. -1.
         -2   -1    0    0    0  501 -0.00000000000E+00 -0.00000000000E+00 -0.10308264129E+04  0.10308264129E+04  0.25500000000E-02 0.  1.
    8880022    1    1    2    0    0 -0.87365726716E+03 -0.19939729462E+03  0.13057495491E+04  0.15910404896E+04  0.15294330000E+03 0.  0.
    8880022    1    1    2    0    0  0.87365726716E+03  0.19939729462E+03 -0.65556281420E+03  0.11207990712E+04  0.15294330000E+03 0.  0.
<mgrwt>
<rscale>  0 0.90908083E+03</rscale>
<asrwt>0</asrwt>
<pdfrwt beam="1">  1        2 0.25861741E+00 0.90908083E+03</pdfrwt>
<pdfrwt beam="2">  1       -2 0.15858868E+00 0.90908083E+03</pdfrwt>
<totfact> 0.26087045E+00</totfact>
</mgrwt>
</event>
<event>
 4    1  0.1033139E-008  0.5760340E+03  0.7818608E-02  0.9956415E-01
          2   -1    0    0  501    0  0.00000000000E+00  0.00000000000E+00  0.65133276969E+03  0.65133276970E+03  0.25500000000E-02 0. -1.
         -2   -1    0    0    0  501 -0.00000000000E+00 -0.00000000000E+00 -0.63805079105E+03  0.63805079105E+03  0.25500000000E-02 0.  1.
    8880022    1    1    2    0    0  0.42855960047E+03  0.35321402123E+03 -0.28280183694E+03  0.64171022116E+03  0.15294330000E+03 0.  0.
    8880022    1    1    2    0    0 -0.42855960047E+03 -0.35321402123E+03  0.29608381559E+03  0.64767333959E+03  0.15294330000E+03 0.  0.
<mgrwt>
<rscale>  0 0.57603397E+03</rscale>
<asrwt>0</asrwt>
<pdfrwt beam="1">  1        2 0.10020504E+00 0.57603397E+03</pdfrwt>
<pdfrwt beam="2">  1       -2 0.98161660E-01 0.57603397E+03</pdfrwt>
<totfact> 0.39809720E+01</totfact>
</mgrwt>
</event>
<event>
 4    1  0.1033139E-008  0.5950102E+03  0.7818608E-02  0.9915813E-01
         -2   -1    0    0    0  501 -0.00000000000E+00  0.00000000000E+00  0.18362203727E+04  0.18362203727E+04  0.25500000000E-02 0.  1.
          2   -1    0    0  501    0  0.00000000000E+00 -0.00000000000E+00 -0.19398856731E+04  0.19398856731E+04  0.25500000000E-02 0. -1.
    8880022    1    1    2    0    0  0.56806292629E+03  0.89162930953E+02 -0.18436027306E+04  0.19372424210E+04  0.15294330000E+03 0.  0.
    8880022    1    1    2    0    0 -0.56806292629E+03 -0.89162930953E+02  0.17399374302E+04  0.18388636247E+04  0.15294330000E+03 0.  0.
<mgrwt>
<rscale>  0 0.59501023E+03</rscale>
<asrwt>0</asrwt>
<pdfrwt beam="1">  1        2 0.29844395E+00 0.59501023E+03</pdfrwt>
<pdfrwt beam="2">  1       -2 0.28249544E+00 0.59501023E+03</pdfrwt>
<totfact> 0.32454303E-01</totfact>
</mgrwt>
</event>
<event>
 4    1  0.1033139E-008  0.2165646E+03  0.7818608E-02  0.1136470E+00
         -2   -1    0    0    0  501 -0.00000000000E+00  0.00000000000E+00  0.16887321518E+03  0.16887321520E+03  0.25500000000E-02 0.  1.
          2   -1    0    0  501    0  0.00000000000E+00 -0.00000000000E+00 -0.15325991458E+04  0.15325991458E+04  0.25500000000E-02 0. -1.
    8880022    1    1    2    0    0  0.95118581295E+01 -0.15302976816E+03  0.87942121310E+02  0.23373928875E+03  0.15294330000E+03 0.  0.
    8880022    1    1    2    0    0 -0.95118581295E+01  0.15302976816E+03 -0.14516680519E+04  0.14677330722E+04  0.15294330000E+03 0.  0.
<mgrwt>
<rscale>  0 0.21656463E+03</rscale>
<asrwt>0</asrwt>
<pdfrwt beam="1">  1        2 0.23578447E+00 0.21656463E+03</pdfrwt>
<pdfrwt beam="2">  1       -2 0.25980496E-01 0.21656463E+03</pdfrwt>
<totfact> 0.17788798E+02</totfact>
</mgrwt>
</event>
<event>
 4    1  0.1033139E-008  0.5656752E+03  0.7818608E-02  0.9979295E-01
         -2   -1    0    0    0  501 -0.00000000000E+00  0.00000000000E+00  0.71079624087E+03  0.71079624087E+03  0.25500000000E-02 0.  1.
          2   -1    0    0  501    0  0.00000000000E+00 -0.00000000000E+00 -0.20328072428E+04  0.20328072428E+04  0.25500000000E-02 0. -1.
    8880022    1    1    2    0    0  0.54390982128E+03  0.27547802285E+02 -0.18714145136E+04  0.19550398231E+04  0.15294330000E+03 0.  0.
    8880022    1    1    2    0    0 -0.54390982128E+03 -0.27547802285E+02  0.54940351170E+03  0.78856366057E+03  0.15294330000E+03 0.  0.
<mgrwt>
<rscale>  0 0.56567520E+03</rscale>
<asrwt>0</asrwt>
<pdfrwt beam="1">  1        2 0.31273957E+00 0.56567520E+03</pdfrwt>
<pdfrwt beam="2">  1       -2 0.10935327E+00 0.56567520E+03</pdfrwt>
<totfact> 0.45897056E+00</totfact>
</mgrwt>
</event>
<event>
 4    1  0.1033139E-008  0.1556110E+04  0.7818608E-02  0.8847975E-01
          2   -1    0    0  501    0  0.00000000000E+00  0.00000000000E+00  0.18610668284E+04  0.18610668284E+04  0.25500000000E-02 0. -1.
         -2   -1    0    0    0  501 -0.00000000000E+00 -0.00000000000E+00 -0.16976154189E+04  0.16976154189E+04  0.25500000000E-02 0.  1.
    8880022    1    1    2    0    0  0.15465679082E+04  0.78828655146E+02 -0.77819161388E+03  0.17398448472E+04  0.15294330000E+03 0.  0.
    8880022    1    1    2    0    0 -0.15465679082E+04 -0.78828655146E+02  0.94164302342E+03  0.18188374001E+04  0.15294330000E+03 0.  0.
<mgrwt>
<rscale>  0 0.15561099E+04</rscale>
<asrwt>0</asrwt>
<pdfrwt beam="1">  1        2 0.28631797E+00 0.15561099E+04</pdfrwt>
<pdfrwt beam="2">  1       -2 0.26117160E+00 0.15561099E+04</pdfrwt>
<totfact> 0.40836702E-01</totfact>
</mgrwt>
</event>
<event>
 4    1  0.1815987E-008  0.1548099E+04  0.7818608E-02  0.8853083E-01
          2   -1    0    0  501    0  0.00000000000E+00  0.00000000000E+00  0.20906956443E+04  0.20906956443E+04  0.25500000000E-02 0. -1.
         -2   -1    0    0    0  501 -0.00000000000E+00 -0.00000000000E+00 -0.22182698870E+04  0.22182698870E+04  0.25500000000E-02 0.  1.
    8880022    1    1    2    0    0 -0.15310084655E+04 -0.17097541793E+03  0.14339051738E+04  0.21101410416E+04  0.15294330000E+03 0.  0.
    8880022    1    1    2    0    0  0.15310084655E+04  0.17097541793E+03 -0.15614794166E+04  0.21988244897E+04  0.15294330000E+03 0.  0.
<mgrwt>
<rscale>  0 0.15480992E+04</rscale>
<asrwt>0</asrwt>
<pdfrwt beam="1">  1        2 0.32164548E+00 0.15480992E+04</pdfrwt>
<pdfrwt beam="2">  1       -2 0.34127229E+00 0.15480992E+04</pdfrwt>
<totfact> 0.97957740E-02</totfact>
</mgrwt>
</event>
<event>
 4    1  0.1033139E-008  0.5894831E+03  0.7818608E-02  0.9927469E-01
          2   -1    0    0  501    0  0.00000000000E+00  0.00000000000E+00  0.18040798424E+04  0.18040798424E+04  0.25500000000E-02 0. -1.
         -2   -1    0    0    0  501 -0.00000000000E+00 -0.00000000000E+00 -0.32205106433E+03  0.32205106434E+03  0.25500000000E-02 0.  1.
    8880022    1    1    2    0    0  0.55120055005E+03 -0.14239585447E+03  0.14149643708E+04  0.15328452138E+04  0.15294330000E+03 0. -1.
    8880022    1    1    2    0    0 -0.55120055005E+03  0.14239585447E+03  0.67064407279E+02  0.59328569297E+03  0.15294330000E+03 0.  0.
<mgrwt>
<rscale>  0 0.58948306E+03</rscale>
<asrwt>0</asrwt>
<pdfrwt beam="1">  1        2 0.27755075E+00 0.58948306E+03</pdfrwt>
<pdfrwt beam="2">  1       -2 0.49546316E-01 0.58948306E+03</pdfrwt>
<totfact> 0.34787804E+01</totfact>
</mgrwt>
</event>
<event>
 4    1  0.1033139E-008  0.5055747E+03  0.7818608E-02  0.1012334E+00
          2   -1    0    0  501    0  0.00000000000E+00  0.00000000000E+00  0.17341810895E+04  0.17341810895E+04  0.25500000000E-02 0. -1.
         -2   -1    0    0    0  501 -0.00000000000E+00 -0.00000000000E+00 -0.19293661910E+03  0.19293661912E+03  0.25500000000E-02 0.  1.
    8880022    1    1    2    0    0 -0.29154108013E+02  0.48100324734E+03  0.30247137779E+03  0.58914741226E+03  0.15294330000E+03 0.  0.
    8880022    1    1    2    0    0  0.29154108013E+02 -0.48100324734E+03  0.12387730926E+04  0.13379702963E+04  0.15294330000E+03 0.  0.
<mgrwt>
<rscale>  0 0.50557466E+03</rscale>
<asrwt>0</asrwt>
<pdfrwt beam="1">  1        2 0.26679710E+00 0.50557466E+03</pdfrwt>
<pdfrwt beam="2">  1       -2 0.29682556E-01 0.50557466E+03</pdfrwt>
<totfact> 0.10319973E+02</totfact>
</mgrwt>
</event>
<event>
 4    1  0.1033139E-008  0.3916752E+03  0.7818608E-02  0.1046701E+00
         -2   -1    0    0    0  501 -0.00000000000E+00  0.00000000000E+00  0.32053719219E+03  0.32053719220E+03  0.25500000000E-02 0.  1.
          2   -1    0    0  501    0  0.00000000000E+00 -0.00000000000E+00 -0.24516711065E+04  0.24516711065E+04  0.25500000000E-02 0. -1.
    8880022    1    1    2    0    0  0.11800449924E+03  0.34072383821E+03 -0.23090389500E+04  0.23420226987E+04  0.15294330000E+03 0.  0.
    8880022    1    1    2    0    0 -0.11800449924E+03 -0.34072383821E+03  0.17790503562E+03  0.43018560003E+03  0.15294330000E+03 0.  0.
<mgrwt>
<rscale>  0 0.39167518E+03</rscale>
<asrwt>0</asrwt>
<pdfrwt beam="1">  1        2 0.37718016E+00 0.39167518E+03</pdfrwt>
<pdfrwt beam="2">  1       -2 0.49313416E-01 0.39167518E+03</pdfrwt>
<totfact> 0.16334857E+01</totfact>
</mgrwt>
</event>
<event>
 4    1  0.1033139E-008  0.9690499E+03  0.7818608E-02  0.9343157E-01
          2   -1    0    0  501    0  0.00000000000E+00  0.00000000000E+00  0.14942149277E+04  0.14942149277E+04  0.25500000000E-02 0. -1.
         -2   -1    0    0    0  501 -0.00000000000E+00 -0.00000000000E+00 -0.80131473399E+03  0.80131473400E+03  0.25500000000E-02 0.  1.
    8880022    1    1    2    0    0 -0.74051397507E+03 -0.60605696739E+03  0.87952616357E+03  0.13086725795E+04  0.15294330000E+03 0.  0.
    8880022    1    1    2    0    0  0.74051397507E+03  0.60605696739E+03 -0.18662596985E+03  0.98685708218E+03  0.15294330000E+03 0.  0.
<mgrwt>
<rscale>  0 0.96904987E+03</rscale>
<asrwt>0</asrwt>
<pdfrwt beam="1">  1        2 0.22987922E+00 0.96904987E+03</pdfrwt>
<pdfrwt beam="2">  1       -2 0.12327919E+00 0.96904987E+03</pdfrwt>
<totfact> 0.63313257E+00</totfact>
</mgrwt>
</event>
<event>
 4    1  0.1033139E-008  0.9371887E+03  0.7818608E-02  0.9380252E-01
          2   -1    0    0  501    0  0.00000000000E+00  0.00000000000E+00  0.25987492094E+04  0.25987492094E+04  0.25500000000E-02 0. -1.
         -2   -1    0    0    0  501 -0.00000000000E+00 -0.00000000000E+00 -0.47616681685E+03  0.47616681686E+03  0.25500000000E-02 0.  1.
    8880022    1    1    2    0    0  0.92450742498E+03 -0.14729216490E+02  0.23304657251E+03  0.96572940653E+03  0.15294330000E+03 0.  0.
    8880022    1    1    2    0    0 -0.92450742498E+03  0.14729216490E+02  0.18895358201E+04  0.21091866198E+04  0.15294330000E+03 0.  0.
<mgrwt>
<rscale>  0 0.93718866E+03</rscale>
<asrwt>0</asrwt>
<pdfrwt beam="1">  1        2 0.39980757E+00 0.93718866E+03</pdfrwt>
<pdfrwt beam="2">  1       -2 0.73256433E-01 0.93718866E+03</pdfrwt>
<totfact> 0.52387464E+00</totfact>
</mgrwt>
</event>
<event>
 4    1  0.1033139E-008  0.6888990E+03  0.7818608E-02  0.9736407E-01
          2   -1    0    0  501    0  0.00000000000E+00  0.00000000000E+00  0.13526913299E+04  0.13526913299E+04  0.25500000000E-02 0. -1.
         -2   -1    0    0    0  501 -0.00000000000E+00 -0.00000000000E+00 -0.71407045886E+03  0.71407045887E+03  0.25500000000E-02 0.  1.
    8880022    1    1    2    0    0 -0.62288310508E+03  0.25140953415E+03 -0.41770987855E+03  0.80564465623E+03  0.15294330000E+03 0.  0.
    8880022    1    1    2    0    0  0.62288310508E+03 -0.25140953415E+03  0.10563307496E+04  0.12611171326E+04  0.15294330000E+03 0.  0.
<mgrwt>
<rscale>  0 0.68889895E+03</rscale>
<asrwt>0</asrwt>
<pdfrwt beam="1">  1        2 0.20810635E+00 0.68889895E+03</pdfrwt>
<pdfrwt beam="2">  1       -2 0.10985700E+00 0.68889895E+03</pdfrwt>
<totfact> 0.10465472E+01</totfact>
</mgrwt>
</event>
<event>
 4    1  0.1033139E-008  0.5067025E+03  0.7818608E-02  0.1012044E+00
         -2   -1    0    0    0  501 -0.00000000000E+00  0.00000000000E+00  0.12250256245E+04  0.12250256245E+04  0.25500000000E-02 0.  1.
          2   -1    0    0  501    0  0.00000000000E+00 -0.00000000000E+00 -0.22531546096E+04  0.22531546096E+04  0.25500000000E-02 0. -1.
    8880022    1    1    2    0    0 -0.45914880945E+03  0.15012695974E+03 -0.21702968844E+04  0.22286623685E+04  0.15294330000E+03 0.  0.
    8880022    1    1    2    0    0  0.45914880945E+03 -0.15012695974E+03  0.11421678993E+04  0.12495178656E+04  0.15294330000E+03 0.  0.
<mgrwt>
<rscale>  0 0.50670246E+03</rscale>
<asrwt>0</asrwt>
<pdfrwt beam="1">  1        2 0.34663917E+00 0.50670246E+03</pdfrwt>
<pdfrwt beam="2">  1       -2 0.18846548E+00 0.50670246E+03</pdfrwt>
<totfact> 0.85566188E-01</totfact>
</mgrwt>
</event>
<event>
 4    1  0.1033139E-008  0.1694558E+04  0.7818608E-02  0.8764474E-01
          2   -1    0    0  501    0  0.00000000000E+00  0.00000000000E+00  0.32527058431E+04  0.32527058431E+04  0.25500000000E-02 0. -1.
         -2   -1    0    0    0  501 -0.00000000000E+00 -0.00000000000E+00 -0.93920034608E+03  0.93920034609E+03  0.25500000000E-02 0.  1.
    8880022    1    1    2    0    0 -0.13562028975E+04  0.10044147952E+04  0.64318473681E+03  0.18125158313E+04  0.15294330000E+03 0.  0.
    8880022    1    1    2    0    0  0.13562028975E+04 -0.10044147952E+04  0.16703207602E+04  0.23793903578E+04  0.15294330000E+03 0.  0.
<mgrwt>
<rscale>  0 0.16945581E+04</rscale>
<asrwt>0</asrwt>
<pdfrwt beam="1">  1        2 0.50041628E+00 0.16945581E+04</pdfrwt>
<pdfrwt beam="2">  1       -2 0.14449236E+00 0.16945581E+04</pdfrwt>
<totfact> 0.36852119E-01</totfact>
</mgrwt>
</event>
<event>
 4    1  0.1033139E-008  0.8303946E+03  0.7818608E-02  0.9517035E-01
         -2   -1    0    0    0  501 -0.00000000000E+00  0.00000000000E+00  0.87550018545E+03  0.87550018545E+03  0.25500000000E-02 0.  1.
          2   -1    0    0  501    0  0.00000000000E+00 -0.00000000000E+00 -0.16337372220E+04  0.16337372220E+04  0.25500000000E-02 0. -1.
    8880022    1    1    2    0    0  0.47201763230E+03  0.66585499084E+03  0.52377756004E+03  0.98178312241E+03  0.15294330000E+03 0.  0.
    8880022    1    1    2    0    0 -0.47201763230E+03 -0.66585499084E+03 -0.12820145966E+04  0.15274542851E+04  0.15294330000E+03 0.  0.
<mgrwt>
<rscale>  0 0.83039459E+03</rscale>
<asrwt>0</asrwt>
<pdfrwt beam="1">  1        2 0.25134419E+00 0.83039459E+03</pdfrwt>
<pdfrwt beam="2">  1       -2 0.13469234E+00 0.83039459E+03</pdfrwt>
<totfact> 0.43055166E+00</totfact>
</mgrwt>
</event>
<event>
 4    1  0.1033139E-008  0.8864266E+03  0.7818608E-02  0.9442710E-01
          2   -1    0    0  501    0  0.00000000000E+00  0.00000000000E+00  0.13927215209E+04  0.13927215209E+04  0.25500000000E-02 0. -1.
         -2   -1    0    0    0  501 -0.00000000000E+00 -0.00000000000E+00 -0.71429650291E+03  0.71429650291E+03  0.25500000000E-02 0.  1.
    8880022    1    1    2    0    0  0.82078301604E+03  0.29778462669E+03  0.82216731661E+03  0.12090124866E+04  0.15294330000E+03 0.  0.
    8880022    1    1    2    0    0 -0.82078301604E+03 -0.29778462669E+03 -0.14374229866E+03  0.89800553715E+03  0.15294330000E+03 0.  0.
<mgrwt>
<rscale>  0 0.88642659E+03</rscale>
<asrwt>0</asrwt>
<pdfrwt beam="1">  1        2 0.21426485E+00 0.88642659E+03</pdfrwt>
<pdfrwt beam="2">  1       -2 0.10989177E+00 0.88642659E+03</pdfrwt>
<totfact> 0.96798072E+00</totfact>
</mgrwt>
</event>
<event>
 4    1  0.1033139E-008  0.3450983E+03  0.7818608E-02  0.1064645E+00
         -2   -1    0    0    0  501 -0.00000000000E+00  0.00000000000E+00  0.25429211015E+03  0.25429211017E+03  0.25500000000E-02 0.  1.
          2   -1    0    0  501    0  0.00000000000E+00 -0.00000000000E+00 -0.10648232856E+04  0.10648232856E+04  0.25500000000E-02 0. -1.
    8880022    1    1    2    0    0  0.23269941817E+03 -0.20384344745E+03 -0.89891260577E+03  0.96287937776E+03  0.15294330000E+03 0.  0.
    8880022    1    1    2    0    0 -0.23269941817E+03  0.20384344745E+03  0.88381430321E+02  0.35623601801E+03  0.15294330000E+03 0.  0.
<mgrwt>
<rscale>  0 0.34509828E+03</rscale>
<asrwt>0</asrwt>
<pdfrwt beam="1">  1        2 0.16381896E+00 0.34509828E+03</pdfrwt>
<pdfrwt beam="2">  1       -2 0.39121864E-01 0.34509828E+03</pdfrwt>
<totfact> 0.14897951E+02</totfact>
</mgrwt>
</event>
<event>
 4    1  0.1033139E-008  0.1155654E+04  0.7818608E-02  0.9152583E-01
          2   -1    0    0  501    0  0.00000000000E+00  0.00000000000E+00  0.29248448008E+04  0.29248448008E+04  0.25500000000E-02 0. -1.
         -2   -1    0    0    0  501 -0.00000000000E+00 -0.00000000000E+00 -0.95993443446E+03  0.95993443447E+03  0.25500000000E-02 0.  1.
    8880022    1    1    2    0    0  0.11341713317E+04 -0.16062479968E+03 -0.42403319182E+03  0.12309917696E+04  0.15294330000E+03 0.  0.
    8880022    1    1    2    0    0 -0.11341713317E+04  0.16062479968E+03  0.23889435582E+04  0.26537874657E+04  0.15294330000E+03 0.  0.
<mgrwt>
<rscale>  0 0.11556542E+04</rscale>
<asrwt>0</asrwt>
<pdfrwt beam="1">  1        2 0.44997612E+00 0.11556542E+04</pdfrwt>
<pdfrwt beam="2">  1       -2 0.14768222E+00 0.11556542E+04</pdfrwt>
<totfact> 0.59958467E-01</totfact>
</mgrwt>
</event>
<event>
 4    1  0.1033139E-008  0.9135448E+03  0.7818608E-02  0.9408806E-01
          2   -1    0    0  501    0  0.00000000000E+00  0.00000000000E+00  0.30426320095E+04  0.30426320095E+04  0.25500000000E-02 0. -1.
         -2   -1    0    0    0  501 -0.00000000000E+00 -0.00000000000E+00 -0.40477976689E+03  0.40477976690E+03  0.25500000000E-02 0.  1.
    8880022    1    1    2    0    0 -0.15296751242E+02  0.90052124123E+03  0.22976082505E+04  0.24725630067E+04  0.15294330000E+03 0.  0.
    8880022    1    1    2    0    0  0.15296751242E+02 -0.90052124123E+03  0.34024399207E+03  0.97484876963E+03  0.15294330000E+03 0.  0.
<mgrwt>
<rscale>  0 0.91354483E+03</rscale>
<asrwt>0</asrwt>
<pdfrwt beam="1">  1        2 0.46809723E+00 0.91354483E+03</pdfrwt>
<pdfrwt beam="2">  1       -2 0.62273811E-01 0.91354483E+03</pdfrwt>
<totfact> 0.40630337E+00</totfact>
</mgrwt>
</event>
<event>
 4    1  0.1033139E-008  0.9071755E+03  0.7818608E-02  0.9416656E-01
         -2   -1    0    0    0  501 -0.00000000000E+00  0.00000000000E+00  0.38385625581E+03  0.38385625582E+03  0.25500000000E-02 0.  1.
          2   -1    0    0  501    0  0.00000000000E+00 -0.00000000000E+00 -0.29636465688E+04  0.29636465688E+04  0.25500000000E-02 0. -1.
    8880022    1    1    2    0    0  0.43863577027E+03 -0.77921396516E+03 -0.21701433749E+04  0.23521244999E+04  0.15294330000E+03 0.  0.
    8880022    1    1    2    0    0 -0.43863577027E+03  0.77921396516E+03 -0.40964693815E+03  0.99537832477E+03  0.15294330000E+03 0.  0.
<mgrwt>
<rscale>  0 0.90717550E+03</rscale>
<asrwt>0</asrwt>
<pdfrwt beam="1">  1        2 0.45594561E+00 0.90717550E+03</pdfrwt>
<pdfrwt beam="2">  1       -2 0.59054811E-01 0.90717550E+03</pdfrwt>
<totfact> 0.50913203E+00</totfact>
</mgrwt>
</event>
<event>
 4    1  0.1033139E-008  0.6094999E+03  0.7818608E-02  0.9885890E-01
         -2   -1    0    0    0  501 -0.00000000000E+00  0.00000000000E+00  0.11257857863E+04  0.11257857863E+04  0.25500000000E-02 0.  1.
          2   -1    0    0  501    0  0.00000000000E+00 -0.00000000000E+00 -0.20756349933E+04  0.20756349933E+04  0.25500000000E-02 0. -1.
    8880022    1    1    2    0    0 -0.19924480840E+03  0.55533772509E+03 -0.19428909864E+04  0.20362503580E+04  0.15294330000E+03 0. -1.
    8880022    1    1    2    0    0  0.19924480840E+03 -0.55533772509E+03  0.99304177936E+03  0.11651704215E+04  0.15294330000E+03 0.  0.
<mgrwt>
<rscale>  0 0.60949991E+03</rscale>
<asrwt>0</asrwt>
<pdfrwt beam="1">  1        2 0.31932846E+00 0.60949991E+03</pdfrwt>
<pdfrwt beam="2">  1       -2 0.17319781E+00 0.60949991E+03</pdfrwt>
<totfact> 0.13186981E+00</totfact>
</mgrwt>
</event>
<event>
 4    1  0.1033139E-008  0.1754540E+04  0.7818608E-02  0.8730855E-01
          2   -1    0    0  501    0  0.00000000000E+00  0.00000000000E+00  0.23134598659E+04  0.23134598659E+04  0.25500000000E-02 0. -1.
         -2   -1    0    0    0  501 -0.00000000000E+00 -0.00000000000E+00 -0.14606433448E+04  0.14606433448E+04  0.25500000000E-02 0.  1.
    8880022    1    1    2    0    0  0.16736194088E+04  0.50399961717E+03 -0.13654129991E+03  0.17598445157E+04  0.15294330000E+03 0.  0.
    8880022    1    1    2    0    0 -0.16736194088E+04 -0.50399961717E+03  0.98935782096E+03  0.20142586951E+04  0.15294330000E+03 0.  0.
<mgrwt>
<rscale>  0 0.17545396E+04</rscale>
<asrwt>0</asrwt>
<pdfrwt beam="1">  1        2 0.35591690E+00 0.17545396E+04</pdfrwt>
<pdfrwt beam="2">  1       -2 0.22471436E+00 0.17545396E+04</pdfrwt>
<totfact> 0.37559230E-01</totfact>
</mgrwt>
</event>
<event>
 4    1  0.1033139E-008  0.8286430E+03  0.7818608E-02  0.9519459E-01
         -2   -1    0    0    0  501 -0.00000000000E+00  0.00000000000E+00  0.24995644227E+04  0.24995644227E+04  0.25500000000E-02 0.  1.
          2   -1    0    0  501    0  0.00000000000E+00 -0.00000000000E+00 -0.43981183950E+03  0.43981183951E+03  0.25500000000E-02 0. -1.
    8880022    1    1    2    0    0  0.40457883839E+02  0.81340074396E+03  0.12940290159E+03  0.83868610016E+03  0.15294330000E+03 0.  0.
    8880022    1    1    2    0    0 -0.40457883839E+02 -0.81340074396E+03  0.19303496816E+04  0.21006901620E+04  0.15294330000E+03 0.  0.
<mgrwt>
<rscale>  0 0.82864303E+03</rscale>
<asrwt>0</asrwt>
<pdfrwt beam="1">  1        2 0.67663361E-01 0.82864303E+03</pdfrwt>
<pdfrwt beam="2">  1       -2 0.38454837E+00 0.82864303E+03</pdfrwt>
<totfact> 0.69891684E-01</totfact>
</mgrwt>
</event>
<event>
 4    1  0.1033139E-008  0.4439673E+03  0.7818608E-02  0.1029536E+00
         -2   -1    0    0    0  501 -0.00000000000E+00  0.00000000000E+00  0.12329093766E+04  0.12329093766E+04  0.25500000000E-02 0.  1.
          2   -1    0    0  501    0  0.00000000000E+00 -0.00000000000E+00 -0.58221234972E+03  0.58221234972E+03  0.25500000000E-02 0. -1.
    8880022    1    1    2    0    0  0.39272240628E+03 -0.13958649693E+03  0.10983256633E+04  0.11846629032E+04  0.15294330000E+03 0.  0.
    8880022    1    1    2    0    0 -0.39272240628E+03  0.13958649693E+03 -0.44762863641E+03  0.63045882313E+03  0.15294330000E+03 0.  0.
<mgrwt>
<rscale>  0 0.44396726E+03</rscale>
<asrwt>0</asrwt>
<pdfrwt beam="1">  1        2 0.89571132E-01 0.44396726E+03</pdfrwt>
<pdfrwt beam="2">  1       -2 0.18967836E+00 0.44396726E+03</pdfrwt>
<totfact> 0.85320167E+00</totfact>
</mgrwt>
</event>
<event>
 4    1  0.1033139E-008  0.6204736E+03  0.7818608E-02  0.9863817E-01
          2   -1    0    0  501    0  0.00000000000E+00  0.00000000000E+00  0.86710066290E+03  0.86710066291E+03  0.25500000000E-02 0. -1.
         -2   -1    0    0    0  501 -0.00000000000E+00 -0.00000000000E+00 -0.92479699174E+03  0.92479699174E+03  0.25500000000E-02 0.  1.
    8880022    1    1    2    0    0  0.55258220983E+03  0.23716809290E+03 -0.67486464953E+03  0.91674955747E+03  0.15294330000E+03 0.  0.
    8880022    1    1    2    0    0 -0.55258220983E+03 -0.23716809290E+03  0.61716832070E+03  0.87514809718E+03  0.15294330000E+03 0.  0.
<mgrwt>
<rscale>  0 0.62047357E+03</rscale>
<asrwt>0</asrwt>
<pdfrwt beam="1">  1        2 0.13340010E+00 0.62047357E+03</pdfrwt>
<pdfrwt beam="2">  1       -2 0.14227646E+00 0.62047357E+03</pdfrwt>
<totfact> 0.10984906E+01</totfact>
</mgrwt>
</event>
<event>
 4    1  0.1033139E-008  0.8490713E+03  0.7818608E-02  0.9491584E-01
          2   -1    0    0  501    0  0.00000000000E+00  0.00000000000E+00  0.18912647863E+04  0.18912647863E+04  0.25500000000E-02 0. -1.
         -2   -1    0    0    0  501 -0.00000000000E+00 -0.00000000000E+00 -0.12283596430E+04  0.12283596430E+04  0.25500000000E-02 0.  1.
    8880022    1    1    2    0    0  0.83352618815E+03 -0.52578793744E+02 -0.96392382003E+03  0.12845509798E+04  0.15294330000E+03 0.  0.
    8880022    1    1    2    0    0 -0.83352618815E+03  0.52578793744E+02  0.16268289634E+04  0.18350734495E+04  0.15294330000E+03 0.  0.
<mgrwt>
<rscale>  0 0.84907131E+03</rscale>
<asrwt>0</asrwt>
<pdfrwt beam="1">  1        2 0.29096381E+00 0.84907131E+03</pdfrwt>
<pdfrwt beam="2">  1       -2 0.18897841E+00 0.84907131E+03</pdfrwt>
<totfact> 0.12341786E+00</totfact>
</mgrwt>
</event>
<event>
 4    1  0.1033139E-008  0.1200401E+04  0.7818608E-02  0.9112505E-01
         -2   -1    0    0    0  501 -0.00000000000E+00  0.00000000000E+00  0.52488501622E+03  0.52488501623E+03  0.25500000000E-02 0.  1.
          2   -1    0    0  501    0  0.00000000000E+00 -0.00000000000E+00 -0.34557991773E+04  0.34557991773E+04  0.25500000000E-02 0. -1.
    8880022    1    1    2    0    0 -0.82532043541E+03 -0.85814792729E+03 -0.23679364970E+04  0.26548232697E+04  0.15294330000E+03 0.  0.
    8880022    1    1    2    0    0  0.82532043541E+03  0.85814792729E+03 -0.56297766407E+03  0.13258609239E+04  0.15294330000E+03 0.  0.
<mgrwt>
<rscale>  0 0.12004013E+04</rscale>
<asrwt>0</asrwt>
<pdfrwt beam="1">  1        2 0.53166140E+00 0.12004013E+04</pdfrwt>
<pdfrwt beam="2">  1       -2 0.80751543E-01 0.12004013E+04</pdfrwt>
<totfact> 0.11839244E+00</totfact>
</mgrwt>
</event>
<event>
 4    1  0.1033139E-008  0.6331887E+03  0.7818608E-02  0.9838846E-01
          2   -1    0    0  501    0  0.00000000000E+00  0.00000000000E+00  0.87673988210E+03  0.87673988210E+03  0.25500000000E-02 0. -1.
         -2   -1    0    0    0  501 -0.00000000000E+00 -0.00000000000E+00 -0.17446938117E+04  0.17446938117E+04  0.25500000000E-02 0.  1.
    8880022    1    1    2    0    0  0.36509921126E+02 -0.61335418506E+03  0.69193899005E+03  0.93792726244E+03  0.15294330000E+03 0.  0.
    8880022    1    1    2    0    0 -0.36509921126E+02  0.61335418506E+03 -0.15598929197E+04  0.16835064314E+04  0.15294330000E+03 0.  0.
<mgrwt>
<rscale>  0 0.63318874E+03</rscale>
<asrwt>0</asrwt>
<pdfrwt beam="1">  1        2 0.13488306E+00 0.63318874E+03</pdfrwt>
<pdfrwt beam="2">  1       -2 0.26841443E+00 0.63318874E+03</pdfrwt>
<totfact> 0.15974571E+00</totfact>
</mgrwt>
</event>
<event>
 4    1  0.1118451E-008  0.1622266E+04  0.7818608E-02  0.8806985E-01
          2   -1    0    0  501    0  0.00000000000E+00  0.00000000000E+00  0.25139250550E+04  0.25139250550E+04  0.25500000000E-02 0. -1.
         -2   -1    0    0    0  501 -0.00000000000E+00 -0.00000000000E+00 -0.17687393017E+04  0.17687393017E+04  0.25500000000E-02 0.  1.
    8880022    1    1    2    0    0  0.19300631566E+03 -0.16034660302E+04  0.17405805163E+04  0.23793627161E+04  0.15294330000E+03 0.  0.
    8880022    1    1    2    0    0 -0.19300631566E+03  0.16034660302E+04 -0.99539476301E+03  0.19033016406E+04  0.15294330000E+03 0.  0.
<mgrwt>
<rscale>  0 0.16222658E+04</rscale>
<asrwt>0</asrwt>
<pdfrwt beam="1">  1        2 0.38675770E+00 0.16222658E+04</pdfrwt>
<pdfrwt beam="2">  1       -2 0.27211374E+00 0.16222658E+04</pdfrwt>
<totfact> 0.14854320E-01</totfact>
</mgrwt>
</event>
<event>
 4    1  0.1033139E-008  0.8311648E+03  0.7818608E-02  0.9515972E-01
          2   -1    0    0  501    0  0.00000000000E+00  0.00000000000E+00  0.32017995561E+04  0.32017995561E+04  0.25500000000E-02 0. -1.
         -2   -1    0    0    0  501 -0.00000000000E+00 -0.00000000000E+00 -0.51919225012E+03  0.51919225012E+03  0.25500000000E-02 0.  1.
    8880022    1    1    2    0    0 -0.75007849064E+03  0.32376763535E+03 -0.80999660908E+02  0.83510228230E+03  0.15294330000E+03 0.  0.
    8880022    1    1    2    0    0  0.75007849064E+03 -0.32376763535E+03  0.27636069669E+04  0.28858895239E+04  0.15294330000E+03 0.  0.
<mgrwt>
<rscale>  0 0.83116477E+03</rscale>
<asrwt>0</asrwt>
<pdfrwt beam="1">  1        2 0.49258455E+00 0.83116477E+03</pdfrwt>
<pdfrwt beam="2">  1       -2 0.79875730E-01 0.83116477E+03</pdfrwt>
<totfact> 0.18970452E+00</totfact>
</mgrwt>
</event>
<event>
 4    1  0.1033139E-008  0.3762596E+03  0.7818608E-02  0.1052325E+00
         -2   -1    0    0    0  501 -0.00000000000E+00  0.00000000000E+00  0.31646956977E+03  0.31646956978E+03  0.25500000000E-02 0.  1.
          2   -1    0    0  501    0  0.00000000000E+00 -0.00000000000E+00 -0.89569438826E+03  0.89569438826E+03  0.25500000000E-02 0. -1.
    8880022    1    1    2    0    0  0.81008896611E+02 -0.33409155037E+03  0.13919221658E+03  0.40118042267E+03  0.15294330000E+03 0.  0.
    8880022    1    1    2    0    0 -0.81008896611E+02  0.33409155037E+03 -0.71841703507E+03  0.81098353538E+03  0.15294330000E+03 0. -1.
<mgrwt>
<rscale>  0 0.37625956E+03</rscale>
<asrwt>0</asrwt>
<pdfrwt beam="1">  1        2 0.13779914E+00 0.37625956E+03</pdfrwt>
<pdfrwt beam="2">  1       -2 0.48687627E-01 0.37625956E+03</pdfrwt>
<totfact> 0.12344873E+02</totfact>
</mgrwt>
</event>
<event>
 4    1  0.1033139E-008  0.1556706E+04  0.7818608E-02  0.8847595E-01
         -2   -1    0    0    0  501 -0.00000000000E+00  0.00000000000E+00  0.22870384984E+04  0.22870384984E+04  0.25500000000E-02 0.  1.
          2   -1    0    0  501    0  0.00000000000E+00 -0.00000000000E+00 -0.18710568660E+04  0.18710568660E+04  0.25500000000E-02 0. -1.
    8880022    1    1    2    0    0  0.15402716280E+04 -0.16584962097E+03 -0.11611717855E+04  0.19420747548E+04  0.15294330000E+03 0.  0.
    8880022    1    1    2    0    0 -0.15402716280E+04  0.16584962097E+03  0.15771534179E+04  0.22160206095E+04  0.15294330000E+03 0.  0.
<mgrwt>
<rscale>  0 0.15567063E+04</rscale>
<asrwt>0</asrwt>
<pdfrwt beam="1">  1        2 0.28785490E+00 0.15567063E+04</pdfrwt>
<pdfrwt beam="2">  1       -2 0.35185207E+00 0.15567063E+04</pdfrwt>
<totfact> 0.11135776E-01</totfact>
</mgrwt>
</event>
<event>
 4    1  0.1033139E-008  0.5731128E+03  0.7818608E-02  0.9962814E-01
          2   -1    0    0  501    0  0.00000000000E+00  0.00000000000E+00  0.88320245241E+03  0.88320245242E+03  0.25500000000E-02 0. -1.
         -2   -1    0    0    0  501 -0.00000000000E+00 -0.00000000000E+00 -0.43051481089E+03  0.43051481089E+03  0.25500000000E-02 0.  1.
    8880022    1    1    2    0    0  0.14030301695E+03  0.53421129930E+03  0.46872629766E+03  0.74038006726E+03  0.15294330000E+03 0.  0.
    8880022    1    1    2    0    0 -0.14030301695E+03 -0.53421129930E+03 -0.16038656134E+02  0.57333719605E+03  0.15294330000E+03 0.  0.
<mgrwt>
<rscale>  0 0.57311282E+03</rscale>
<asrwt>0</asrwt>
<pdfrwt beam="1">  1        2 0.13587730E+00 0.57311282E+03</pdfrwt>
<pdfrwt beam="2">  1       -2 0.66233049E-01 0.57311282E+03</pdfrwt>
<totfact> 0.65000243E+01</totfact>
</mgrwt>
</event>
<event>
 4    1  0.1033139E-008  0.1645295E+04  0.7818608E-02  0.8793195E-01
          2   -1    0    0  501    0  0.00000000000E+00  0.00000000000E+00  0.15962607450E+04  0.15962607450E+04  0.25500000000E-02 0. -1.
         -2   -1    0    0    0  501 -0.00000000000E+00 -0.00000000000E+00 -0.21408197649E+04  0.21408197649E+04  0.25500000000E-02 0.  1.
    8880022    1    1    2    0    0 -0.45380022431E+03 -0.15740611148E+04  0.57961343737E+03  0.17444043186E+04  0.15294330000E+03 0.  0.
    8880022    1    1    2    0    0  0.45380022431E+03  0.15740611148E+04 -0.11241724573E+04  0.19926761914E+04  0.15294330000E+03 0.  0.
<mgrwt>
<rscale>  0 0.16452947E+04</rscale>
<asrwt>0</asrwt>
<pdfrwt beam="1">  1        2 0.24557858E+00 0.16452947E+04</pdfrwt>
<pdfrwt beam="2">  1       -2 0.32935689E+00 0.16452947E+04</pdfrwt>
<totfact> 0.21738486E-01</totfact>
</mgrwt>
</event>
<event>
 4    1  0.1033139E-008  0.1540240E+04  0.7818608E-02  0.8858126E-01
          2   -1    0    0  501    0  0.00000000000E+00  0.00000000000E+00  0.35657651046E+04  0.35657651046E+04  0.25500000000E-02 0. -1.
         -2   -1    0    0    0  501 -0.00000000000E+00 -0.00000000000E+00 -0.11953525696E+04  0.11953525696E+04  0.25500000000E-02 0.  1.
    8880022    1    1    2    0    0  0.15214162578E+04 -0.18504339438E+03 -0.40000144016E+03  0.15913331808E+04  0.15294330000E+03 0.  0.
    8880022    1    1    2    0    0 -0.15214162578E+04  0.18504339438E+03  0.27704139752E+04  0.31697844934E+04  0.15294330000E+03 0.  0.
<mgrwt>
<rscale>  0 0.15402403E+04</rscale>
<asrwt>0</asrwt>
<pdfrwt beam="1">  1        2 0.54857923E+00 0.15402403E+04</pdfrwt>
<pdfrwt beam="2">  1       -2 0.18390040E+00 0.15402403E+04</pdfrwt>
<totfact> 0.11766839E-01</totfact>
</mgrwt>
</event>
<event>
 4    1  0.1033139E-008  0.1950878E+04  0.7818608E-02  0.8629937E-01
          2   -1    0    0  501    0  0.00000000000E+00  0.00000000000E+00  0.19658985289E+04  0.19658985289E+04  0.25500000000E-02 0. -1.
         -2   -1    0    0    0  501 -0.00000000000E+00 -0.00000000000E+00 -0.21819948605E+04  0.21819948605E+04  0.25500000000E-02 0.  1.
    8880022    1    1    2    0    0  0.17091082279E+04  0.92816101188E+03 -0.80444700069E+03  0.21102275774E+04  0.15294330000E+03 0.  0.
    8880022    1    1    2    0    0 -0.17091082279E+04 -0.92816101188E+03  0.58835066903E+03  0.20376658120E+04  0.15294330000E+03 0.  0.
<mgrwt>
<rscale>  0 0.19508781E+04</rscale>
<asrwt>0</asrwt>
<pdfrwt beam="1">  1        2 0.30244593E+00 0.19508781E+04</pdfrwt>
<pdfrwt beam="2">  1       -2 0.33569152E+00 0.19508781E+04</pdfrwt>
<totfact> 0.11934650E-01</totfact>
</mgrwt>
</event>
<event>
 4    1  0.1033139E-008  0.8340799E+03  0.7818608E-02  0.9511957E-01
          2   -1    0    0  501    0  0.00000000000E+00  0.00000000000E+00  0.11953288981E+04  0.11953288981E+04  0.25500000000E-02 0. -1.
         -2   -1    0    0    0  501 -0.00000000000E+00 -0.00000000000E+00 -0.62349847639E+03  0.62349847640E+03  0.25500000000E-02 0.  1.
    8880022    1    1    2    0    0 -0.78907448584E+03 -0.22284315705E+03  0.51316569695E+02  0.83565702305E+03  0.15294330000E+03 0.  0.
    8880022    1    1    2    0    0  0.78907448584E+03  0.22284315705E+03  0.52051385204E+03  0.98317035147E+03  0.15294330000E+03 0.  0.
<mgrwt>
<rscale>  0 0.83407989E+03</rscale>
<asrwt>0</asrwt>
<pdfrwt beam="1">  1        2 0.18389675E+00 0.83407989E+03</pdfrwt>
<pdfrwt beam="2">  1       -2 0.95922843E-01 0.83407989E+03</pdfrwt>
<totfact> 0.17542039E+01</totfact>
</mgrwt>
</event>
<event>
 4    1  0.1033139E-008  0.4044267E+03  0.7818608E-02  0.1042258E+00
         -2   -1    0    0    0  501 -0.00000000000E+00  0.00000000000E+00  0.72233187313E+03  0.72233187314E+03  0.25500000000E-02 0.  1.
          2   -1    0    0  501    0  0.00000000000E+00 -0.00000000000E+00 -0.32883049140E+03  0.32883049141E+03  0.25500000000E-02 0. -1.
    8880022    1    1    2    0    0  0.37129628408E+03 -0.48045246372E+02  0.49003918843E+03  0.63537338272E+03  0.15294330000E+03 0.  0.
    8880022    1    1    2    0    0 -0.37129628408E+03  0.48045246372E+02 -0.96537806693E+02  0.41578898182E+03  0.15294330000E+03 0.  0.
<mgrwt>
<rscale>  0 0.40442667E+03</rscale>
<asrwt>0</asrwt>
<pdfrwt beam="1">  1        2 0.50589307E-01 0.40442667E+03</pdfrwt>
<pdfrwt beam="2">  1       -2 0.11112798E+00 0.40442667E+03</pdfrwt>
<totfact> 0.65772025E+01</totfact>
</mgrwt>
</event>
<event>
 4    1  0.1033139E-008  0.6442205E+03  0.7818608E-02  0.9817685E-01
         -2   -1    0    0    0  501 -0.00000000000E+00  0.00000000000E+00  0.32252559025E+03  0.32252559026E+03  0.25500000000E-02 0.  1.
          2   -1    0    0  501    0  0.00000000000E+00 -0.00000000000E+00 -0.34563208023E+04  0.34563208023E+04  0.25500000000E-02 0. -1.
    8880022    1    1    2    0    0  0.61237385645E+03 -0.12894458276E+03 -0.30638429339E+04  0.31308391243E+04  0.15294330000E+03 0.  0.
    8880022    1    1    2    0    0 -0.61237385645E+03  0.12894458276E+03 -0.69952278117E+02  0.64800726825E+03  0.15294330000E+03 0.  0.
<mgrwt>
<rscale>  0 0.64422054E+03</rscale>
<asrwt>0</asrwt>
<pdfrwt beam="1">  1        2 0.53174163E+00 0.64422054E+03</pdfrwt>
<pdfrwt beam="2">  1       -2 0.49619324E-01 0.64422054E+03</pdfrwt>
<totfact> 0.37217218E+00</totfact>
</mgrwt>
</event>
<event>
 4    1  0.1033139E-008  0.4602066E+03  0.7818608E-02  0.1024721E+00
          2   -1    0    0  501    0  0.00000000000E+00  0.00000000000E+00  0.32055824195E+04  0.32055824195E+04  0.25500000000E-02 0. -1.
         -2   -1    0    0    0  501 -0.00000000000E+00 -0.00000000000E+00 -0.35327036978E+03  0.35327036979E+03  0.25500000000E-02 0.  1.
    8880022    1    1    2    0    0  0.43377914726E+03 -0.15300953695E+02 -0.17826948421E+03  0.49352824619E+03  0.15294330000E+03 0.  0.
    8880022    1    1    2    0    0 -0.43377914726E+03  0.15300953695E+02  0.30305815340E+04  0.30653245431E+04  0.15294330000E+03 0.  0.
<mgrwt>
<rscale>  0 0.46020661E+03</rscale>
<asrwt>0</asrwt>
<pdfrwt beam="1">  1        2 0.49316652E+00 0.46020661E+03</pdfrwt>
<pdfrwt beam="2">  1       -2 0.54349288E-01 0.46020661E+03</pdfrwt>
<totfact> 0.47423798E+00</totfact>
</mgrwt>
</event>
<event>
 4    1  0.1033139E-008  0.6472343E+03  0.7818608E-02  0.9811983E-01
         -2   -1    0    0    0  501 -0.00000000000E+00  0.00000000000E+00  0.24869984498E+03  0.24869984499E+03  0.25500000000E-02 0.  1.
          2   -1    0    0  501    0  0.00000000000E+00 -0.00000000000E+00 -0.34546178435E+04  0.34546178435E+04  0.25500000000E-02 0. -1.
    8880022    1    1    2    0    0  0.60134344523E+03 -0.18413766999E+03 -0.27747889633E+03  0.70420651200E+03  0.15294330000E+03 0.  0.
    8880022    1    1    2    0    0 -0.60134344523E+03  0.18413766999E+03 -0.29284391022E+04  0.29991111765E+04  0.15294330000E+03 0. -1.
<mgrwt>
<rscale>  0 0.64723433E+03</rscale>
<asrwt>0</asrwt>
<pdfrwt beam="1">  1        2 0.53147964E+00 0.64723433E+03</pdfrwt>
<pdfrwt beam="2">  1       -2 0.38261517E-01 0.64723433E+03</pdfrwt>
<totfact> 0.62349944E+00</totfact>
</mgrwt>
</event>
<event>
 4    1  0.1033139E-008  0.5640617E+03  0.7818608E-02  0.9982906E-01
          2   -1    0    0  501    0  0.00000000000E+00  0.00000000000E+00  0.12261036331E+04  0.12261036331E+04  0.25500000000E-02 0. -1.
         -2   -1    0    0    0  501 -0.00000000000E+00 -0.00000000000E+00 -0.92691587984E+03  0.92691587984E+03  0.25500000000E-02 0.  1.
    8880022    1    1    2    0    0 -0.53780495260E+03 -0.74429686800E+02  0.10630722665E+04  0.12034484792E+04  0.15294330000E+03 0. -1.
    8880022    1    1    2    0    0  0.53780495260E+03  0.74429686800E+02 -0.76388451329E+03  0.94957103367E+03  0.15294330000E+03 0.  0.
<mgrwt>
<rscale>  0 0.56406170E+03</rscale>
<asrwt>0</asrwt>
<pdfrwt beam="1">  1        2 0.18863133E+00 0.56406170E+03</pdfrwt>
<pdfrwt beam="2">  1       -2 0.14260244E+00 0.56406170E+03</pdfrwt>
<totfact> 0.65789823E+00</totfact>
</mgrwt>
</event>
<event>
 4    1  0.1033139E-008  0.1037457E+04  0.7818608E-02  0.9268391E-01
          2   -1    0    0  501    0  0.00000000000E+00  0.00000000000E+00  0.40213792778E+04  0.40213792778E+04  0.25500000000E-02 0. -1.
         -2   -1    0    0    0  501 -0.00000000000E+00 -0.00000000000E+00 -0.81911493959E+03  0.81911493960E+03  0.25500000000E-02 0.  1.
    8880022    1    1    2    0    0 -0.10260337646E+04 -0.13386166234E+02  0.35869839501E+04  0.37340018729E+04  0.15294330000E+03 0.  0.
    8880022    1    1    2    0    0  0.10260337646E+04  0.13386166234E+02 -0.38471961192E+03  0.11064923445E+04  0.15294330000E+03 0.  0.
<mgrwt>
<rscale>  0 0.10374566E+04</rscale>
<asrwt>0</asrwt>
<pdfrwt beam="1">  1        2 0.61867373E+00 0.10374566E+04</pdfrwt>
<pdfrwt beam="2">  1       -2 0.12601768E+00 0.10374566E+04</pdfrwt>
<totfact> 0.16088678E-01</totfact>
</mgrwt>
</event>
<event>
 4    1  0.1033139E-008  0.5058600E+03  0.7818608E-02  0.1012261E+00
         -2   -1    0    0    0  501 -0.00000000000E+00  0.00000000000E+00  0.11576152140E+04  0.11576152141E+04  0.25500000000E-02 0.  1.
          2   -1    0    0  501    0  0.00000000000E+00 -0.00000000000E+00 -0.12268533073E+04  0.12268533073E+04  0.25500000000E-02 0. -1.
    8880022    1    1    2    0    0  0.11739765010E+03 -0.46767566116E+03 -0.11141153210E+04  0.12235797211E+04  0.15294330000E+03 0.  0.
    8880022    1    1    2    0    0 -0.11739765010E+03  0.46767566116E+03  0.10448772278E+04  0.11608888002E+04  0.15294330000E+03 0.  0.
<mgrwt>
<rscale>  0 0.50586005E+03</rscale>
<asrwt>0</asrwt>
<pdfrwt beam="1">  1        2 0.18874666E+00 0.50586005E+03</pdfrwt>
<pdfrwt beam="2">  1       -2 0.17809465E+00 0.50586005E+03</pdfrwt>
<totfact> 0.36583096E+00</totfact>
</mgrwt>
</event>
<event>
 4    1  0.1033139E-008  0.1069815E+04  0.7818608E-02  0.9235122E-01
         -2   -1    0    0    0  501 -0.00000000000E+00  0.00000000000E+00  0.36612147701E+03  0.36612147702E+03  0.25500000000E-02 0.  1.
          2   -1    0    0  501    0  0.00000000000E+00 -0.00000000000E+00 -0.39405827195E+04  0.39405827195E+04  0.25500000000E-02 0. -1.
    8880022    1    1    2    0    0  0.95805302976E+03  0.45082909217E+03 -0.80819992639E+03  0.13407800909E+04  0.15294330000E+03 0.  0.
    8880022    1    1    2    0    0 -0.95805302976E+03 -0.45082909217E+03 -0.27662613161E+04  0.29659241056E+04  0.15294330000E+03 0.  0.
<mgrwt>
<rscale>  0 0.10698150E+04</rscale>
<asrwt>0</asrwt>
<pdfrwt beam="1">  1        2 0.60624347E+00 0.10698150E+04</pdfrwt>
<pdfrwt beam="2">  1       -2 0.56326384E-01 0.10698150E+04</pdfrwt>
<totfact> 0.11741689E+00</totfact>
</mgrwt>
</event>
<event>
 4    1  0.1033139E-008  0.1110305E+04  0.7818608E-02  0.9195206E-01
          2   -1    0    0  501    0  0.00000000000E+00  0.00000000000E+00  0.21890080347E+04  0.21890080347E+04  0.25500000000E-02 0. -1.
         -2   -1    0    0    0  501 -0.00000000000E+00 -0.00000000000E+00 -0.74483560022E+03  0.74483560023E+03  0.25500000000E-02 0.  1.
    8880022    1    1    2    0    0  0.28795841190E+03 -0.10613506177E+04  0.14465502493E+04  0.18235362506E+04  0.15294330000E+03 0.  0.
    8880022    1    1    2    0    0 -0.28795841190E+03  0.10613506177E+04 -0.23778147961E+01  0.11103073843E+04  0.15294330000E+03 0.  0.
<mgrwt>
<rscale>  0 0.11103048E+04</rscale>
<asrwt>0</asrwt>
<pdfrwt beam="1">  1        2 0.33677046E+00 0.11103048E+04</pdfrwt>
<pdfrwt beam="2">  1       -2 0.11459009E+00 0.11103048E+04</pdfrwt>
<totfact> 0.30793327E+00</totfact>
</mgrwt>
</event>
<event>
 4    1  0.1033139E-008  0.5865199E+03  0.7818608E-02  0.9933774E-01
         -2   -1    0    0    0  501 -0.00000000000E+00  0.00000000000E+00  0.31729822474E+04  0.31729822474E+04  0.25500000000E-02 0.  1.
          2   -1    0    0  501    0  0.00000000000E+00 -0.00000000000E+00 -0.68121004734E+03  0.68121004735E+03  0.25500000000E-02 0. -1.
    8880022    1    1    2    0    0 -0.42662041868E+03 -0.37230229779E+03  0.30129883488E+04  0.30695446609E+04  0.15294330000E+03 0.  0.
    8880022    1    1    2    0    0  0.42662041868E+03  0.37230229779E+03 -0.52121614871E+03  0.78464763382E+03  0.15294330000E+03 0. -1.
<mgrwt>
<rscale>  0 0.58651994E+03</rscale>
<asrwt>0</asrwt>
<pdfrwt beam="1">  1        2 0.10480155E+00 0.58651994E+03</pdfrwt>
<pdfrwt beam="2">  1       -2 0.48815111E+00 0.58651994E+03</pdfrwt>
<totfact> 0.91978900E-02</totfact>
</mgrwt>
</event>
<event>
 4    1  0.1033139E-008  0.1316028E+04  0.7818608E-02  0.9016950E-01
         -2   -1    0    0    0  501 -0.00000000000E+00  0.00000000000E+00  0.23603265399E+04  0.23603265399E+04  0.25500000000E-02 0.  1.
          2   -1    0    0  501    0  0.00000000000E+00 -0.00000000000E+00 -0.16311117337E+04  0.16311117337E+04  0.25500000000E-02 0. -1.
    8880022    1    1    2    0    0  0.28631111683E+03 -0.12753683416E+04  0.18448646124E+04  0.22661543534E+04  0.15294330000E+03 0.  0.
    8880022    1    1    2    0    0 -0.28631111683E+03  0.12753683416E+04 -0.11156498062E+04  0.17252839203E+04  0.15294330000E+03 0.  0.
<mgrwt>
<rscale>  0 0.13160282E+04</rscale>
<asrwt>0</asrwt>
<pdfrwt beam="1">  1        2 0.25094027E+00 0.13160282E+04</pdfrwt>
<pdfrwt beam="2">  1       -2 0.36312716E+00 0.13160282E+04</pdfrwt>
<totfact> 0.13273396E-01</totfact>
</mgrwt>
</event>
<event>
 4    1  0.1033139E-008  0.6068420E+03  0.7818608E-02  0.9891312E-01
          2   -1    0    0  501    0  0.00000000000E+00  0.00000000000E+00  0.16935178418E+04  0.16935178418E+04  0.25500000000E-02 0. -1.
         -2   -1    0    0    0  501 -0.00000000000E+00 -0.00000000000E+00 -0.58772165344E+03  0.58772165344E+03  0.25500000000E-02 0.  1.
    8880022    1    1    2    0    0  0.56553989463E+03  0.15820938981E+03 -0.35244804963E+03  0.70176695857E+03  0.15294330000E+03 0.  0.
    8880022    1    1    2    0    0 -0.56553989463E+03 -0.15820938981E+03  0.14582442380E+04  0.15794725367E+04  0.15294330000E+03 0.  0.
<mgrwt>
<rscale>  0 0.60684202E+03</rscale>
<asrwt>0</asrwt>
<pdfrwt beam="1">  1        2 0.26054121E+00 0.60684202E+03</pdfrwt>
<pdfrwt beam="2">  1       -2 0.90418715E-01 0.60684202E+03</pdfrwt>
<totfact> 0.10874367E+01</totfact>
</mgrwt>
</event>
<event>
 4    1  0.1033139E-008  0.8515523E+03  0.7818608E-02  0.9488256E-01
          2   -1    0    0  501    0  0.00000000000E+00  0.00000000000E+00  0.24312381770E+04  0.24312381770E+04  0.25500000000E-02 0. -1.
         -2   -1    0    0    0  501 -0.00000000000E+00 -0.00000000000E+00 -0.13485059278E+04  0.13485059278E+04  0.25500000000E-02 0.  1.
    8880022    1    1    2    0    0  0.74933701132E+03 -0.37449127778E+03 -0.11264626276E+04  0.14121116734E+04  0.15294330000E+03 0.  0.
    8880022    1    1    2    0    0 -0.74933701132E+03  0.37449127778E+03  0.22091948768E+04  0.23676324314E+04  0.15294330000E+03 0.  0.
<mgrwt>
<rscale>  0 0.85155230E+03</rscale>
<asrwt>0</asrwt>
<pdfrwt beam="1">  1        2 0.37403664E+00 0.85155230E+03</pdfrwt>
<pdfrwt beam="2">  1       -2 0.20746245E+00 0.85155230E+03</pdfrwt>
<totfact> 0.46909390E-01</totfact>
</mgrwt>
</event>
<event>
 4    1  0.1033139E-008  0.5195858E+03  0.7818608E-02  0.1008790E+00
          2   -1    0    0  501    0  0.00000000000E+00  0.00000000000E+00  0.25157759057E+04  0.25157759057E+04  0.25500000000E-02 0. -1.
         -2   -1    0    0    0  501 -0.00000000000E+00 -0.00000000000E+00 -0.47325087756E+03  0.47325087757E+03  0.25500000000E-02 0.  1.
    8880022    1    1    2    0    0  0.45140741022E+03 -0.20690351717E+03 -0.29293068717E+03  0.59647108557E+03  0.15294330000E+03 0.  0.
    8880022    1    1    2    0    0 -0.45140741022E+03  0.20690351717E+03  0.23354557153E+04  0.23925556977E+04  0.15294330000E+03 0.  0.
<mgrwt>
<rscale>  0 0.51958577E+03</rscale>
<asrwt>0</asrwt>
<pdfrwt beam="1">  1        2 0.38704244E+00 0.51958577E+03</pdfrwt>
<pdfrwt beam="2">  1       -2 0.72807828E-01 0.51958577E+03</pdfrwt>
<totfact> 0.64096405E+00</totfact>
</mgrwt>
</event>
<event>
 4    1  0.1033139E-008  0.1030857E+04  0.7818608E-02  0.9275334E-01
          2   -1    0    0  501    0  0.00000000000E+00  0.00000000000E+00  0.30400473417E+04  0.30400473417E+04  0.25500000000E-02 0. -1.
         -2   -1    0    0    0  501 -0.00000000000E+00 -0.00000000000E+00 -0.83457172244E+03  0.83457172244E+03  0.25500000000E-02 0.  1.
    8880022    1    1    2    0    0  0.79632752044E+03  0.63650379395E+03  0.25796176761E+04  0.27779657318E+04  0.15294330000E+03 0.  0.
    8880022    1    1    2    0    0 -0.79632752044E+03 -0.63650379395E+03 -0.37414205684E+03  0.10966533323E+04  0.15294330000E+03 0.  0.
<mgrwt>
<rscale>  0 0.10308570E+04</rscale>
<asrwt>0</asrwt>
<pdfrwt beam="1">  1        2 0.46769958E+00 0.10308570E+04</pdfrwt>
<pdfrwt beam="2">  1       -2 0.12839565E+00 0.10308570E+04</pdfrwt>
<totfact> 0.74606907E-01</totfact>
</mgrwt>
</event>
<event>
 4    1  0.1033139E-008  0.7948967E+03  0.7818608E-02  0.9567433E-01
         -2   -1    0    0    0  501 -0.00000000000E+00  0.00000000000E+00  0.43241995730E+03  0.43241995730E+03  0.25500000000E-02 0.  1.
          2   -1    0    0  501    0  0.00000000000E+00 -0.00000000000E+00 -0.35861958685E+04  0.35861958685E+04  0.25500000000E-02 0. -1.
    8880022    1    1    2    0    0  0.53172135427E+03  0.57073765159E+03 -0.31235893823E+04  0.32231461878E+04  0.15294330000E+03 0.  0.
    8880022    1    1    2    0    0 -0.53172135427E+03 -0.57073765159E+03 -0.30186528930E+02  0.79546963806E+03  0.15294330000E+03 0.  0.
<mgrwt>
<rscale>  0 0.79489667E+03</rscale>
<asrwt>0</asrwt>
<pdfrwt beam="1">  1        2 0.55172242E+00 0.79489667E+03</pdfrwt>
<pdfrwt beam="2">  1       -2 0.66526149E-01 0.79489667E+03</pdfrwt>
<totfact> 0.15851651E+00</totfact>
</mgrwt>
</event>
<event>
 4    1  0.1033139E-008  0.8475503E+03  0.7818608E-02  0.9493631E-01
         -2   -1    0    0    0  501 -0.00000000000E+00  0.00000000000E+00  0.59324672378E+03  0.59324672378E+03  0.25500000000E-02 0.  1.
          2   -1    0    0  501    0  0.00000000000E+00 -0.00000000000E+00 -0.18531277317E+04  0.18531277317E+04  0.25500000000E-02 0. -1.
    8880022    1    1    2    0    0  0.73481754325E+03 -0.39369159483E+03 -0.13500469609E+04  0.15940415124E+04  0.15294330000E+03 0.  0.
    8880022    1    1    2    0    0 -0.73481754325E+03  0.39369159483E+03  0.90165952974E+02  0.85233294305E+03  0.15294330000E+03 0.  0.
<mgrwt>
<rscale>  0 0.84755032E+03</rscale>
<asrwt>0</asrwt>
<pdfrwt beam="1">  1        2 0.28509657E+00 0.84755032E+03</pdfrwt>
<pdfrwt beam="2">  1       -2 0.91268728E-01 0.84755032E+03</pdfrwt>
<totfact> 0.83973963E+00</totfact>
</mgrwt>
</event>
<event>
 4    1  0.1033139E-008  0.1459014E+04  0.7818608E-02  0.8912175E-01
          2   -1    0    0  501    0  0.00000000000E+00  0.00000000000E+00  0.15088816277E+04  0.15088816277E+04  0.25500000000E-02 0. -1.
         -2   -1    0    0    0  501 -0.00000000000E+00 -0.00000000000E+00 -0.21615742270E+04  0.21615742270E+04  0.25500000000E-02 0.  1.
    8880022    1    1    2    0    0  0.13453348751E+04 -0.54350995817E+03  0.75524065468E+03  0.16428965580E+04  0.15294330000E+03 0.  0.
    8880022    1    1    2    0    0 -0.13453348751E+04  0.54350995817E+03 -0.14079332540E+04  0.20275592967E+04  0.15294330000E+03 0.  0.
<mgrwt>
<rscale>  0 0.14590136E+04</rscale>
<asrwt>0</asrwt>
<pdfrwt beam="1">  1        2 0.23213563E+00 0.14590136E+04</pdfrwt>
<pdfrwt beam="2">  1       -2 0.33254988E+00 0.14590136E+04</pdfrwt>
<totfact> 0.23761800E-01</totfact>
</mgrwt>
</event>
<event>
 4    1  0.1033139E-008  0.3563672E+03  0.7818608E-02  0.1060032E+00
          2   -1    0    0  501    0  0.00000000000E+00  0.00000000000E+00  0.22292375747E+04  0.22292375747E+04  0.25500000000E-02 0. -1.
         -2   -1    0    0    0  501 -0.00000000000E+00 -0.00000000000E+00 -0.11864704747E+03  0.11864704750E+03  0.25500000000E-02 0.  1.
    8880022    1    1    2    0    0  0.14652436520E+03  0.28659468145E+03  0.20888015078E+03  0.41307199305E+03  0.15294330000E+03 0.  0.
    8880022    1    1    2    0    0 -0.14652436520E+03 -0.28659468145E+03  0.19017103764E+04  0.19348126291E+04  0.15294330000E+03 0. -1.
<mgrwt>
<rscale>  0 0.35636716E+03</rscale>
<asrwt>0</asrwt>
<pdfrwt beam="1">  1        2 0.34295966E+00 0.35636716E+03</pdfrwt>
<pdfrwt beam="2">  1       -2 0.18253390E-01 0.35636716E+03</pdfrwt>
<totfact> 0.13600263E+02</totfact>
</mgrwt>
</event>
<event>
 4    1  0.1033139E-008  0.4288893E+03  0.7818608E-02  0.1034211E+00
         -2   -1    0    0    0  501 -0.00000000000E+00  0.00000000000E+00  0.26305132513E+03  0.26305132515E+03  0.25500000000E-02 0.  1.
          2   -1    0    0  501    0  0.00000000000E+00 -0.00000000000E+00 -0.37599377396E+04  0.37599377396E+04  0.25500000000E-02 0. -1.
    8880022    1    1    2    0    0  0.72013783650E+02  0.39416795164E+03 -0.35632736386E+04  0.35889922034E+04  0.15294330000E+03 0.  0.
    8880022    1    1    2    0    0 -0.72013783650E+02 -0.39416795164E+03  0.66387224164E+02  0.43399686137E+03  0.15294330000E+03 0.  1.
<mgrwt>
<rscale>  0 0.42888928E+03</rscale>
<asrwt>0</asrwt>
<pdfrwt beam="1">  1        2 0.57845192E+00 0.42888928E+03</pdfrwt>
<pdfrwt beam="2">  1       -2 0.40469437E-01 0.42888928E+03</pdfrwt>
<totfact> 0.36676079E+00</totfact>
</mgrwt>
</event>
<event>
 4    1  0.1033139E-008  0.1000239E+04  0.7818608E-02  0.9308283E-01
          2   -1    0    0  501    0  0.00000000000E+00  0.00000000000E+00  0.96515306781E+03  0.96515306781E+03  0.25500000000E-02 0. -1.
         -2   -1    0    0    0  501 -0.00000000000E+00 -0.00000000000E+00 -0.15928296163E+04  0.15928296163E+04  0.25500000000E-02 0.  1.
    8880022    1    1    2    0    0 -0.10087467844E+03 -0.98331574495E+03 -0.10696440126E+04  0.14644505870E+04  0.15294330000E+03 0.  1.
    8880022    1    1    2    0    0  0.10087467844E+03  0.98331574495E+03  0.44196746414E+03  0.10935320971E+04  0.15294330000E+03 0.  0.
<mgrwt>
<rscale>  0 0.10002386E+04</rscale>
<asrwt>0</asrwt>
<pdfrwt beam="1">  1        2 0.14848509E+00 0.10002386E+04</pdfrwt>
<pdfrwt beam="2">  1       -2 0.24505071E+00 0.10002386E+04</pdfrwt>
<totfact> 0.18224048E+00</totfact>
</mgrwt>
</event>
<event>
 4    1  0.1266265E-008  0.1125867E+04  0.7818608E-02  0.9180340E-01
         -2   -1    0    0    0  501 -0.00000000000E+00  0.00000000000E+00  0.15457806260E+04  0.15457806260E+04  0.25500000000E-02 0.  1.
          2   -1    0    0  501    0  0.00000000000E+00 -0.00000000000E+00 -0.20968588563E+04  0.20968588563E+04  0.25500000000E-02 0. -1.
    8880022    1    1    2    0    0  0.78219587818E+03 -0.79520767092E+03  0.11457058945E+04  0.16063060983E+04  0.15294330000E+03 0.  0.
    8880022    1    1    2    0    0 -0.78219587818E+03  0.79520767092E+03 -0.16967841248E+04  0.20363333840E+04  0.15294330000E+03 0.  0.
<mgrwt>
<rscale>  0 0.11258673E+04</rscale>
<asrwt>0</asrwt>
<pdfrwt beam="1">  1        2 0.32259367E+00 0.11258673E+04</pdfrwt>
<pdfrwt beam="2">  1       -2 0.23781240E+00 0.11258673E+04</pdfrwt>
<totfact> 0.44340806E-01</totfact>
</mgrwt>
</event>
<event>
 4    1  0.1033139E-008  0.4098118E+03  0.7818608E-02  0.1040434E+00
         -2   -1    0    0    0  501 -0.00000000000E+00  0.00000000000E+00  0.42346548015E+03  0.42346548016E+03  0.25500000000E-02 0.  1.
          2   -1    0    0  501    0  0.00000000000E+00 -0.00000000000E+00 -0.65953259261E+03  0.65953259261E+03  0.25500000000E-02 0. -1.
    8880022    1    1    2    0    0 -0.16146786985E+03 -0.34421242692E+03 -0.45993671389E+03  0.61602556898E+03  0.15294330000E+03 0.  0.
    8880022    1    1    2    0    0  0.16146786985E+03  0.34421242692E+03  0.22386960143E+03  0.46697250379E+03  0.15294330000E+03 0.  0.
<mgrwt>
<rscale>  0 0.40981181E+03</rscale>
<asrwt>0</asrwt>
<pdfrwt beam="1">  1        2 0.10146655E+00 0.40981181E+03</pdfrwt>
<pdfrwt beam="2">  1       -2 0.65148535E-01 0.40981181E+03</pdfrwt>
<totfact> 0.99714613E+01</totfact>
</mgrwt>
</event>
<event>
 4    1  0.1033139E-008  0.1561418E+04  0.7818608E-02  0.8844607E-01
          2   -1    0    0  501    0  0.00000000000E+00  0.00000000000E+00  0.26844385146E+04  0.26844385146E+04  0.25500000000E-02 0. -1.
         -2   -1    0    0    0  501 -0.00000000000E+00 -0.00000000000E+00 -0.24173772485E+04  0.24173772485E+04  0.25500000000E-02 0.  1.
    8880022    1    1    2    0    0  0.90575984760E+03  0.12626301309E+04 -0.18820101711E+04  0.24454017433E+04  0.15294330000E+03 0.  0.
    8880022    1    1    2    0    0 -0.90575984760E+03 -0.12626301309E+04  0.21490714372E+04  0.26564140198E+04  0.15294330000E+03 0.  0.
<mgrwt>
<rscale>  0 0.15614184E+04</rscale>
<asrwt>0</asrwt>
<pdfrwt beam="1">  1        2 0.41299054E+00 0.15614184E+04</pdfrwt>
<pdfrwt beam="2">  1       -2 0.37190419E+00 0.15614184E+04</pdfrwt>
<totfact> 0.28548308E-02</totfact>
</mgrwt>
</event>
<event>
 4    1  0.1033139E-008  0.6377800E+03  0.7818608E-02  0.9829983E-01
         -2   -1    0    0    0  501 -0.00000000000E+00  0.00000000000E+00  0.97868158367E+03  0.97868158367E+03  0.25500000000E-02 0.  1.
          2   -1    0    0  501    0  0.00000000000E+00 -0.00000000000E+00 -0.12758976149E+04  0.12758976149E+04  0.25500000000E-02 0. -1.
    8880022    1    1    2    0    0  0.11836509762E+03  0.60775110393E+03  0.77704014105E+03  0.10052635149E+04  0.15294330000E+03 0.  0.
    8880022    1    1    2    0    0 -0.11836509762E+03 -0.60775110393E+03 -0.10742561723E+04  0.12493156837E+04  0.15294330000E+03 0.  0.
<mgrwt>
<rscale>  0 0.63778002E+03</rscale>
<asrwt>0</asrwt>
<pdfrwt beam="1">  1        2 0.19629194E+00 0.63778002E+03</pdfrwt>
<pdfrwt beam="2">  1       -2 0.15056640E+00 0.63778002E+03</pdfrwt>
<totfact> 0.52716128E+00</totfact>
</mgrwt>
</event>
<event>
 4    1  0.1033139E-008  0.9615371E+03  0.7818608E-02  0.9351766E-01
         -2   -1    0    0    0  501 -0.00000000000E+00  0.00000000000E+00  0.10858334837E+04  0.10858334837E+04  0.25500000000E-02 0.  1.
          2   -1    0    0  501    0  0.00000000000E+00 -0.00000000000E+00 -0.15275095469E+04  0.15275095469E+04  0.25500000000E-02 0. -1.
    8880022    1    1    2    0    0 -0.58881999768E+02  0.94746760348E+03  0.64844422287E+03  0.11597557987E+04  0.15294330000E+03 0.  0.
    8880022    1    1    2    0    0  0.58881999768E+02 -0.94746760348E+03 -0.10901202860E+04  0.14535872318E+04  0.15294330000E+03 0.  0.
<mgrwt>
<rscale>  0 0.96153710E+03</rscale>
<asrwt>0</asrwt>
<pdfrwt beam="1">  1        2 0.23500147E+00 0.96153710E+03</pdfrwt>
<pdfrwt beam="2">  1       -2 0.16705130E+00 0.96153710E+03</pdfrwt>
<totfact> 0.27338050E+00</totfact>
</mgrwt>
</event>
<event>
 4    1  0.1033139E-008  0.1100933E+04  0.7818608E-02  0.9204283E-01
          2   -1    0    0  501    0  0.00000000000E+00  0.00000000000E+00  0.21611997855E+04  0.21611997855E+04  0.25500000000E-02 0. -1.
         -2   -1    0    0    0  501 -0.00000000000E+00 -0.00000000000E+00 -0.69732814733E+03  0.69732814733E+03  0.25500000000E-02 0.  1.
    8880022    1    1    2    0    0  0.10816058364E+04  0.13708210213E+03  0.13642975340E+04  0.17531007108E+04  0.15294330000E+03 0.  0.
    8880022    1    1    2    0    0 -0.10816058364E+04 -0.13708210213E+03  0.99574104218E+02  0.11054272220E+04  0.15294330000E+03 0.  0.
<mgrwt>
<rscale>  0 0.11009334E+04</rscale>
<asrwt>0</asrwt>
<pdfrwt beam="1">  1        2 0.33249227E+00 0.11009334E+04</pdfrwt>
<pdfrwt beam="2">  1       -2 0.10728126E+00 0.11009334E+04</pdfrwt>
<totfact> 0.37518228E+00</totfact>
</mgrwt>
</event>
<event>
 4    1  0.1033139E-008  0.7510611E+03  0.7818608E-02  0.9633687E-01
          2   -1    0    0  501    0  0.00000000000E+00  0.00000000000E+00  0.31658965144E+04  0.31658965144E+04  0.25500000000E-02 0. -1.
         -2   -1    0    0    0  501 -0.00000000000E+00 -0.00000000000E+00 -0.24151292580E+03  0.24151292581E+03  0.25500000000E-02 0.  1.
    8880022    1    1    2    0    0  0.57337721882E+03  0.46036912104E+03  0.23346529255E+04  0.24524879404E+04  0.15294330000E+03 0.  0.
    8880022    1    1    2    0    0 -0.57337721882E+03 -0.46036912104E+03  0.58973066317E+03  0.95492149979E+03  0.15294330000E+03 0.  0.
<mgrwt>
<rscale>  0 0.75106113E+03</rscale>
<asrwt>0</asrwt>
<pdfrwt beam="1">  1        2 0.48706102E+00 0.75106113E+03</pdfrwt>
<pdfrwt beam="2">  1       -2 0.37155834E-01 0.75106113E+03</pdfrwt>
<totfact> 0.99538858E+00</totfact>
</mgrwt>
</event>
