<event>
 4    2  0.6914693E-007  0.9371601E+03  0.7818608E-02  0.9468834E-01
         -2   -1    0    0    0  501 -0.00000000000E+00  0.00000000000E+00  0.43127094269E+03  0.43127094269E+03  0.25500000000E-02 0.  1.
          2   -1    0    0  501    0  0.00000000000E+00 -0.00000000000E+00 -0.21211036857E+04  0.21211036857E+04  0.25500000000E-02 0. -1.
    8880023    1    1    2    0    0  0.65771018993E+03  0.10897762542E+03 -0.26824664983E+03  0.97479499804E+03  0.65864270000E+03 0.  1.
    8880022    1    1    2    0    0 -0.65771018993E+03 -0.10897762542E+03 -0.14215860932E+04  0.15775796304E+04  0.15294330000E+03 0.  0.
<mgrwt>
<rscale>  0 0.86621105E+03</rscale>
<asrwt>0</asrwt>
<pdfrwt beam="1">  1        2 0.32632364E+00 0.93716008E+03</pdfrwt>
<pdfrwt beam="2">  1       -2 0.66349377E-01 0.93716008E+03</pdfrwt>
<totfact> 0.12089103E+01</totfact>
</mgrwt>
</event>
<event>
 4    2  0.6914693E-007  0.7373236E+03  0.7818608E-02  0.9867813E-01
         -2   -1    0    0    0  501 -0.00000000000E+00  0.00000000000E+00  0.17856540922E+04  0.17856540922E+04  0.25500000000E-02 0.  1.
          2   -1    0    0  501    0  0.00000000000E+00 -0.00000000000E+00 -0.86460374318E+03  0.86460374318E+03  0.25500000000E-02 0. -1.
    8880023    1    1    2    0    0 -0.18164557689E+03 -0.27720178112E+03  0.16653518768E+04  0.18212751091E+04  0.65864270000E+03 0.  1.
    8880022    1    1    2    0    0  0.18164557689E+03  0.27720178112E+03 -0.74430152785E+03  0.82898272626E+03  0.15294330000E+03 0.  0.
<mgrwt>
<rscale>  0 0.61846894E+03</rscale>
<asrwt>0</asrwt>
<pdfrwt beam="1">  1        2 0.13301596E+00 0.73732364E+03</pdfrwt>
<pdfrwt beam="2">  1       -2 0.27471601E+00 0.73732364E+03</pdfrwt>
<totfact> 0.14634386E+00</totfact>
</mgrwt>
</event>
<event>
 4    2  0.6914693E-007  0.8244537E+03  0.7818608E-02  0.9660222E-01
         -2   -1    0    0    0  501 -0.00000000000E+00  0.00000000000E+00  0.45310947154E+03  0.45310947155E+03  0.25500000000E-02 0.  1.
          2   -1    0    0  501    0  0.00000000000E+00 -0.00000000000E+00 -0.21449980074E+04  0.21449980074E+04  0.25500000000E-02 0. -1.
    8880023    1    1    2    0    0  0.48782990349E+03 -0.89082199263E+02  0.41379031578E+01  0.82446405711E+03  0.65864270000E+03 0.  0.
    8880022    1    1    2    0    0 -0.48782990349E+03  0.89082199263E+02 -0.16960264390E+04  0.17736434218E+04  0.15294330000E+03 0.  0.
<mgrwt>
<rscale>  0 0.73435373E+03</rscale>
<asrwt>0</asrwt>
<pdfrwt beam="1">  1        2 0.32999969E+00 0.82445367E+03</pdfrwt>
<pdfrwt beam="2">  1       -2 0.69709151E-01 0.82445367E+03</pdfrwt>
<totfact> 0.10688040E+01</totfact>
</mgrwt>
</event>
<event>
 4    2  0.6914693E-007  0.7210353E+03  0.7818608E-02  0.9919098E-01
         -2   -1    0    0    0  501 -0.00000000000E+00  0.00000000000E+00  0.63682964081E+03  0.63682964082E+03  0.25500000000E-02 0.  1.
          2   -1    0    0  501    0  0.00000000000E+00 -0.00000000000E+00 -0.53228508608E+03  0.53228508609E+03  0.25500000000E-02 0. -1.
    8880023    1    1    2    0    0  0.29295591581E+03  0.16077677961E+02  0.30430636180E+03  0.78262010480E+03  0.65864270000E+03 0.  1.
    8880022    1    1    2    0    0 -0.29295591581E+03 -0.16077677961E+02 -0.19976180707E+03  0.38649462211E+03  0.15294330000E+03 0. -1.
<mgrwt>
<rscale>  0 0.59344560E+03</rscale>
<asrwt>0</asrwt>
<pdfrwt beam="1">  1        2 0.81890013E-01 0.72103527E+03</pdfrwt>
<pdfrwt beam="2">  1       -2 0.97973791E-01 0.72103527E+03</pdfrwt>
<totfact> 0.50302261E+01</totfact>
</mgrwt>
</event>
<event>
 4    2  0.6914693E-007  0.7369698E+03  0.7818608E-02  0.9868863E-01
         -2   -1    0    0    0  501 -0.00000000000E+00  0.00000000000E+00  0.47115957830E+03  0.47115957831E+03  0.25500000000E-02 0.  1.
          2   -1    0    0  501    0  0.00000000000E+00 -0.00000000000E+00 -0.65407477429E+03  0.65407477429E+03  0.25500000000E-02 0. -1.
    8880023    1    1    2    0    0 -0.63860984054E+02  0.32440117250E+03 -0.54528996289E+02  0.73898441371E+03  0.65864270000E+03 0.  1.
    8880022    1    1    2    0    0  0.63860984054E+02 -0.32440117250E+03 -0.12838619970E+03  0.38624993889E+03  0.15294330000E+03 0.  1.
<mgrwt>
<rscale>  0 0.61794327E+03</rscale>
<asrwt>0</asrwt>
<pdfrwt beam="1">  1        2 0.10062689E+00 0.73696984E+03</pdfrwt>
<pdfrwt beam="2">  1       -2 0.72486089E-01 0.73696984E+03</pdfrwt>
<totfact> 0.77816611E+01</totfact>
</mgrwt>
</event>
<event>
 4    2  0.6914693E-007  0.7652135E+03  0.7818608E-02  0.9791792E-01
         -2   -1    0    0    0  501 -0.00000000000E+00  0.00000000000E+00  0.47682990735E+03  0.47682990736E+03  0.25500000000E-02 0.  1.
          2   -1    0    0  501    0  0.00000000000E+00 -0.00000000000E+00 -0.11326062455E+04  0.11326062455E+04  0.25500000000E-02 0. -1.
    8880023    1    1    2    0    0  0.37784308502E+03  0.94742593549E+02  0.73376892796E+02  0.76872357229E+03  0.65864270000E+03 0.  1.
    8880022    1    1    2    0    0 -0.37784308502E+03 -0.94742593549E+02 -0.72915323097E+03  0.84071258060E+03  0.15294330000E+03 0.  0.
<mgrwt>
<rscale>  0 0.65804872E+03</rscale>
<asrwt>0</asrwt>
<pdfrwt beam="1">  1        2 0.17424711E+00 0.76521354E+03</pdfrwt>
<pdfrwt beam="2">  1       -2 0.73358447E-01 0.76521354E+03</pdfrwt>
<totfact> 0.35447877E+01</totfact>
</mgrwt>
</event>
<event>
 4    2  0.6914693E-007  0.8743886E+03  0.7818608E-02  0.9568464E-01
         -2   -1    0    0    0  501 -0.00000000000E+00  0.00000000000E+00  0.12817829946E+04  0.12817829946E+04  0.25500000000E-02 0.  1.
          2   -1    0    0  501    0  0.00000000000E+00 -0.00000000000E+00 -0.87904987095E+03  0.87904987095E+03  0.25500000000E-02 0. -1.
    8880023    1    1    2    0    0 -0.57143582354E+03 -0.64856058446E+02  0.99268728013E+03  0.13228694006E+04  0.65864270000E+03 0.  1.
    8880022    1    1    2    0    0  0.57143582354E+03  0.64856058446E+02 -0.58995415649E+03  0.83796346491E+03  0.15294330000E+03 0.  0.
<mgrwt>
<rscale>  0 0.79419062E+03</rscale>
<asrwt>0</asrwt>
<pdfrwt beam="1">  1        2 0.13523844E+00 0.87438859E+03</pdfrwt>
<pdfrwt beam="2">  1       -2 0.19719738E+00 0.87438859E+03</pdfrwt>
<totfact> 0.42312260E+00</totfact>
</mgrwt>
</event>
<event>
 4    2  0.6914693E-007  0.1255444E+04  0.7818608E-02  0.9105025E-01
          2   -1    0    0  501    0  0.00000000000E+00  0.00000000000E+00  0.18002960024E+04  0.18002960024E+04  0.25500000000E-02 0. -1.
         -2   -1    0    0    0  501 -0.00000000000E+00 -0.00000000000E+00 -0.12955858915E+04  0.12955858915E+04  0.25500000000E-02 0.  1.
    8880023    1    1    2    0    0  0.61758811899E+03  0.87230395722E+03 -0.73273501831E+03  0.14536299707E+04  0.65864270000E+03 0.  1.
    8880022    1    1    2    0    0 -0.61758811899E+03 -0.87230395722E+03  0.12374451291E+04  0.16422519232E+04  0.15294330000E+03 0.  0.
<mgrwt>
<rscale>  0 0.12089889E+04</rscale>
<asrwt>0</asrwt>
<pdfrwt beam="1">  1        2 0.27696861E+00 0.12554439E+04</pdfrwt>
<pdfrwt beam="2">  1       -2 0.19932091E+00 0.12554439E+04</pdfrwt>
<totfact> 0.11175429E+00</totfact>
</mgrwt>
</event>
<event>
 4    2  0.6914693E-007  0.6857213E+03  0.7818608E-02  0.1006256E+00
         -2   -1    0    0    0  501 -0.00000000000E+00  0.00000000000E+00  0.14327911900E+03  0.14327911902E+03  0.25500000000E-02 0.  1.
          2   -1    0    0  501    0  0.00000000000E+00 -0.00000000000E+00 -0.26022205423E+04  0.26022205424E+04  0.25500000000E-02 0. -1.
    8880023    1    1    2    0    0  0.15635472258E+03 -0.10934676001E+03 -0.73850211222E+03  0.10077693631E+04  0.65864270000E+03 0.  0.
    8880022    1    1    2    0    0 -0.15635472258E+03  0.10934676001E+03 -0.17204393111E+04  0.17377302983E+04  0.15294330000E+03 0.  0.
<mgrwt>
<rscale>  0 0.52990009E+03</rscale>
<asrwt>0</asrwt>
<pdfrwt beam="1">  1        2 0.40034159E+00 0.68572131E+03</pdfrwt>
<pdfrwt beam="2">  1       -2 0.22042943E-01 0.68572131E+03</pdfrwt>
<totfact> 0.57371121E+01</totfact>
</mgrwt>
</event>
<event>
 4    2  0.6914693E-007  0.7124743E+03  0.7818608E-02  0.9948925E-01
          2   -1    0    0  501    0  0.00000000000E+00  0.00000000000E+00  0.44877595790E+03  0.44877595790E+03  0.25500000000E-02 0. -1.
         -2   -1    0    0    0  501 -0.00000000000E+00 -0.00000000000E+00 -0.25388963147E+04  0.25388963147E+04  0.25500000000E-02 0.  1.
    8880023    1    1    2    0    0 -0.24504991639E+03  0.11730312590E+03 -0.24265551953E+04  0.25289898788E+04  0.65864270000E+03 0.  1.
    8880022    1    1    2    0    0  0.24504991639E+03 -0.11730312590E+03  0.33643483848E+03  0.45868239385E+03  0.15294330000E+03 0.  0.
<mgrwt>
<rscale>  0 0.57947652E+03</rscale>
<asrwt>0</asrwt>
<pdfrwt beam="1">  1        2 0.69042457E-01 0.71247434E+03</pdfrwt>
<pdfrwt beam="2">  1       -2 0.39059942E+00 0.71247434E+03</pdfrwt>
<totfact> 0.63786441E-01</totfact>
</mgrwt>
</event>
<event>
 4    2  0.6914693E-007  0.7698167E+03  0.7818608E-02  0.9780325E-01
         -2   -1    0    0    0  501 -0.00000000000E+00  0.00000000000E+00  0.23332560180E+03  0.23332560181E+03  0.25500000000E-02 0.  1.
          2   -1    0    0  501    0  0.00000000000E+00 -0.00000000000E+00 -0.26335970419E+04  0.26335970419E+04  0.25500000000E-02 0. -1.
    8880023    1    1    2    0    0  0.31241326967E+03  0.24739753516E+03 -0.49685667409E+03  0.91623378693E+03  0.65864270000E+03 0.  1.
    8880022    1    1    2    0    0 -0.31241326967E+03 -0.24739753516E+03 -0.19034147660E+04  0.19506888568E+04  0.15294330000E+03 0.  0.
<mgrwt>
<rscale>  0 0.66429171E+03</rscale>
<asrwt>0</asrwt>
<pdfrwt beam="1">  1        2 0.40516876E+00 0.76981673E+03</pdfrwt>
<pdfrwt beam="2">  1       -2 0.35896248E-01 0.76981673E+03</pdfrwt>
<totfact> 0.22181873E+01</totfact>
</mgrwt>
</event>
<event>
 4    2  0.6914693E-007  0.9053367E+03  0.7818608E-02  0.9517518E-01
         -2   -1    0    0    0  501 -0.00000000000E+00  0.00000000000E+00  0.37724830893E+03  0.37724830894E+03  0.25500000000E-02 0.  1.
          2   -1    0    0  501    0  0.00000000000E+00 -0.00000000000E+00 -0.29651569056E+04  0.29651569056E+04  0.25500000000E-02 0. -1.
    8880023    1    1    2    0    0  0.94141480999E+02 -0.61397212481E+03 -0.28024707718E+03  0.94771990536E+03  0.65864270000E+03 0.  0.
    8880022    1    1    2    0    0 -0.94141480999E+02  0.61397212481E+03 -0.23076615195E+04  0.23946853092E+04  0.15294330000E+03 0.  0.
<mgrwt>
<rscale>  0 0.83004509E+03</rscale>
<asrwt>0</asrwt>
<pdfrwt beam="1">  1        2 0.45617797E+00 0.90533673E+03</pdfrwt>
<pdfrwt beam="2">  1       -2 0.58038203E-01 0.90533673E+03</pdfrwt>
<totfact> 0.52713163E+00</totfact>
</mgrwt>
</event>
<event>
 4    2  0.6914693E-007  0.6738366E+03  0.7818608E-02  0.1013050E+00
         -2   -1    0    0    0  501 -0.00000000000E+00  0.00000000000E+00  0.45396787237E+03  0.45396787238E+03  0.25500000000E-02 0.  1.
          2   -1    0    0  501    0  0.00000000000E+00 -0.00000000000E+00 -0.14394387338E+04  0.14394387338E+04  0.25500000000E-02 0. -1.
    8880023    1    1    2    0    0 -0.14155378863E+03  0.14426337171E+02  0.18952784737E+03  0.69998328942E+03  0.65864270000E+03 0.  1.
    8880022    1    1    2    0    0  0.14155378863E+03 -0.14426337171E+02 -0.11749987088E+04  0.11934233168E+04  0.15294330000E+03 0.  0.
<mgrwt>
<rscale>  0 0.50280331E+03</rscale>
<asrwt>0</asrwt>
<pdfrwt beam="1">  1        2 0.22145211E+00 0.67383663E+03</pdfrwt>
<pdfrwt beam="2">  1       -2 0.69841212E-01 0.67383663E+03</pdfrwt>
<totfact> 0.26488934E+01</totfact>
</mgrwt>
</event>
<event>
 4    2  0.6914693E-007  0.9582192E+03  0.7818608E-02  0.9438386E-01
          2   -1    0    0  501    0  0.00000000000E+00  0.00000000000E+00  0.11149042408E+04  0.11149042408E+04  0.25500000000E-02 0. -1.
         -2   -1    0    0    0  501 -0.00000000000E+00 -0.00000000000E+00 -0.90920891542E+03  0.90920891543E+03  0.25500000000E-02 0.  1.
    8880023    1    1    2    0    0 -0.58423652527E+03 -0.37820831502E+03 -0.44740059193E+03  0.10575213203E+04  0.65864270000E+03 0.  1.
    8880022    1    1    2    0    0  0.58423652527E+03  0.37820831502E+03  0.65309591725E+03  0.96659183586E+03  0.15294330000E+03 0.  0.
<mgrwt>
<rscale>  0 0.88982900E+03</rscale>
<asrwt>0</asrwt>
<pdfrwt beam="1">  1        2 0.17152373E+00 0.95821921E+03</pdfrwt>
<pdfrwt beam="2">  1       -2 0.13987830E+00 0.95821921E+03</pdfrwt>
<totfact> 0.76447119E+00</totfact>
</mgrwt>
</event>
<event>
 4    2  0.6914693E-007  0.8748005E+03  0.7818608E-02  0.9567760E-01
         -2   -1    0    0    0  501 -0.00000000000E+00  0.00000000000E+00  0.70158629610E+03  0.70158629610E+03  0.25500000000E-02 0.  1.
          2   -1    0    0  501    0  0.00000000000E+00 -0.00000000000E+00 -0.15873111430E+04  0.15873111430E+04  0.25500000000E-02 0. -1.
    8880023    1    1    2    0    0  0.71534717158E+02 -0.57126914447E+03 -0.12974092535E+04  0.15647832529E+04  0.65864270000E+03 0. -1.
    8880022    1    1    2    0    0 -0.71534717158E+02  0.57126914447E+03  0.41168440653E+03  0.72411418628E+03  0.15294330000E+03 0.  0.
<mgrwt>
<rscale>  0 0.79467303E+03</rscale>
<asrwt>0</asrwt>
<pdfrwt beam="1">  1        2 0.24420171E+00 0.87480047E+03</pdfrwt>
<pdfrwt beam="2">  1       -2 0.10793635E+00 0.87480047E+03</pdfrwt>
<totfact> 0.78732588E+00</totfact>
</mgrwt>
</event>
<event>
 4    2  0.6914693E-007  0.8552831E+03  0.7818608E-02  0.9602010E-01
          2   -1    0    0  501    0  0.00000000000E+00  0.00000000000E+00  0.87315914893E+03  0.87315914894E+03  0.25500000000E-02 0. -1.
         -2   -1    0    0    0  501 -0.00000000000E+00 -0.00000000000E+00 -0.65108017140E+03  0.65108017140E+03  0.25500000000E-02 0.  1.
    8880023    1    1    2    0    0 -0.22096595356E+03 -0.49887177601E+03 -0.11798189053E+03  0.86338226429E+03  0.65864270000E+03 0.  0.
    8880022    1    1    2    0    0  0.22096595356E+03  0.49887177601E+03  0.34006086807E+03  0.66085705605E+03  0.15294330000E+03 0.  0.
<mgrwt>
<rscale>  0 0.77163316E+03</rscale>
<asrwt>0</asrwt>
<pdfrwt beam="1">  1        2 0.13433218E+00 0.85528312E+03</pdfrwt>
<pdfrwt beam="2">  1       -2 0.10016618E+00 0.85528312E+03</pdfrwt>
<totfact> 0.25303385E+01</totfact>
</mgrwt>
</event>
<event>
 4    2  0.6914693E-007  0.8185023E+03  0.7818608E-02  0.9672132E-01
          2   -1    0    0  501    0  0.00000000000E+00  0.00000000000E+00  0.20947523180E+04  0.20947523180E+04  0.25500000000E-02 0. -1.
         -2   -1    0    0    0  501 -0.00000000000E+00 -0.00000000000E+00 -0.63998761038E+03  0.63998761039E+03  0.25500000000E-02 0.  1.
    8880023    1    1    2    0    0  0.46460881985E+03  0.14238832960E+03 -0.32712896573E+03  0.88145298137E+03  0.65864270000E+03 0.  1.
    8880022    1    1    2    0    0 -0.46460881985E+03 -0.14238832960E+03  0.17818936734E+04  0.18532869470E+04  0.15294330000E+03 0.  0.
<mgrwt>
<rscale>  0 0.72700573E+03</rscale>
<asrwt>0</asrwt>
<pdfrwt beam="1">  1        2 0.32226959E+00 0.81850229E+03</pdfrwt>
<pdfrwt beam="2">  1       -2 0.98459632E-01 0.81850229E+03</pdfrwt>
<totfact> 0.52067184E+00</totfact>
</mgrwt>
</event>
<event>
 4    2  0.6914693E-007  0.7563648E+03  0.7818608E-02  0.9814611E-01
          2   -1    0    0  501    0  0.00000000000E+00  0.00000000000E+00  0.67576858756E+03  0.67576858756E+03  0.25500000000E-02 0. -1.
         -2   -1    0    0    0  501 -0.00000000000E+00 -0.00000000000E+00 -0.54249883296E+03  0.54249883297E+03  0.25500000000E-02 0.  1.
    8880023    1    1    2    0    0 -0.35491489187E+03 -0.11096391482E+03 -0.84381353711E+02  0.76105715290E+03  0.65864270000E+03 0.  0.
    8880022    1    1    2    0    0  0.35491489187E+03  0.11096391482E+03  0.21765110831E+03  0.45721026763E+03  0.15294330000E+03 0.  0.
<mgrwt>
<rscale>  0 0.64584295E+03</rscale>
<asrwt>0</asrwt>
<pdfrwt beam="1">  1        2 0.10396440E+00 0.75636484E+03</pdfrwt>
<pdfrwt beam="2">  1       -2 0.83461359E-01 0.75636484E+03</pdfrwt>
<totfact> 0.54458772E+01</totfact>
</mgrwt>
</event>
<event>
 4    2  0.6914693E-007  0.8121513E+03  0.7818608E-02  0.9685113E-01
         -2   -1    0    0    0  501 -0.00000000000E+00  0.00000000000E+00  0.68372678991E+03  0.68372678991E+03  0.25500000000E-02 0.  1.
          2   -1    0    0  501    0  0.00000000000E+00 -0.00000000000E+00 -0.64490006801E+03  0.64490006802E+03  0.25500000000E-02 0. -1.
    8880023    1    1    2    0    0 -0.85602861104E+02 -0.46738811460E+03 -0.78244518976E+02  0.81591170509E+03  0.65864270000E+03 0.  1.
    8880022    1    1    2    0    0  0.85602861104E+02  0.46738811460E+03  0.11707124087E+03  0.51271515284E+03  0.15294330000E+03 0.  0.
<mgrwt>
<rscale>  0 0.71910105E+03</rscale>
<asrwt>0</asrwt>
<pdfrwt beam="1">  1        2 0.99215395E-01 0.81215128E+03</pdfrwt>
<pdfrwt beam="2">  1       -2 0.10518874E+00 0.81215128E+03</pdfrwt>
<totfact> 0.33499442E+01</totfact>
</mgrwt>
</event>
<event>
 4    2  0.6914693E-007  0.8091168E+03  0.7818608E-02  0.9691420E-01
          2   -1    0    0  501    0  0.00000000000E+00  0.00000000000E+00  0.21496726742E+04  0.21496726742E+04  0.25500000000E-02 0. -1.
         -2   -1    0    0    0  501 -0.00000000000E+00 -0.00000000000E+00 -0.32425889326E+03  0.32425889327E+03  0.25500000000E-02 0.  1.
    8880023    1    1    2    0    0  0.37000197116E+03 -0.28975551735E+03  0.28769201534E+03  0.85874130008E+03  0.65864270000E+03 0.  0.
    8880022    1    1    2    0    0 -0.37000197116E+03  0.28975551735E+03  0.15377217656E+04  0.16151902674E+04  0.15294330000E+03 0.  0.
<mgrwt>
<rscale>  0 0.71529967E+03</rscale>
<asrwt>0</asrwt>
<pdfrwt beam="1">  1        2 0.33071887E+00 0.80911676E+03</pdfrwt>
<pdfrwt beam="2">  1       -2 0.49885985E-01 0.80911676E+03</pdfrwt>
<totfact> 0.21556973E+01</totfact>
</mgrwt>
</event>
<event>
 4    2  0.6914693E-007  0.6949530E+03  0.7818608E-02  0.1001882E+00
         -2   -1    0    0    0  501 -0.00000000000E+00  0.00000000000E+00  0.84290656349E+03  0.84290656350E+03  0.25500000000E-02 0.  1.
          2   -1    0    0  501    0  0.00000000000E+00 -0.00000000000E+00 -0.10127047261E+04  0.10127047261E+04  0.25500000000E-02 0. -1.
    8880023    1    1    2    0    0  0.21109784087E+03 -0.67728905219E+02  0.67506797579E+03  0.96885317836E+03  0.65864270000E+03 0.  1.
    8880022    1    1    2    0    0 -0.21109784087E+03  0.67728905219E+02 -0.84486613839E+03  0.88675811123E+03  0.15294330000E+03 0.  0.
<mgrwt>
<rscale>  0 0.54832702E+03</rscale>
<asrwt>0</asrwt>
<pdfrwt beam="1">  1        2 0.15580073E+00 0.69495303E+03</pdfrwt>
<pdfrwt beam="2">  1       -2 0.12967793E+00 0.69495303E+03</pdfrwt>
<totfact> 0.11066660E+01</totfact>
</mgrwt>
</event>
<event>
 4    2  0.6914693E-007  0.6641617E+03  0.7818608E-02  0.1020247E+00
          2   -1    0    0  501    0  0.00000000000E+00  0.00000000000E+00  0.10845061213E+04  0.10845061213E+04  0.25500000000E-02 0. -1.
         -2   -1    0    0    0  501 -0.00000000000E+00 -0.00000000000E+00 -0.32798084272E+03  0.32798084273E+03  0.25500000000E-02 0.  1.
    8880023    1    1    2    0    0  0.76501016979E+02  0.38054533452E+02  0.29677949943E+02  0.66482444306E+03  0.65864270000E+03 0.  1.
    8880022    1    1    2    0    0 -0.76501016979E+02 -0.38054533452E+02  0.72684732863E+03  0.74766252097E+03  0.15294330000E+03 0.  0.
<mgrwt>
<rscale>  0 0.47597471E+03</rscale>
<asrwt>0</asrwt>
<pdfrwt beam="1">  1        2 0.16684710E+00 0.66416170E+03</pdfrwt>
<pdfrwt beam="2">  1       -2 0.50458591E-01 0.66416170E+03</pdfrwt>
<totfact> 0.84572181E+01</totfact>
</mgrwt>
</event>
<event>
 4    2  0.6914693E-007  0.9872713E+03  0.7818608E-02  0.9398403E-01
         -2   -1    0    0    0  501 -0.00000000000E+00  0.00000000000E+00  0.82387567204E+03  0.82387567205E+03  0.25500000000E-02 0.  1.
          2   -1    0    0  501    0  0.00000000000E+00 -0.00000000000E+00 -0.17791974724E+04  0.17791974724E+04  0.25500000000E-02 0. -1.
    8880023    1    1    2    0    0 -0.53214276070E+03  0.50765979304E+03  0.39058529467E+03  0.10617256999E+04  0.65864270000E+03 0.  0.
    8880022    1    1    2    0    0  0.53214276070E+03 -0.50765979304E+03 -0.13459070951E+04  0.15413474445E+04  0.15294330000E+03 0.  0.
<mgrwt>
<rscale>  0 0.92207191E+03</rscale>
<asrwt>0</asrwt>
<pdfrwt beam="1">  1        2 0.27372269E+00 0.98727128E+03</pdfrwt>
<pdfrwt beam="2">  1       -2 0.12675010E+00 0.98727128E+03</pdfrwt>
<totfact> 0.40928411E+00</totfact>
</mgrwt>
</event>
<event>
 4    2  0.6914693E-007  0.7721189E+03  0.7818608E-02  0.9774686E-01
          2   -1    0    0  501    0  0.00000000000E+00  0.00000000000E+00  0.19825541827E+04  0.19825541827E+04  0.25500000000E-02 0. -1.
         -2   -1    0    0    0  501 -0.00000000000E+00 -0.00000000000E+00 -0.33530632869E+03  0.33530632870E+03  0.25500000000E-02 0.  1.
    8880023    1    1    2    0    0  0.24575379574E+03  0.31931558838E+03  0.18576104473E+03  0.79415032903E+03  0.65864270000E+03 0.  1.
    8880022    1    1    2    0    0 -0.24575379574E+03 -0.31931558838E+03  0.14614868093E+04  0.15237101824E+04  0.15294330000E+03 0.  0.
<mgrwt>
<rscale>  0 0.66738886E+03</rscale>
<asrwt>0</asrwt>
<pdfrwt beam="1">  1        2 0.30500834E+00 0.77211889E+03</pdfrwt>
<pdfrwt beam="2">  1       -2 0.51585588E-01 0.77211889E+03</pdfrwt>
<totfact> 0.24978158E+01</totfact>
</mgrwt>
</event>
<event>
 4    2  0.6914693E-007  0.6993397E+03  0.7818608E-02  0.9999951E-01
         -2   -1    0    0    0  501 -0.00000000000E+00  0.00000000000E+00  0.87085265497E+03  0.87085265497E+03  0.25500000000E-02 0.  1.
          2   -1    0    0  501    0  0.00000000000E+00 -0.00000000000E+00 -0.51445650027E+03  0.51445650027E+03  0.25500000000E-02 0. -1.
    8880023    1    1    2    0    0  0.23508674030E+03  0.21890347737E+00  0.66728093568E+03  0.96661257843E+03  0.65864270000E+03 0.  1.
    8880022    1    1    2    0    0 -0.23508674030E+03 -0.21890347737E+00 -0.31088478098E+03  0.41869657682E+03  0.15294330000E+03 0.  0.
<mgrwt>
<rscale>  0 0.55652367E+03</rscale>
<asrwt>0</asrwt>
<pdfrwt beam="1">  1        2 0.79147155E-01 0.69933971E+03</pdfrwt>
<pdfrwt beam="2">  1       -2 0.13397733E+00 0.69933971E+03</pdfrwt>
<totfact> 0.24372220E+01</totfact>
</mgrwt>
</event>
<event>
 4    2  0.6914693E-007  0.6878915E+03  0.7818608E-02  0.1005171E+00
          2   -1    0    0  501    0  0.00000000000E+00  0.00000000000E+00  0.41616304708E+03  0.41616304709E+03  0.25500000000E-02 0. -1.
         -2   -1    0    0    0  501 -0.00000000000E+00 -0.00000000000E+00 -0.11591871486E+04  0.11591871486E+04  0.25500000000E-02 0.  1.
    8880023    1    1    2    0    0 -0.15630243544E+03  0.12228692475E+03 -0.10017471177E+04  0.12151921812E+04  0.65864270000E+03 0.  1.
    8880022    1    1    2    0    0  0.15630243544E+03 -0.12228692475E+03  0.25872301615E+03  0.36015801447E+03  0.15294330000E+03 0.  0.
<mgrwt>
<rscale>  0 0.53439741E+03</rscale>
<asrwt>0</asrwt>
<pdfrwt beam="1">  1        2 0.64025084E-01 0.68789152E+03</pdfrwt>
<pdfrwt beam="2">  1       -2 0.17833648E+00 0.68789152E+03</pdfrwt>
<totfact> 0.14467065E+01</totfact>
</mgrwt>
</event>
<event>
 4    2  0.6914693E-007  0.6828222E+03  0.7818608E-02  0.1007770E+00
         -2   -1    0    0    0  501 -0.00000000000E+00  0.00000000000E+00  0.28859968728E+03  0.28859968729E+03  0.25500000000E-02 0.  1.
          2   -1    0    0  501    0  0.00000000000E+00 -0.00000000000E+00 -0.26676639320E+04  0.26676639320E+04  0.25500000000E-02 0. -1.
    8880023    1    1    2    0    0  0.62978923649E+02  0.16872951642E+03 -0.13032834399E+03  0.69514867334E+03  0.65864270000E+03 0.  1.
    8880022    1    1    2    0    0 -0.62978923649E+02 -0.16872951642E+03 -0.22487359007E+04  0.22611149460E+04  0.15294330000E+03 0.  0.
<mgrwt>
<rscale>  0 0.52370522E+03</rscale>
<asrwt>0</asrwt>
<pdfrwt beam="1">  1        2 0.41040982E+00 0.68282223E+03</pdfrwt>
<pdfrwt beam="2">  1       -2 0.44399954E-01 0.68282223E+03</pdfrwt>
<totfact> 0.14209911E+01</totfact>
</mgrwt>
</event>
<event>
 4    2  0.6914693E-007  0.9912556E+03  0.7818608E-02  0.9393088E-01
          2   -1    0    0  501    0  0.00000000000E+00  0.00000000000E+00  0.21035034613E+04  0.21035034613E+04  0.25500000000E-02 0. -1.
         -2   -1    0    0    0  501 -0.00000000000E+00 -0.00000000000E+00 -0.43072866691E+03  0.43072866692E+03  0.25500000000E-02 0.  1.
    8880023    1    1    2    0    0  0.60595764484E+02  0.73831269447E+03  0.14296916550E+04  0.17397143203E+04  0.65864270000E+03 0.  0.
    8880022    1    1    2    0    0 -0.60595764484E+02 -0.73831269447E+03  0.24308313940E+03  0.79451780796E+03  0.15294330000E+03 0.  0.
<mgrwt>
<rscale>  0 0.92646666E+03</rscale>
<asrwt>0</asrwt>
<pdfrwt beam="1">  1        2 0.32361592E+00 0.99125561E+03</pdfrwt>
<pdfrwt beam="2">  1       -2 0.66265948E-01 0.99125561E+03</pdfrwt>
<totfact> 0.12319074E+01</totfact>
</mgrwt>
</event>
<event>
 4    2  0.6914693E-007  0.8177048E+03  0.7818608E-02  0.9673746E-01
         -2   -1    0    0    0  501 -0.00000000000E+00  0.00000000000E+00  0.25180426414E+03  0.25180426415E+03  0.25500000000E-02 0.  1.
          2   -1    0    0  501    0  0.00000000000E+00 -0.00000000000E+00 -0.20240775528E+04  0.20240775528E+04  0.25500000000E-02 0. -1.
    8880023    1    1    2    0    0 -0.12382197163E+03  0.46850733419E+03 -0.65226833477E+03  0.10459900524E+04  0.65864270000E+03 0.  1.
    8880022    1    1    2    0    0  0.12382197163E+03 -0.46850733419E+03 -0.11200049539E+04  0.12298917646E+04  0.15294330000E+03 0.  0.
<mgrwt>
<rscale>  0 0.72601688E+03</rscale>
<asrwt>0</asrwt>
<pdfrwt beam="1">  1        2 0.31139654E+00 0.81770484E+03</pdfrwt>
<pdfrwt beam="2">  1       -2 0.38739119E-01 0.81770484E+03</pdfrwt>
<totfact> 0.41729894E+01</totfact>
</mgrwt>
</event>
<event>
 4    2  0.6914693E-007  0.7288474E+03  0.7818608E-02  0.9893713E-01
          2   -1    0    0  501    0  0.00000000000E+00  0.00000000000E+00  0.78178583596E+03  0.78178583597E+03  0.25500000000E-02 0. -1.
         -2   -1    0    0    0  501 -0.00000000000E+00 -0.00000000000E+00 -0.38929161419E+03  0.38929161419E+03  0.25500000000E-02 0.  1.
    8880023    1    1    2    0    0 -0.18781901305E+03  0.24926359593E+03  0.38307646269E+03  0.82338697126E+03  0.65864270000E+03 0. -1.
    8880022    1    1    2    0    0  0.18781901305E+03 -0.24926359593E+03  0.94177590912E+01  0.34769047890E+03  0.15294330000E+03 0.  1.
<mgrwt>
<rscale>  0 0.60566965E+03</rscale>
<asrwt>0</asrwt>
<pdfrwt beam="1">  1        2 0.12027474E+00 0.72884740E+03</pdfrwt>
<pdfrwt beam="2">  1       -2 0.59891018E-01 0.72884740E+03</pdfrwt>
<totfact> 0.93616579E+01</totfact>
</mgrwt>
</event>
<event>
 4    2  0.6914693E-007  0.6873792E+03  0.7818608E-02  0.1005424E+00
         -2   -1    0    0    0  501 -0.00000000000E+00  0.00000000000E+00  0.11027689328E+04  0.11027689328E+04  0.25500000000E-02 0.  1.
          2   -1    0    0  501    0  0.00000000000E+00 -0.00000000000E+00 -0.61385163035E+03  0.61385163036E+03  0.25500000000E-02 0. -1.
    8880023    1    1    2    0    0  0.10979599595E+03 -0.16317108846E+03  0.96176536023E+03  0.11821517581E+04  0.65864270000E+03 0.  1.
    8880022    1    1    2    0    0 -0.10979599595E+03  0.16317108846E+03 -0.47284805776E+03  0.53446880506E+03  0.15294330000E+03 0.  0.
<mgrwt>
<rscale>  0 0.53334586E+03</rscale>
<asrwt>0</asrwt>
<pdfrwt beam="1">  1        2 0.94438712E-01 0.68737920E+03</pdfrwt>
<pdfrwt beam="2">  1       -2 0.16965676E+00 0.68737920E+03</pdfrwt>
<totfact> 0.10581238E+01</totfact>
</mgrwt>
</event>
<event>
 4    2  0.6914693E-007  0.7201915E+03  0.7818608E-02  0.9921939E-01
          2   -1    0    0  501    0  0.00000000000E+00  0.00000000000E+00  0.10515199763E+04  0.10515199763E+04  0.25500000000E-02 0. -1.
         -2   -1    0    0    0  501 -0.00000000000E+00 -0.00000000000E+00 -0.49903417329E+03  0.49903417330E+03  0.25500000000E-02 0.  1.
    8880023    1    1    2    0    0  0.26565081285E+03 -0.11956256143E+03 -0.18450739803E+03  0.74345056773E+03  0.65864270000E+03 0.  1.
    8880022    1    1    2    0    0 -0.26565081285E+03  0.11956256143E+03  0.73699320104E+03  0.80710358187E+03  0.15294330000E+03 0.  0.
<mgrwt>
<rscale>  0 0.59209731E+03</rscale>
<asrwt>0</asrwt>
<pdfrwt beam="1">  1        2 0.16177230E+00 0.72019148E+03</pdfrwt>
<pdfrwt beam="2">  1       -2 0.76774489E-01 0.72019148E+03</pdfrwt>
<totfact> 0.36094642E+01</totfact>
</mgrwt>
</event>
<event>
 4    2  0.6914693E-007  0.6704487E+03  0.7818608E-02  0.1015343E+00
          2   -1    0    0  501    0  0.00000000000E+00  0.00000000000E+00  0.81026776879E+03  0.81026776880E+03  0.25500000000E-02 0. -1.
         -2   -1    0    0    0  501 -0.00000000000E+00 -0.00000000000E+00 -0.99163842045E+03  0.99163842045E+03  0.25500000000E-02 0.  1.
    8880023    1    1    2    0    0 -0.12209400324E+03 -0.28005959248E+02 -0.86263431863E+03  0.10925380787E+04  0.65864270000E+03 0.  1.
    8880022    1    1    2    0    0  0.12209400324E+03  0.28005959248E+02  0.68126366697E+03  0.70936811059E+03  0.15294330000E+03 0.  0.
<mgrwt>
<rscale>  0 0.49405189E+03</rscale>
<asrwt>0</asrwt>
<pdfrwt beam="1">  1        2 0.12465658E+00 0.67044872E+03</pdfrwt>
<pdfrwt beam="2">  1       -2 0.15255976E+00 0.67044872E+03</pdfrwt>
<totfact> 0.99543667E+00</totfact>
</mgrwt>
</event>
<event>
 4    2  0.1045955E-006  0.6898364E+03  0.7818608E-02  0.1004230E+00
          2   -1    0    0  501    0  0.00000000000E+00  0.00000000000E+00  0.14979033954E+04  0.14979033954E+04  0.25500000000E-02 0. -1.
         -2   -1    0    0    0  501 -0.00000000000E+00 -0.00000000000E+00 -0.75442821575E+03  0.75442821575E+03  0.25500000000E-02 0.  1.
    8880023    1    1    2    0    0  0.20344559968E+03  0.25960637367E+02 -0.58190153414E+03  0.90248748934E+03  0.65864270000E+03 0.  1.
    8880022    1    1    2    0    0 -0.20344559968E+03 -0.25960637367E+02  0.13253767138E+04  0.13498441218E+04  0.15294330000E+03 0.  0.
<mgrwt>
<rscale>  0 0.53833552E+03</rscale>
<asrwt>0</asrwt>
<pdfrwt beam="1">  1        2 0.23044667E+00 0.68983641E+03</pdfrwt>
<pdfrwt beam="2">  1       -2 0.11606588E+00 0.68983641E+03</pdfrwt>
<totfact> 0.75880626E+00</totfact>
</mgrwt>
</event>
<event>
 4    2  0.6914693E-007  0.6638435E+03  0.7818608E-02  0.1020524E+00
         -2   -1    0    0    0  501 -0.00000000000E+00  0.00000000000E+00  0.15189941892E+03  0.15189941894E+03  0.25500000000E-02 0.  1.
          2   -1    0    0  501    0  0.00000000000E+00 -0.00000000000E+00 -0.23288911932E+04  0.23288911932E+04  0.25500000000E-02 0. -1.
    8880023    1    1    2    0    0 -0.10345139317E+02  0.82285499800E+02 -0.60179998234E+03  0.89601972657E+03  0.65864270000E+03 0.  1.
    8880022    1    1    2    0    0  0.10345139317E+02 -0.82285499800E+02 -0.15751917919E+04  0.15847708855E+04  0.15294330000E+03 0.  0.
<mgrwt>
<rscale>  0 0.47497971E+03</rscale>
<asrwt>0</asrwt>
<pdfrwt beam="1">  1        2 0.35829093E+00 0.66384345E+03</pdfrwt>
<pdfrwt beam="2">  1       -2 0.23369143E-01 0.66384345E+03</pdfrwt>
<totfact> 0.73941480E+01</totfact>
</mgrwt>
</event>
<event>
 4    2  0.6914693E-007  0.9238294E+03  0.7818608E-02  0.9488812E-01
          2   -1    0    0  501    0  0.00000000000E+00  0.00000000000E+00  0.27997952828E+04  0.27997952828E+04  0.25500000000E-02 0. -1.
         -2   -1    0    0    0  501 -0.00000000000E+00 -0.00000000000E+00 -0.28400226982E+03  0.28400226983E+03  0.25500000000E-02 0.  1.
    8880023    1    1    2    0    0 -0.60494333538E+03 -0.23171996791E+03  0.72825951370E+03  0.11763599399E+04  0.65864270000E+03 0.  0.
    8880022    1    1    2    0    0  0.60494333538E+03  0.23171996791E+03  0.17875334993E+04  0.19074376128E+04  0.15294330000E+03 0.  0.
<mgrwt>
<rscale>  0 0.85113702E+03</rscale>
<asrwt>0</asrwt>
<pdfrwt beam="1">  1        2 0.43073776E+00 0.92382942E+03</pdfrwt>
<pdfrwt beam="2">  1       -2 0.43692654E-01 0.92382942E+03</pdfrwt>
<totfact> 0.11818962E+01</totfact>
</mgrwt>
</event>
<event>
 4    2  0.6914693E-007  0.1159301E+04  0.7818608E-02  0.9197737E-01
         -2   -1    0    0    0  501 -0.00000000000E+00  0.00000000000E+00  0.17948218929E+04  0.17948218929E+04  0.25500000000E-02 0.  1.
          2   -1    0    0  501    0  0.00000000000E+00 -0.00000000000E+00 -0.11822411416E+04  0.11822411416E+04  0.25500000000E-02 0. -1.
    8880023    1    1    2    0    0  0.40645301766E+03  0.86311342083E+03  0.13368715839E+04  0.17695210286E+04  0.65864270000E+03 0.  0.
    8880022    1    1    2    0    0 -0.40645301766E+03 -0.86311342083E+03 -0.72429083255E+03  0.12075420059E+04  0.15294330000E+03 0.  0.
<mgrwt>
<rscale>  0 0.11076817E+04</rscale>
<asrwt>0</asrwt>
<pdfrwt beam="1">  1        2 0.18188325E+00 0.11593011E+04</pdfrwt>
<pdfrwt beam="2">  1       -2 0.27612645E+00 0.11593011E+04</pdfrwt>
<totfact> 0.84545647E-01</totfact>
</mgrwt>
</event>
<event>
 4    2  0.6914693E-007  0.8898918E+03  0.7818608E-02  0.9542457E-01
         -2   -1    0    0    0  501 -0.00000000000E+00  0.00000000000E+00  0.82331152200E+03  0.82331152200E+03  0.25500000000E-02 0.  1.
          2   -1    0    0  501    0  0.00000000000E+00 -0.00000000000E+00 -0.11823612531E+04  0.11823612531E+04  0.25500000000E-02 0. -1.
    8880023    1    1    2    0    0  0.20962483649E+03 -0.56049501846E+03  0.44243571583E+03  0.99380924060E+03  0.65864270000E+03 0.  0.
    8880022    1    1    2    0    0 -0.20962483649E+03  0.56049501846E+03 -0.80148544692E+03  0.10118635345E+04  0.15294330000E+03 0.  0.
<mgrwt>
<rscale>  0 0.81224706E+03</rscale>
<asrwt>0</asrwt>
<pdfrwt beam="1">  1        2 0.18190173E+00 0.88989182E+03</pdfrwt>
<pdfrwt beam="2">  1       -2 0.12666331E+00 0.88989182E+03</pdfrwt>
<totfact> 0.90310130E+00</totfact>
</mgrwt>
</event>
<event>
 4    2  0.6914693E-007  0.7421788E+03  0.7818608E-02  0.9853645E-01
         -2   -1    0    0    0  501 -0.00000000000E+00  0.00000000000E+00  0.33809328289E+03  0.33809328290E+03  0.25500000000E-02 0.  1.
          2   -1    0    0  501    0  0.00000000000E+00 -0.00000000000E+00 -0.10600840322E+04  0.10600840322E+04  0.25500000000E-02 0. -1.
    8880023    1    1    2    0    0  0.25990361131E+03 -0.22241687143E+03 -0.22456902081E+03  0.77540995818E+03  0.65864270000E+03 0.  1.
    8880022    1    1    2    0    0 -0.25990361131E+03  0.22241687143E+03 -0.49742172853E+03  0.62276735696E+03  0.15294330000E+03 0. -1.
<mgrwt>
<rscale>  0 0.62561402E+03</rscale>
<asrwt>0</asrwt>
<pdfrwt beam="1">  1        2 0.16308985E+00 0.74217879E+03</pdfrwt>
<pdfrwt beam="2">  1       -2 0.52014352E-01 0.74217879E+03</pdfrwt>
<totfact> 0.81745655E+01</totfact>
</mgrwt>
</event>
<event>
 4    2  0.6914693E-007  0.7496593E+03  0.7818608E-02  0.9832654E-01
         -2   -1    0    0    0  501 -0.00000000000E+00  0.00000000000E+00  0.56769364439E+03  0.56769364440E+03  0.25500000000E-02 0.  1.
          2   -1    0    0  501    0  0.00000000000E+00 -0.00000000000E+00 -0.16714119334E+04  0.16714119334E+04  0.25500000000E-02 0. -1.
    8880023    1    1    2    0    0 -0.34674629440E+03  0.89139259058E+02  0.28107982866E+03  0.80062155637E+03  0.65864270000E+03 0.  1.
    8880022    1    1    2    0    0  0.34674629440E+03 -0.89139259058E+02 -0.13847981177E+04  0.14384840215E+04  0.15294330000E+03 0.  0.
<mgrwt>
<rscale>  0 0.63639206E+03</rscale>
<asrwt>0</asrwt>
<pdfrwt beam="1">  1        2 0.25714030E+00 0.74965926E+03</pdfrwt>
<pdfrwt beam="2">  1       -2 0.87337484E-01 0.74965926E+03</pdfrwt>
<totfact> 0.11841983E+01</totfact>
</mgrwt>
</event>
<event>
 4    2  0.6914693E-007  0.6987498E+03  0.7818608E-02  0.1000243E+00
          2   -1    0    0  501    0  0.00000000000E+00  0.00000000000E+00  0.13232416568E+04  0.13232416568E+04  0.25500000000E-02 0. -1.
         -2   -1    0    0    0  501 -0.00000000000E+00 -0.00000000000E+00 -0.30265046687E+03  0.30265046688E+03  0.25500000000E-02 0.  1.
    8880023    1    1    2    0    0 -0.18254674094E+03 -0.14531952188E+03  0.15402504781E+03  0.71552428169E+03  0.65864270000E+03 0.  1.
    8880022    1    1    2    0    0  0.18254674094E+03  0.14531952188E+03  0.86656614214E+03  0.91036784202E+03  0.15294330000E+03 0.  0.
<mgrwt>
<rscale>  0 0.55543924E+03</rscale>
<asrwt>0</asrwt>
<pdfrwt beam="1">  1        2 0.20357564E+00 0.69874980E+03</pdfrwt>
<pdfrwt beam="2">  1       -2 0.46561610E-01 0.69874980E+03</pdfrwt>
<totfact> 0.71676609E+01</totfact>
</mgrwt>
</event>
<event>
 4    2  0.6914693E-007  0.7776065E+03  0.7818608E-02  0.9761490E-01
          2   -1    0    0  501    0  0.00000000000E+00  0.00000000000E+00  0.22369337267E+04  0.22369337267E+04  0.25500000000E-02 0. -1.
         -2   -1    0    0    0  501 -0.00000000000E+00 -0.00000000000E+00 -0.36965508045E+03  0.36965508046E+03  0.25500000000E-02 0.  1.
    8880023    1    1    2    0    0  0.40369167062E+03  0.88851839106E+02  0.98612270701E+02  0.78383429399E+03  0.65864270000E+03 0.  1.
    8880022    1    1    2    0    0 -0.40369167062E+03 -0.88851839106E+02  0.17686663755E+04  0.18227545131E+04  0.15294330000E+03 0.  0.
<mgrwt>
<rscale>  0 0.67470813E+03</rscale>
<asrwt>0</asrwt>
<pdfrwt beam="1">  1        2 0.34414365E+00 0.77760647E+03</pdfrwt>
<pdfrwt beam="2">  1       -2 0.56870013E-01 0.77760647E+03</pdfrwt>
<totfact> 0.14787171E+01</totfact>
</mgrwt>
</event>
<event>
 4    2  0.6914693E-007  0.8348577E+03  0.7818608E-02  0.9639954E-01
          2   -1    0    0  501    0  0.00000000000E+00  0.00000000000E+00  0.35350801852E+04  0.35350801852E+04  0.25500000000E-02 0. -1.
         -2   -1    0    0    0  501 -0.00000000000E+00 -0.00000000000E+00 -0.27621019073E+03  0.27621019074E+03  0.25500000000E-02 0.  1.
    8880023    1    1    2    0    0  0.19011478347E+03 -0.47648028858E+03  0.44324215155E+03  0.94522532101E+03  0.65864270000E+03 0.  0.
    8880022    1    1    2    0    0 -0.19011478347E+03  0.47648028858E+03  0.28156278429E+04  0.28660650549E+04  0.15294330000E+03 0. -1.
<mgrwt>
<rscale>  0 0.74707281E+03</rscale>
<asrwt>0</asrwt>
<pdfrwt beam="1">  1        2 0.54385843E+00 0.83485765E+03</pdfrwt>
<pdfrwt beam="2">  1       -2 0.42493880E-01 0.83485765E+03</pdfrwt>
<totfact> 0.43051659E+00</totfact>
</mgrwt>
</event>
<event>
 4    2  0.6914693E-007  0.1024142E+04  0.7818608E-02  0.9350632E-01
         -2   -1    0    0    0  501 -0.00000000000E+00  0.00000000000E+00  0.45247498879E+03  0.45247498880E+03  0.25500000000E-02 0.  1.
          2   -1    0    0  501    0  0.00000000000E+00 -0.00000000000E+00 -0.19996403623E+04  0.19996403623E+04  0.25500000000E-02 0. -1.
    8880023    1    1    2    0    0  0.13957921775E+03 -0.77173486660E+03 -0.12090034415E+04  0.15844736004E+04  0.65864270000E+03 0.  0.
    8880022    1    1    2    0    0 -0.13957921775E+03  0.77173486660E+03 -0.33816193198E+03  0.86764175073E+03  0.15294330000E+03 0.  0.
<mgrwt>
<rscale>  0 0.96252264E+03</rscale>
<asrwt>0</asrwt>
<pdfrwt beam="1">  1        2 0.30763698E+00 0.10241422E+04</pdfrwt>
<pdfrwt beam="2">  1       -2 0.69611537E-01 0.10241422E+04</pdfrwt>
<totfact> 0.12582337E+01</totfact>
</mgrwt>
</event>
<event>
 4    2  0.6914693E-007  0.7312860E+03  0.7818608E-02  0.9886098E-01
         -2   -1    0    0    0  501 -0.00000000000E+00  0.00000000000E+00  0.28212245122E+03  0.28212245123E+03  0.25500000000E-02 0.  1.
          2   -1    0    0  501    0  0.00000000000E+00 -0.00000000000E+00 -0.13928543468E+04  0.13928543468E+04  0.25500000000E-02 0. -1.
    8880023    1    1    2    0    0  0.14722296541E+03 -0.28159272023E+03 -0.29918395177E+03  0.79012043695E+03  0.65864270000E+03 0.  0.
    8880022    1    1    2    0    0 -0.14722296541E+03  0.28159272023E+03 -0.81154794378E+03  0.88485636105E+03  0.15294330000E+03 0.  0.
<mgrwt>
<rscale>  0 0.60939777E+03</rscale>
<asrwt>0</asrwt>
<pdfrwt beam="1">  1        2 0.21428528E+00 0.73128604E+03</pdfrwt>
<pdfrwt beam="2">  1       -2 0.43403455E-01 0.73128604E+03</pdfrwt>
<totfact> 0.75020494E+01</totfact>
</mgrwt>
</event>
<event>
 4    2  0.6914693E-007  0.8737098E+03  0.7818608E-02  0.9569627E-01
          2   -1    0    0  501    0  0.00000000000E+00  0.00000000000E+00  0.15525695469E+04  0.15525695469E+04  0.25500000000E-02 0. -1.
         -2   -1    0    0    0  501 -0.00000000000E+00 -0.00000000000E+00 -0.72843217454E+03  0.72843217454E+03  0.25500000000E-02 0.  1.
    8880023    1    1    2    0    0 -0.55897691006E+03  0.13078036805E+03 -0.36876790344E+03  0.94834522381E+03  0.65864270000E+03 0.  1.
    8880022    1    1    2    0    0  0.55897691006E+03 -0.13078036805E+03  0.11929052758E+04  0.13326564976E+04  0.15294330000E+03 0.  0.
<mgrwt>
<rscale>  0 0.79339530E+03</rscale>
<asrwt>0</asrwt>
<pdfrwt beam="1">  1        2 0.23885685E+00 0.87370985E+03</pdfrwt>
<pdfrwt beam="2">  1       -2 0.11206649E+00 0.87370985E+03</pdfrwt>
<totfact> 0.75150444E+00</totfact>
</mgrwt>
</event>
<event>
 4    2  0.6914693E-007  0.1022471E+04  0.7818608E-02  0.9352732E-01
          2   -1    0    0  501    0  0.00000000000E+00  0.00000000000E+00  0.23834754578E+04  0.23834754578E+04  0.25500000000E-02 0. -1.
         -2   -1    0    0    0  501 -0.00000000000E+00 -0.00000000000E+00 -0.66081422888E+03  0.66081422888E+03  0.25500000000E-02 0.  1.
    8880023    1    1    2    0    0  0.74301560817E+03  0.24405650102E+03 -0.12694498529E+03  0.10303208264E+04  0.65864270000E+03 0.  0.
    8880022    1    1    2    0    0 -0.74301560817E+03 -0.24405650102E+03  0.18496062143E+04  0.20139688604E+04  0.15294330000E+03 0.  0.
<mgrwt>
<rscale>  0 0.96069860E+03</rscale>
<asrwt>0</asrwt>
<pdfrwt beam="1">  1        2 0.36668853E+00 0.10224705E+04</pdfrwt>
<pdfrwt beam="2">  1       -2 0.10166373E+00 0.10224705E+04</pdfrwt>
<totfact> 0.32374083E+00</totfact>
</mgrwt>
</event>
<event>
 4    2  0.6914693E-007  0.6671173E+03  0.7818608E-02  0.1017819E+00
         -2   -1    0    0    0  501 -0.00000000000E+00  0.00000000000E+00  0.50248161967E+03  0.50248161968E+03  0.25500000000E-02 0.  1.
          2   -1    0    0  501    0  0.00000000000E+00 -0.00000000000E+00 -0.98184819657E+03  0.98184819657E+03  0.25500000000E-02 0. -1.
    8880023    1    1    2    0    0  0.10533439143E+03 -0.11830964113E+02  0.26442709097E+03  0.71761215042E+03  0.65864270000E+03 0.  1.
    8880022    1    1    2    0    0 -0.10533439143E+03  0.11830964113E+02 -0.74379366787E+03  0.76671766583E+03  0.15294330000E+03 0.  0.
<mgrwt>
<rscale>  0 0.48481768E+03</rscale>
<asrwt>0</asrwt>
<pdfrwt beam="1">  1        2 0.15105357E+00 0.66711732E+03</pdfrwt>
<pdfrwt beam="2">  1       -2 0.77304865E-01 0.66711732E+03</pdfrwt>
<totfact> 0.39547683E+01</totfact>
</mgrwt>
</event>
<event>
 4    2  0.6914693E-007  0.7056711E+03  0.7818608E-02  0.9974442E-01
          2   -1    0    0  501    0  0.00000000000E+00  0.00000000000E+00  0.67713770649E+03  0.67713770649E+03  0.25500000000E-02 0. -1.
         -2   -1    0    0    0  501 -0.00000000000E+00 -0.00000000000E+00 -0.47037626183E+03  0.47037626183E+03  0.25500000000E-02 0.  1.
    8880023    1    1    2    0    0 -0.23242310695E+03 -0.10070248144E+03 -0.10983837187E+03  0.71416816270E+03  0.65864270000E+03 0.  1.
    8880022    1    1    2    0    0  0.23242310695E+03  0.10070248144E+03  0.31659981653E+03  0.43334580563E+03  0.15294330000E+03 0.  0.
<mgrwt>
<rscale>  0 0.56785273E+03</rscale>
<asrwt>0</asrwt>
<pdfrwt beam="1">  1        2 0.10417503E+00 0.70567110E+03</pdfrwt>
<pdfrwt beam="2">  1       -2 0.72365579E-01 0.70567110E+03</pdfrwt>
<totfact> 0.74972771E+01</totfact>
</mgrwt>
</event>
<event>
 4    2  0.6914693E-007  0.8249556E+03  0.7818608E-02  0.9659228E-01
          2   -1    0    0  501    0  0.00000000000E+00  0.00000000000E+00  0.10508592926E+04  0.10508592926E+04  0.25500000000E-02 0. -1.
         -2   -1    0    0    0  501 -0.00000000000E+00 -0.00000000000E+00 -0.11457479844E+04  0.11457479844E+04  0.25500000000E-02 0.  1.
    8880023    1    1    2    0    0  0.27835878403E+03 -0.41140967932E+03 -0.91102217170E+03  0.12290293489E+04  0.65864270000E+03 0.  0.
    8880022    1    1    2    0    0 -0.27835878403E+03  0.41140967932E+03  0.81613347988E+03  0.96757792807E+03  0.15294330000E+03 0.  0.
<mgrwt>
<rscale>  0 0.73497095E+03</rscale>
<asrwt>0</asrwt>
<pdfrwt beam="1">  1        2 0.16167066E+00 0.82495560E+03</pdfrwt>
<pdfrwt beam="2">  1       -2 0.17626892E+00 0.82495560E+03</pdfrwt>
<totfact> 0.45516875E+00</totfact>
</mgrwt>
</event>
<event>
 4    2  0.6914693E-007  0.6738455E+03  0.7818608E-02  0.1013044E+00
          2   -1    0    0  501    0  0.00000000000E+00  0.00000000000E+00  0.93311476700E+03  0.93311476701E+03  0.25500000000E-02 0. -1.
         -2   -1    0    0    0  501 -0.00000000000E+00 -0.00000000000E+00 -0.58249810946E+03  0.58249810947E+03  0.25500000000E-02 0.  1.
    8880023    1    1    2    0    0  0.75056247223E+02 -0.12093006644E+03 -0.36762363365E+03  0.76760332432E+03  0.65864270000E+03 0.  0.
    8880022    1    1    2    0    0 -0.75056247223E+02  0.12093006644E+03  0.71824029119E+03  0.74800955216E+03  0.15294330000E+03 0.  0.
<mgrwt>
<rscale>  0 0.50282544E+03</rscale>
<asrwt>0</asrwt>
<pdfrwt beam="1">  1        2 0.14355612E+00 0.67384548E+03</pdfrwt>
<pdfrwt beam="2">  1       -2 0.89615094E-01 0.67384548E+03</pdfrwt>
<totfact> 0.30420702E+01</totfact>
</mgrwt>
</event>
<event>
 4    2  0.6914693E-007  0.7363983E+03  0.7818608E-02  0.9870565E-01
          2   -1    0    0  501    0  0.00000000000E+00  0.00000000000E+00  0.25760054536E+04  0.25760054536E+04  0.25500000000E-02 0. -1.
         -2   -1    0    0    0  501 -0.00000000000E+00 -0.00000000000E+00 -0.13504002548E+03  0.13504002550E+03  0.25500000000E-02 0.  1.
    8880023    1    1    2    0    0 -0.21308851470E+03 -0.25112861392E+03  0.11147971892E+04  0.13360596076E+04  0.65864270000E+03 0.  1.
    8880022    1    1    2    0    0  0.21308851470E+03  0.25112861392E+03  0.13261682390E+04  0.13749858715E+04  0.15294330000E+03 0.  0.
<mgrwt>
<rscale>  0 0.61709263E+03</rscale>
<asrwt>0</asrwt>
<pdfrwt beam="1">  1        2 0.39630851E+00 0.73639833E+03</pdfrwt>
<pdfrwt beam="2">  1       -2 0.20775390E-01 0.73639833E+03</pdfrwt>
<totfact> 0.65466638E+01</totfact>
</mgrwt>
</event>
<event>
 4    2  0.6914693E-007  0.1103171E+04  0.7818608E-02  0.9257534E-01
          2   -1    0    0  501    0  0.00000000000E+00  0.00000000000E+00  0.75139380757E+03  0.75139380757E+03  0.25500000000E-02 0. -1.
         -2   -1    0    0    0  501 -0.00000000000E+00 -0.00000000000E+00 -0.14948232272E+04  0.14948232272E+04  0.25500000000E-02 0.  1.
    8880023    1    1    2    0    0  0.20996292729E+03 -0.85970412892E+03 -0.77398782809E+03  0.13476063908E+04  0.65864270000E+03 0.  0.
    8880022    1    1    2    0    0 -0.20996292729E+03  0.85970412892E+03  0.30558408498E+02  0.89861064398E+03  0.15294330000E+03 0.  0.
<mgrwt>
<rscale>  0 0.10478814E+04</rscale>
<asrwt>0</asrwt>
<pdfrwt beam="1">  1        2 0.11559905E+00 0.11031708E+04</pdfrwt>
<pdfrwt beam="2">  1       -2 0.22997280E+00 0.11031708E+04</pdfrwt>
<totfact> 0.31522212E+00</totfact>
</mgrwt>
</event>
<event>
 4    2  0.6914693E-007  0.6671566E+03  0.7818608E-02  0.1017789E+00
          2   -1    0    0  501    0  0.00000000000E+00  0.00000000000E+00  0.19611215559E+04  0.19611215559E+04  0.25500000000E-02 0. -1.
         -2   -1    0    0    0  501 -0.00000000000E+00 -0.00000000000E+00 -0.19932801849E+03  0.19932801850E+03  0.25500000000E-02 0.  1.
    8880023    1    1    2    0    0 -0.34666165659E+02  0.10042908698E+03  0.38328402592E+03  0.76941834872E+03  0.65864270000E+03 0.  1.
    8880022    1    1    2    0    0  0.34666165659E+02 -0.10042908698E+03  0.13785095115E+04  0.13910312257E+04  0.15294330000E+03 0.  0.
<mgrwt>
<rscale>  0 0.48493082E+03</rscale>
<asrwt>0</asrwt>
<pdfrwt beam="1">  1        2 0.30171100E+00 0.66715662E+03</pdfrwt>
<pdfrwt beam="2">  1       -2 0.30665850E-01 0.66715662E+03</pdfrwt>
<totfact> 0.71675138E+01</totfact>
</mgrwt>
</event>
<event>
 4    2  0.6914693E-007  0.6891934E+03  0.7818608E-02  0.1004538E+00
         -2   -1    0    0    0  501 -0.00000000000E+00  0.00000000000E+00  0.11563084941E+03  0.11563084944E+03  0.25500000000E-02 0.  1.
          2   -1    0    0  501    0  0.00000000000E+00 -0.00000000000E+00 -0.32925188706E+04  0.32925188706E+04  0.25500000000E-02 0. -1.
    8880023    1    1    2    0    0 -0.20083483251E+03  0.29029071163E+02 -0.98838941385E+03  0.12049486116E+04  0.65864270000E+03 0.  1.
    8880022    1    1    2    0    0  0.20083483251E+03 -0.29029071163E+02 -0.21884986074E+04  0.22032011085E+04  0.15294330000E+03 0.  0.
<mgrwt>
<rscale>  0 0.53704269E+03</rscale>
<asrwt>0</asrwt>
<pdfrwt beam="1">  1        2 0.50654129E+00 0.68919339E+03</pdfrwt>
<pdfrwt beam="2">  1       -2 0.17789364E-01 0.68919339E+03</pdfrwt>
<totfact> 0.31797188E+01</totfact>
</mgrwt>
</event>
<event>
 4    2  0.6914693E-007  0.8307208E+03  0.7818608E-02  0.9647931E-01
         -2   -1    0    0    0  501 -0.00000000000E+00  0.00000000000E+00  0.63320709194E+03  0.63320709194E+03  0.25500000000E-02 0.  1.
          2   -1    0    0  501    0  0.00000000000E+00 -0.00000000000E+00 -0.10282293795E+04  0.10282293795E+04  0.25500000000E-02 0. -1.
    8880023    1    1    2    0    0  0.35546061922E+03  0.36046450277E+03  0.21101102965E+03  0.85710137701E+03  0.65864270000E+03 0.  1.
    8880022    1    1    2    0    0 -0.35546061922E+03 -0.36046450277E+03 -0.60603331722E+03  0.80433509445E+03  0.15294330000E+03 0.  0.
<mgrwt>
<rscale>  0 0.74203387E+03</rscale>
<asrwt>0</asrwt>
<pdfrwt beam="1">  1        2 0.15818914E+00 0.83072084E+03</pdfrwt>
<pdfrwt beam="2">  1       -2 0.97416475E-01 0.83072084E+03</pdfrwt>
<totfact> 0.21415653E+01</totfact>
</mgrwt>
</event>
<event>
 4    2  0.6914693E-007  0.8321958E+03  0.7818608E-02  0.9645075E-01
         -2   -1    0    0    0  501 -0.00000000000E+00  0.00000000000E+00  0.10087386882E+04  0.10087386882E+04  0.25500000000E-02 0.  1.
          2   -1    0    0  501    0  0.00000000000E+00 -0.00000000000E+00 -0.48695171835E+03  0.48695171835E+03  0.25500000000E-02 0. -1.
    8880023    1    1    2    0    0 -0.50070920479E+03  0.89609885960E+02  0.48510818889E+03  0.96326517669E+03  0.65864270000E+03 0. -1.
    8880022    1    1    2    0    0  0.50070920479E+03 -0.89609885960E+02  0.36678780975E+02  0.53242522988E+03  0.15294330000E+03 0.  1.
<mgrwt>
<rscale>  0 0.74383318E+03</rscale>
<asrwt>0</asrwt>
<pdfrwt beam="1">  1        2 0.74915650E-01 0.83219580E+03</pdfrwt>
<pdfrwt beam="2">  1       -2 0.15519057E+00 0.83219580E+03</pdfrwt>
<totfact> 0.17495126E+01</totfact>
</mgrwt>
</event>
<event>
 4    2  0.6914693E-007  0.9256702E+03  0.7818608E-02  0.9486019E-01
         -2   -1    0    0    0  501 -0.00000000000E+00  0.00000000000E+00  0.88767369377E+03  0.88767369378E+03  0.25500000000E-02 0.  1.
          2   -1    0    0  501    0  0.00000000000E+00 -0.00000000000E+00 -0.14571960051E+04  0.14571960051E+04  0.25500000000E-02 0. -1.
    8880023    1    1    2    0    0 -0.27604057904E+03 -0.58894535826E+03  0.52376162788E+03  0.10635748612E+04  0.65864270000E+03 0.  0.
    8880022    1    1    2    0    0  0.27604057904E+03  0.58894535826E+03 -0.10932839392E+04  0.12812948377E+04  0.15294330000E+03 0.  0.
<mgrwt>
<rscale>  0 0.85322466E+03</rscale>
<asrwt>0</asrwt>
<pdfrwt beam="1">  1        2 0.22418400E+00 0.92567016E+03</pdfrwt>
<pdfrwt beam="2">  1       -2 0.13656518E+00 0.92567016E+03</pdfrwt>
<totfact> 0.51483795E+00</totfact>
</mgrwt>
</event>
<event>
 4    2  0.6914693E-007  0.1028778E+04  0.7818608E-02  0.9344839E-01
         -2   -1    0    0    0  501 -0.00000000000E+00  0.00000000000E+00  0.49403769098E+03  0.49403769099E+03  0.25500000000E-02 0.  1.
          2   -1    0    0  501    0  0.00000000000E+00 -0.00000000000E+00 -0.26786629019E+04  0.26786629019E+04  0.25500000000E-02 0. -1.
    8880023    1    1    2    0    0  0.69629808071E+03  0.37382331688E+03 -0.22346639432E+03  0.10527688849E+04  0.65864270000E+03 0.  1.
    8880022    1    1    2    0    0 -0.69629808071E+03 -0.37382331688E+03 -0.19611588166E+04  0.21199317080E+04  0.15294330000E+03 0.  0.
<mgrwt>
<rscale>  0 0.96757684E+03</rscale>
<asrwt>0</asrwt>
<pdfrwt beam="1">  1        2 0.41210198E+00 0.10287784E+04</pdfrwt>
<pdfrwt beam="2">  1       -2 0.76005800E-01 0.10287784E+04</pdfrwt>
<totfact> 0.42820615E+00</totfact>
</mgrwt>
</event>
<event>
 4    2  0.6914693E-007  0.6909084E+03  0.7818608E-02  0.1003724E+00
          2   -1    0    0  501    0  0.00000000000E+00  0.00000000000E+00  0.19524755152E+04  0.19524755152E+04  0.25500000000E-02 0. -1.
         -2   -1    0    0    0  501 -0.00000000000E+00 -0.00000000000E+00 -0.16827891321E+03  0.16827891322E+03  0.25500000000E-02 0.  1.
    8880023    1    1    2    0    0  0.10772554469E+03  0.17871607880E+03  0.62048908040E+03  0.92863401562E+03  0.65864270000E+03 0.  1.
    8880022    1    1    2    0    0 -0.10772554469E+03 -0.17871607880E+03  0.11637075216E+04  0.11921204128E+04  0.15294330000E+03 0.  0.
<mgrwt>
<rscale>  0 0.54047142E+03</rscale>
<asrwt>0</asrwt>
<pdfrwt beam="1">  1        2 0.30038084E+00 0.69090841E+03</pdfrwt>
<pdfrwt beam="2">  1       -2 0.25889064E-01 0.69090841E+03</pdfrwt>
<totfact> 0.98575414E+01</totfact>
</mgrwt>
</event>
<event>
 4    2  0.6914693E-007  0.9648724E+03  0.7818608E-02  0.9429031E-01
          2   -1    0    0  501    0  0.00000000000E+00  0.00000000000E+00  0.22572069747E+04  0.22572069747E+04  0.25500000000E-02 0. -1.
         -2   -1    0    0    0  501 -0.00000000000E+00 -0.00000000000E+00 -0.48074584620E+03  0.48074584621E+03  0.25500000000E-02 0.  1.
    8880023    1    1    2    0    0  0.69504233249E+03  0.11867918033E+03  0.17383599878E+03  0.98040693211E+03  0.65864270000E+03 0.  1.
    8880022    1    1    2    0    0 -0.69504233249E+03 -0.11867918033E+03  0.16026251297E+04  0.17575458888E+04  0.15294330000E+03 0.  0.
<mgrwt>
<rscale>  0 0.89724552E+03</rscale>
<asrwt>0</asrwt>
<pdfrwt beam="1">  1        2 0.34726261E+00 0.96487243E+03</pdfrwt>
<pdfrwt beam="2">  1       -2 0.73960900E-01 0.96487243E+03</pdfrwt>
<totfact> 0.79808554E+00</totfact>
</mgrwt>
</event>
<event>
 4    2  0.6914693E-007  0.6795705E+03  0.7818608E-02  0.1009568E+00
         -2   -1    0    0    0  501 -0.00000000000E+00  0.00000000000E+00  0.39772972705E+03  0.39772972706E+03  0.25500000000E-02 0.  1.
          2   -1    0    0  501    0  0.00000000000E+00 -0.00000000000E+00 -0.38266046682E+04  0.38266046682E+04  0.25500000000E-02 0. -1.
    8880023    1    1    2    0    0 -0.45846190207E+02 -0.16094725236E+03  0.10113237771E+03  0.68705447767E+03  0.65864270000E+03 0.  1.
    8880022    1    1    2    0    0  0.45846190207E+02  0.16094725236E+03 -0.35300073189E+04  0.35372799176E+04  0.15294330000E+03 0.  0.
<mgrwt>
<rscale>  0 0.51646833E+03</rscale>
<asrwt>0</asrwt>
<pdfrwt beam="1">  1        2 0.58870839E+00 0.67957052E+03</pdfrwt>
<pdfrwt beam="2">  1       -2 0.61189191E-01 0.67957052E+03</pdfrwt>
<totfact> 0.13078033E+00</totfact>
</mgrwt>
</event>
<event>
 4    2  0.6914693E-007  0.6985016E+03  0.7818608E-02  0.1000347E+00
         -2   -1    0    0    0  501 -0.00000000000E+00  0.00000000000E+00  0.16851080059E+03  0.16851080061E+03  0.25500000000E-02 0.  1.
          2   -1    0    0  501    0  0.00000000000E+00 -0.00000000000E+00 -0.21015731273E+04  0.21015731273E+04  0.25500000000E-02 0. -1.
    8880023    1    1    2    0    0  0.18982302604E+03  0.13439312928E+03 -0.63989542380E+03  0.94729649745E+03  0.65864270000E+03 0. -1.
    8880022    1    1    2    0    0 -0.18982302604E+03 -0.13439312928E+03 -0.12931669029E+04  0.13227874304E+04  0.15294330000E+03 0.  0.
<mgrwt>
<rscale>  0 0.55498140E+03</rscale>
<asrwt>0</asrwt>
<pdfrwt beam="1">  1        2 0.32331892E+00 0.69850161E+03</pdfrwt>
<pdfrwt beam="2">  1       -2 0.25924740E-01 0.69850161E+03</pdfrwt>
<totfact> 0.81476551E+01</totfact>
</mgrwt>
</event>
<event>
 4    2  0.6914693E-007  0.7041920E+03  0.7818608E-02  0.9980236E-01
          2   -1    0    0  501    0  0.00000000000E+00  0.00000000000E+00  0.93994146941E+03  0.93994146941E+03  0.25500000000E-02 0. -1.
         -2   -1    0    0    0  501 -0.00000000000E+00 -0.00000000000E+00 -0.78279490229E+03  0.78279490230E+03  0.25500000000E-02 0.  1.
    8880023    1    1    2    0    0 -0.23840788418E+03 -0.72372858142E+02 -0.59110712773E+03  0.91939871250E+03  0.65864270000E+03 0.  1.
    8880022    1    1    2    0    0  0.23840788418E+03  0.72372858142E+02  0.74825369485E+03  0.80333765921E+03  0.15294330000E+03 0.  0.
<mgrwt>
<rscale>  0 0.56525398E+03</rscale>
<asrwt>0</asrwt>
<pdfrwt beam="1">  1        2 0.14460638E+00 0.70419199E+03</pdfrwt>
<pdfrwt beam="2">  1       -2 0.12042998E+00 0.70419199E+03</pdfrwt>
<totfact> 0.14820574E+01</totfact>
</mgrwt>
</event>
<event>
 4    2  0.6914693E-007  0.6756737E+03  0.7818608E-02  0.1011885E+00
         -2   -1    0    0    0  501 -0.00000000000E+00  0.00000000000E+00  0.24929591304E+03  0.24929591305E+03  0.25500000000E-02 0.  1.
          2   -1    0    0  501    0  0.00000000000E+00 -0.00000000000E+00 -0.28725438386E+04  0.28725438386E+04  0.25500000000E-02 0. -1.
    8880023    1    1    2    0    0  0.93304860026E+02  0.11840165075E+03 -0.22229419799E+03  0.71130138797E+03  0.65864270000E+03 0.  1.
    8880022    1    1    2    0    0 -0.93304860026E+02 -0.11840165075E+03 -0.24009537276E+04  0.24105383637E+04  0.15294330000E+03 0.  0.
<mgrwt>
<rscale>  0 0.50732316E+03</rscale>
<asrwt>0</asrwt>
<pdfrwt beam="1">  1        2 0.44192980E+00 0.67567370E+03</pdfrwt>
<pdfrwt beam="2">  1       -2 0.38353219E-01 0.67567370E+03</pdfrwt>
<totfact> 0.14371419E+01</totfact>
</mgrwt>
</event>
<event>
 4    2  0.6914693E-007  0.7948850E+03  0.7818608E-02  0.9721967E-01
         -2   -1    0    0    0  501 -0.00000000000E+00  0.00000000000E+00  0.36161194380E+03  0.36161194381E+03  0.25500000000E-02 0.  1.
          2   -1    0    0  501    0  0.00000000000E+00 -0.00000000000E+00 -0.17300177166E+04  0.17300177166E+04  0.25500000000E-02 0. -1.
    8880023    1    1    2    0    0  0.20823145635E+03 -0.39328311679E+03 -0.18219937004E+03  0.81549909017E+03  0.65864270000E+03 0.  1.
    8880022    1    1    2    0    0 -0.20823145635E+03  0.39328311679E+03 -0.11862064028E+04  0.12761305703E+04  0.15294330000E+03 0.  0.
<mgrwt>
<rscale>  0 0.69723826E+03</rscale>
<asrwt>0</asrwt>
<pdfrwt beam="1">  1        2 0.26615657E+00 0.79488500E+03</pdfrwt>
<pdfrwt beam="2">  1       -2 0.55632608E-01 0.79488500E+03</pdfrwt>
<totfact> 0.29276346E+01</totfact>
</mgrwt>
</event>
<event>
 4    2  0.6914693E-007  0.6622036E+03  0.7818608E-02  0.1022004E+00
         -2   -1    0    0    0  501 -0.00000000000E+00  0.00000000000E+00  0.17369757202E+03  0.17369757204E+03  0.25500000000E-02 0.  1.
          2   -1    0    0  501    0  0.00000000000E+00 -0.00000000000E+00 -0.28157541480E+04  0.28157541480E+04  0.25500000000E-02 0. -1.
    8880023    1    1    2    0    0 -0.41978945995E+02 -0.54232814692E+02 -0.47265011431E+03  0.81357960085E+03  0.65864270000E+03 0.  1.
    8880022    1    1    2    0    0  0.41978945995E+02  0.54232814692E+02 -0.21694064617E+04  0.21758721192E+04  0.15294330000E+03 0.  0.
<mgrwt>
<rscale>  0 0.46970205E+03</rscale>
<asrwt>0</asrwt>
<pdfrwt beam="1">  1        2 0.43319291E+00 0.66220362E+03</pdfrwt>
<pdfrwt beam="2">  1       -2 0.26722705E-01 0.66220362E+03</pdfrwt>
<totfact> 0.30637306E+01</totfact>
</mgrwt>
</event>
<event>
 4    2  0.6914693E-007  0.8022306E+03  0.7818608E-02  0.9705994E-01
         -2   -1    0    0    0  501 -0.00000000000E+00  0.00000000000E+00  0.79114150776E+03  0.79114150776E+03  0.25500000000E-02 0.  1.
          2   -1    0    0  501    0  0.00000000000E+00 -0.00000000000E+00 -0.19175134873E+04  0.19175134873E+04  0.25500000000E-02 0. -1.
    8880023    1    1    2    0    0 -0.40478877645E+03 -0.21426566046E+03  0.54439975907E+03  0.96950762283E+03  0.65864270000E+03 0.  1.
    8880022    1    1    2    0    0  0.40478877645E+03  0.21426566046E+03 -0.16707717386E+04  0.17391473722E+04  0.15294330000E+03 0.  0.
<mgrwt>
<rscale>  0 0.70661052E+03</rscale>
<asrwt>0</asrwt>
<pdfrwt beam="1">  1        2 0.29500207E+00 0.80223060E+03</pdfrwt>
<pdfrwt beam="2">  1       -2 0.12171408E+00 0.80223060E+03</pdfrwt>
<totfact> 0.39038067E+00</totfact>
</mgrwt>
</event>
<event>
 4    2  0.6914693E-007  0.8133837E+03  0.7818608E-02  0.9682571E-01
          2   -1    0    0  501    0  0.00000000000E+00  0.00000000000E+00  0.43355556733E+04  0.43355556733E+04  0.25500000000E-02 0. -1.
         -2   -1    0    0    0  501 -0.00000000000E+00 -0.00000000000E+00 -0.15027437893E+03  0.15027437896E+03  0.25500000000E-02 0.  1.
    8880023    1    1    2    0    0  0.47473531791E+03  0.49084237783E+02  0.11448914096E+04  0.14044107058E+04  0.65864270000E+03 0.  1.
    8880022    1    1    2    0    0 -0.47473531791E+03 -0.49084237783E+02  0.30403898848E+04  0.30814193465E+04  0.15294330000E+03 0.  0.
<mgrwt>
<rscale>  0 0.72064033E+03</rscale>
<asrwt>0</asrwt>
<pdfrwt beam="1">  1        2 0.66700842E+00 0.81338373E+03</pdfrwt>
<pdfrwt beam="2">  1       -2 0.23119140E-01 0.81338373E+03</pdfrwt>
<totfact> 0.32177716E+00</totfact>
</mgrwt>
</event>
<event>
 4    2  0.6914693E-007  0.7470076E+03  0.7818608E-02  0.9839985E-01
          2   -1    0    0  501    0  0.00000000000E+00  0.00000000000E+00  0.13988512435E+04  0.13988512435E+04  0.25500000000E-02 0. -1.
         -2   -1    0    0    0  501 -0.00000000000E+00 -0.00000000000E+00 -0.23468999948E+03  0.23468999949E+03  0.25500000000E-02 0.  1.
    8880023    1    1    2    0    0 -0.32432355524E+03 -0.13792888986E+03  0.88788962494E+03  0.11603311336E+04  0.65864270000E+03 0. -1.
    8880022    1    1    2    0    0  0.32432355524E+03  0.13792888986E+03  0.27627161904E+03  0.47321010941E+03  0.15294330000E+03 0.  0.
<mgrwt>
<rscale>  0 0.63260151E+03</rscale>
<asrwt>0</asrwt>
<pdfrwt beam="1">  1        2 0.21520789E+00 0.74700760E+03</pdfrwt>
<pdfrwt beam="2">  1       -2 0.36106153E-01 0.74700760E+03</pdfrwt>
<totfact> 0.10635948E+02</totfact>
</mgrwt>
</event>
<event>
 4    2  0.6914693E-007  0.9605068E+03  0.7818608E-02  0.9435155E-01
         -2   -1    0    0    0  501 -0.00000000000E+00  0.00000000000E+00  0.13023719904E+04  0.13023719904E+04  0.25500000000E-02 0.  1.
          2   -1    0    0  501    0  0.00000000000E+00 -0.00000000000E+00 -0.79608997872E+03  0.79608997872E+03  0.25500000000E-02 0. -1.
    8880023    1    1    2    0    0 -0.51815849131E+03 -0.46933458195E+03  0.86977167024E+03  0.12957917026E+04  0.65864270000E+03 0.  1.
    8880022    1    1    2    0    0  0.51815849131E+03  0.46933458195E+03 -0.36348965853E+03  0.80267026655E+03  0.15294330000E+03 0.  0.
<mgrwt>
<rscale>  0 0.89238139E+03</rscale>
<asrwt>0</asrwt>
<pdfrwt beam="1">  1        2 0.12247538E+00 0.96050683E+03</pdfrwt>
<pdfrwt beam="2">  1       -2 0.20036492E+00 0.96050683E+03</pdfrwt>
<totfact> 0.45717934E+00</totfact>
</mgrwt>
</event>
<event>
 4    2  0.6914693E-007  0.7925057E+03  0.7818608E-02  0.9727241E-01
          2   -1    0    0  501    0  0.00000000000E+00  0.00000000000E+00  0.24621880451E+04  0.24621880451E+04  0.25500000000E-02 0. -1.
         -2   -1    0    0    0  501 -0.00000000000E+00 -0.00000000000E+00 -0.32818378678E+03  0.32818378679E+03  0.25500000000E-02 0.  1.
    8880023    1    1    2    0    0  0.43220128374E+03  0.86354429249E+02  0.22305221982E+03  0.82329674853E+03  0.65864270000E+03 0.  1.
    8880022    1    1    2    0    0 -0.43220128374E+03 -0.86354429249E+02  0.19109520385E+04  0.19670750833E+04  0.15294330000E+03 0.  0.
<mgrwt>
<rscale>  0 0.69417792E+03</rscale>
<asrwt>0</asrwt>
<pdfrwt beam="1">  1        2 0.37879815E+00 0.79250567E+03</pdfrwt>
<pdfrwt beam="2">  1       -2 0.50489815E-01 0.79250567E+03</pdfrwt>
<totfact> 0.14117885E+01</totfact>
</mgrwt>
</event>
<event>
 4    2  0.6914693E-007  0.8078511E+03  0.7818608E-02  0.9694071E-01
         -2   -1    0    0    0  501 -0.00000000000E+00  0.00000000000E+00  0.66805531287E+03  0.66805531288E+03  0.25500000000E-02 0.  1.
          2   -1    0    0  501    0  0.00000000000E+00 -0.00000000000E+00 -0.95066990893E+03  0.95066990893E+03  0.25500000000E-02 0. -1.
    8880023    1    1    2    0    0  0.98073407859E+02  0.45737811342E+03  0.29486744878E+03  0.85998264551E+03  0.65864270000E+03 0.  1.
    8880022    1    1    2    0    0 -0.98073407859E+02 -0.45737811342E+03 -0.57748204484E+03  0.75874257630E+03  0.15294330000E+03 0.  0.
<mgrwt>
<rscale>  0 0.71370923E+03</rscale>
<asrwt>0</asrwt>
<pdfrwt beam="1">  1        2 0.14625691E+00 0.80785106E+03</pdfrwt>
<pdfrwt beam="2">  1       -2 0.10277774E+00 0.80785106E+03</pdfrwt>
<totfact> 0.21200213E+01</totfact>
</mgrwt>
</event>
<event>
 4    2  0.6914693E-007  0.6755895E+03  0.7818608E-02  0.1011937E+00
          2   -1    0    0  501    0  0.00000000000E+00  0.00000000000E+00  0.19138738502E+04  0.19138738502E+04  0.25500000000E-02 0. -1.
         -2   -1    0    0    0  501 -0.00000000000E+00 -0.00000000000E+00 -0.30805423759E+03  0.30805423760E+03  0.25500000000E-02 0.  1.
    8880023    1    1    2    0    0 -0.97590046454E+01  0.15005259330E+03  0.79086470528E+02  0.68020283373E+03  0.65864270000E+03 0.  1.
    8880022    1    1    2    0    0  0.97590046454E+01 -0.15005259330E+03  0.15267331421E+04  0.15417252541E+04  0.15294330000E+03 0.  0.
<mgrwt>
<rscale>  0 0.50711922E+03</rscale>
<asrwt>0</asrwt>
<pdfrwt beam="1">  1        2 0.29444213E+00 0.67558954E+03</pdfrwt>
<pdfrwt beam="2">  1       -2 0.47392959E-01 0.67558954E+03</pdfrwt>
<totfact> 0.32760012E+01</totfact>
</mgrwt>
</event>
<event>
 4    2  0.6914693E-007  0.6733261E+03  0.7818608E-02  0.1013383E+00
         -2   -1    0    0    0  501 -0.00000000000E+00  0.00000000000E+00  0.49087612310E+03  0.49087612311E+03  0.25500000000E-02 0.  1.
          2   -1    0    0  501    0  0.00000000000E+00 -0.00000000000E+00 -0.11684629940E+04  0.11684629940E+04  0.25500000000E-02 0. -1.
    8880023    1    1    2    0    0 -0.13583482283E+03  0.33267633411E+02  0.24290889274E+03  0.71580218703E+03  0.65864270000E+03 0.  1.
    8880022    1    1    2    0    0  0.13583482283E+03 -0.33267633411E+02 -0.92049576365E+03  0.94353693009E+03  0.15294330000E+03 0.  0.
<mgrwt>
<rscale>  0 0.50152067E+03</rscale>
<asrwt>0</asrwt>
<pdfrwt beam="1">  1        2 0.17976354E+00 0.67332610E+03</pdfrwt>
<pdfrwt beam="2">  1       -2 0.75519404E-01 0.67332610E+03</pdfrwt>
<totfact> 0.31941899E+01</totfact>
</mgrwt>
</event>
<event>
 4    2  0.6914693E-007  0.9438916E+03  0.7818608E-02  0.9458958E-01
          2   -1    0    0  501    0  0.00000000000E+00  0.00000000000E+00  0.16669412836E+04  0.16669412836E+04  0.25500000000E-02 0. -1.
         -2   -1    0    0    0  501 -0.00000000000E+00 -0.00000000000E+00 -0.83663849036E+03  0.83663849036E+03  0.25500000000E-02 0.  1.
    8880023    1    1    2    0    0  0.28856320950E+03  0.61143471070E+03 -0.45152030364E+03  0.10463278273E+04  0.65864270000E+03 0.  0.
    8880022    1    1    2    0    0 -0.28856320950E+03 -0.61143471070E+03  0.12818230969E+04  0.14572519467E+04  0.15294330000E+03 0.  0.
<mgrwt>
<rscale>  0 0.87378524E+03</rscale>
<asrwt>0</asrwt>
<pdfrwt beam="1">  1        2 0.25645250E+00 0.94389159E+03</pdfrwt>
<pdfrwt beam="2">  1       -2 0.12871362E+00 0.94389159E+03</pdfrwt>
<totfact> 0.45640207E+00</totfact>
</mgrwt>
</event>
<event>
 4    2  0.6914693E-007  0.8646441E+03  0.7818608E-02  0.9585355E-01
          2   -1    0    0  501    0  0.00000000000E+00  0.00000000000E+00  0.33712556746E+04  0.33712556746E+04  0.25500000000E-02 0. -1.
         -2   -1    0    0    0  501 -0.00000000000E+00 -0.00000000000E+00 -0.52683704901E+03  0.52683704902E+03  0.25500000000E-02 0.  1.
    8880023    1    1    2    0    0  0.55645907148E+03 -0.64439623575E+02 -0.12392930984E+03  0.87348030512E+03  0.65864270000E+03 0.  1.
    8880022    1    1    2    0    0 -0.55645907148E+03  0.64439623575E+02  0.29683479354E+04  0.30246124185E+04  0.15294330000E+03 0.  0.
<mgrwt>
<rscale>  0 0.78273093E+03</rscale>
<asrwt>0</asrwt>
<pdfrwt beam="1">  1        2 0.51865473E+00 0.86464407E+03</pdfrwt>
<pdfrwt beam="2">  1       -2 0.81051852E-01 0.86464407E+03</pdfrwt>
<totfact> 0.14144268E+00</totfact>
</mgrwt>
</event>
<event>
 4    2  0.6914693E-007  0.7027253E+03  0.7818608E-02  0.9986078E-01
         -2   -1    0    0    0  501 -0.00000000000E+00  0.00000000000E+00  0.10999260331E+04  0.10999260331E+04  0.25500000000E-02 0.  1.
          2   -1    0    0  501    0  0.00000000000E+00 -0.00000000000E+00 -0.77482588823E+03  0.77482588823E+03  0.25500000000E-02 0. -1.
    8880023    1    1    2    0    0 -0.53465817692E+02 -0.23906927335E+03  0.95273515719E+03  0.11838611393E+04  0.65864270000E+03 0.  1.
    8880022    1    1    2    0    0  0.53465817692E+02  0.23906927335E+03 -0.62763501228E+03  0.69089078209E+03  0.15294330000E+03 0.  0.
<mgrwt>
<rscale>  0 0.56264934E+03</rscale>
<asrwt>0</asrwt>
<pdfrwt beam="1">  1        2 0.11920398E+00 0.70272535E+03</pdfrwt>
<pdfrwt beam="2">  1       -2 0.16921939E+00 0.70272535E+03</pdfrwt>
<totfact> 0.79406517E+00</totfact>
</mgrwt>
</event>
<event>
 4    2  0.6914693E-007  0.6890098E+03  0.7818608E-02  0.1004627E+00
         -2   -1    0    0    0  501 -0.00000000000E+00  0.00000000000E+00  0.52231952964E+03  0.52231952964E+03  0.25500000000E-02 0.  1.
          2   -1    0    0  501    0  0.00000000000E+00 -0.00000000000E+00 -0.11781467399E+04  0.11781467399E+04  0.25500000000E-02 0. -1.
    8880023    1    1    2    0    0 -0.20035805790E+03 -0.27946047844E+02  0.27038328168E+03  0.74016326458E+03  0.65864270000E+03 0.  1.
    8880022    1    1    2    0    0  0.20035805790E+03  0.27946047844E+02 -0.92621049190E+03  0.96030300493E+03  0.15294330000E+03 0.  0.
<mgrwt>
<rscale>  0 0.53667199E+03</rscale>
<asrwt>0</asrwt>
<pdfrwt beam="1">  1        2 0.18125334E+00 0.68900983E+03</pdfrwt>
<pdfrwt beam="2">  1       -2 0.80356851E-01 0.68900983E+03</pdfrwt>
<totfact> 0.27392428E+01</totfact>
</mgrwt>
</event>
<event>
 4    2  0.6914693E-007  0.9628351E+03  0.7818608E-02  0.9431883E-01
          2   -1    0    0  501    0  0.00000000000E+00  0.00000000000E+00  0.17611830323E+04  0.17611830323E+04  0.25500000000E-02 0. -1.
         -2   -1    0    0    0  501 -0.00000000000E+00 -0.00000000000E+00 -0.66839610089E+03  0.66839610089E+03  0.25500000000E-02 0.  1.
    8880023    1    1    2    0    0  0.58846836030E+03  0.38333563789E+03 -0.16887999756E+03  0.97753357088E+03  0.65864270000E+03 0.  0.
    8880022    1    1    2    0    0 -0.58846836030E+03 -0.38333563789E+03  0.12616669289E+04  0.14520455623E+04  0.15294330000E+03 0.  0.
<mgrwt>
<rscale>  0 0.89497662E+03</rscale>
<asrwt>0</asrwt>
<pdfrwt beam="1">  1        2 0.27095123E+00 0.96283510E+03</pdfrwt>
<pdfrwt beam="2">  1       -2 0.10283017E+00 0.96283510E+03</pdfrwt>
<totfact> 0.70199774E+00</totfact>
</mgrwt>
</event>
<event>
 4    2  0.6914693E-007  0.6915362E+03  0.7818608E-02  0.1003431E+00
         -2   -1    0    0    0  501 -0.00000000000E+00  0.00000000000E+00  0.38906465342E+03  0.38906465343E+03  0.25500000000E-02 0.  1.
          2   -1    0    0  501    0  0.00000000000E+00 -0.00000000000E+00 -0.15143987051E+04  0.15143987051E+04  0.25500000000E-02 0. -1.
    8880023    1    1    2    0    0  0.19651482198E+03 -0.76118426016E+02  0.55973339864E+02  0.69379774508E+03  0.65864270000E+03 0.  1.
    8880022    1    1    2    0    0 -0.19651482198E+03  0.76118426016E+02 -0.11813073916E+04  0.12096656135E+04  0.15294330000E+03 0.  0.
<mgrwt>
<rscale>  0 0.54171130E+03</rscale>
<asrwt>0</asrwt>
<pdfrwt beam="1">  1        2 0.23298441E+00 0.69153619E+03</pdfrwt>
<pdfrwt beam="2">  1       -2 0.59856101E-01 0.69153619E+03</pdfrwt>
<totfact> 0.33414546E+01</totfact>
</mgrwt>
</event>
<event>
 4    2  0.6914693E-007  0.9529317E+03  0.7818608E-02  0.9445909E-01
          2   -1    0    0  501    0  0.00000000000E+00  0.00000000000E+00  0.15424845399E+04  0.15424845399E+04  0.25500000000E-02 0. -1.
         -2   -1    0    0    0  501 -0.00000000000E+00 -0.00000000000E+00 -0.11343593261E+04  0.11343593261E+04  0.25500000000E-02 0.  1.
    8880023    1    1    2    0    0 -0.67996147090E+03 -0.10918318352E+03  0.12542659725E+04  0.15752021792E+04  0.65864270000E+03 0. -1.
    8880022    1    1    2    0    0  0.67996147090E+03  0.10918318352E+03 -0.84614075869E+03  0.11016416868E+04  0.15294330000E+03 0.  0.
<mgrwt>
<rscale>  0 0.88391995E+03</rscale>
<asrwt>0</asrwt>
<pdfrwt beam="1">  1        2 0.23730531E+00 0.95293167E+03</pdfrwt>
<pdfrwt beam="2">  1       -2 0.17451682E+00 0.95293167E+03</pdfrwt>
<totfact> 0.23763479E+00</totfact>
</mgrwt>
</event>
<event>
 4    2  0.6914693E-007  0.9641979E+03  0.7818608E-02  0.9429974E-01
          2   -1    0    0  501    0  0.00000000000E+00  0.00000000000E+00  0.27351107292E+04  0.27351107292E+04  0.25500000000E-02 0. -1.
         -2   -1    0    0    0  501 -0.00000000000E+00 -0.00000000000E+00 -0.10148383741E+04  0.10148383741E+04  0.25500000000E-02 0.  1.
    8880023    1    1    2    0    0  0.32384874656E+03 -0.62529147958E+03  0.25052401658E+04  0.26843818543E+04  0.65864270000E+03 0. -1.
    8880022    1    1    2    0    0 -0.32384874656E+03  0.62529147958E+03 -0.78496781070E+03  0.10655672489E+04  0.15294330000E+03 0.  0.
<mgrwt>
<rscale>  0 0.89649456E+03</rscale>
<asrwt>0</asrwt>
<pdfrwt beam="1">  1        2 0.42078626E+00 0.96419793E+03</pdfrwt>
<pdfrwt beam="2">  1       -2 0.15612898E+00 0.96419793E+03</pdfrwt>
<totfact> 0.69251063E-01</totfact>
</mgrwt>
</event>
<event>
 4    2  0.6914693E-007  0.6982169E+03  0.7818608E-02  0.1000468E+00
          2   -1    0    0  501    0  0.00000000000E+00  0.00000000000E+00  0.83527170592E+03  0.83527170592E+03  0.25500000000E-02 0. -1.
         -2   -1    0    0    0  501 -0.00000000000E+00 -0.00000000000E+00 -0.59223512583E+03  0.59223512584E+03  0.25500000000E-02 0.  1.
    8880023    1    1    2    0    0 -0.17026917105E+03 -0.15717830757E+03 -0.34382411718E+03  0.77828133782E+03  0.65864270000E+03 0.  1.
    8880022    1    1    2    0    0  0.17026917105E+03  0.15717830757E+03  0.58686069726E+03  0.64922549394E+03  0.15294330000E+03 0.  0.
<mgrwt>
<rscale>  0 0.55445499E+03</rscale>
<asrwt>0</asrwt>
<pdfrwt beam="1">  1        2 0.12850334E+00 0.69821688E+03</pdfrwt>
<pdfrwt beam="2">  1       -2 0.91113097E-01 0.69821688E+03</pdfrwt>
<totfact> 0.34027269E+01</totfact>
</mgrwt>
</event>
<event>
 4    2  0.6914693E-007  0.9837388E+03  0.7818608E-02  0.9403148E-01
         -2   -1    0    0    0  501 -0.00000000000E+00  0.00000000000E+00  0.32991337020E+03  0.32991337021E+03  0.25500000000E-02 0.  1.
          2   -1    0    0  501    0  0.00000000000E+00 -0.00000000000E+00 -0.23711768875E+04  0.23711768875E+04  0.25500000000E-02 0. -1.
    8880023    1    1    2    0    0 -0.68212366747E+03  0.26199069359E+03 -0.87624027562E+03  0.13173985912E+04  0.65864270000E+03 0. -1.
    8880022    1    1    2    0    0  0.68212366747E+03 -0.26199069359E+03 -0.11650232417E+04  0.13836916665E+04  0.15294330000E+03 0.  0.
<mgrwt>
<rscale>  0 0.91817036E+03</rscale>
<asrwt>0</asrwt>
<pdfrwt beam="1">  1        2 0.36479643E+00 0.98373880E+03</pdfrwt>
<pdfrwt beam="2">  1       -2 0.50755905E-01 0.98373880E+03</pdfrwt>
<totfact> 0.15331243E+01</totfact>
</mgrwt>
</event>
<event>
 4    2  0.6914693E-007  0.6810892E+03  0.7818608E-02  0.1008714E+00
         -2   -1    0    0    0  501 -0.00000000000E+00  0.00000000000E+00  0.17130421460E+03  0.17130421462E+03  0.25500000000E-02 0.  1.
          2   -1    0    0  501    0  0.00000000000E+00 -0.00000000000E+00 -0.14063380246E+04  0.14063380246E+04  0.25500000000E-02 0. -1.
    8880023    1    1    2    0    0  0.16447690658E+03  0.54950760923E+02 -0.62168667556E+03  0.92215875410E+03  0.65864270000E+03 0.  1.
    8880022    1    1    2    0    0 -0.16447690658E+03 -0.54950760923E+02 -0.61334713447E+03  0.65548348515E+03  0.15294330000E+03 0.  0.
<mgrwt>
<rscale>  0 0.51988890E+03</rscale>
<asrwt>0</asrwt>
<pdfrwt beam="1">  1        2 0.21635969E+00 0.68108916E+03</pdfrwt>
<pdfrwt beam="2">  1       -2 0.26354496E-01 0.68108916E+03</pdfrwt>
<totfact> 0.19044872E+02</totfact>
</mgrwt>
</event>
<event>
 4    2  0.6914693E-007  0.6682589E+03  0.7818608E-02  0.1016943E+00
         -2   -1    0    0    0  501 -0.00000000000E+00  0.00000000000E+00  0.15536872845E+03  0.15536872847E+03  0.25500000000E-02 0.  1.
          2   -1    0    0  501    0  0.00000000000E+00 -0.00000000000E+00 -0.20571930069E+04  0.20571930069E+04  0.25500000000E-02 0. -1.
    8880023    1    1    2    0    0 -0.11221963641E+03 -0.12901372492E+02 -0.60364230116E+03  0.90052980307E+03  0.65864270000E+03 0.  1.
    8880022    1    1    2    0    0  0.11221963641E+03  0.12901372492E+02 -0.12981819772E+04  0.13120319323E+04  0.15294330000E+03 0.  0.
<mgrwt>
<rscale>  0 0.48806099E+03</rscale>
<asrwt>0</asrwt>
<pdfrwt beam="1">  1        2 0.31649121E+00 0.66825886E+03</pdfrwt>
<pdfrwt beam="2">  1       -2 0.23902883E-01 0.66825886E+03</pdfrwt>
<totfact> 0.10007658E+02</totfact>
</mgrwt>
</event>
<event>
 4    2  0.6914693E-007  0.7327992E+03  0.7818608E-02  0.9881442E-01
          2   -1    0    0  501    0  0.00000000000E+00  0.00000000000E+00  0.20746959497E+04  0.20746959497E+04  0.25500000000E-02 0. -1.
         -2   -1    0    0    0  501 -0.00000000000E+00 -0.00000000000E+00 -0.15658071018E+03  0.15658071020E+03  0.25500000000E-02 0.  1.
    8880023    1    1    2    0    0 -0.65729115250E+02 -0.31442671887E+03  0.15744133894E+04  0.17365978824E+04  0.65864270000E+03 0.  0.
    8880022    1    1    2    0    0  0.65729115250E+02  0.31442671887E+03  0.34370185011E+03  0.49467877751E+03  0.15294330000E+03 0.  0.
<mgrwt>
<rscale>  0 0.61169189E+03</rscale>
<asrwt>0</asrwt>
<pdfrwt beam="1">  1        2 0.31918399E+00 0.73279921E+03</pdfrwt>
<pdfrwt beam="2">  1       -2 0.24089340E-01 0.73279921E+03</pdfrwt>
<totfact> 0.95828934E+01</totfact>
</mgrwt>
</event>
<event>
 4    2  0.6914693E-007  0.7650388E+03  0.7818608E-02  0.9792233E-01
          2   -1    0    0  501    0  0.00000000000E+00  0.00000000000E+00  0.10083457649E+04  0.10083457650E+04  0.25500000000E-02 0. -1.
         -2   -1    0    0    0  501 -0.00000000000E+00 -0.00000000000E+00 -0.46364757882E+03  0.46364757883E+03  0.25500000000E-02 0.  1.
    8880023    1    1    2    0    0  0.38879135464E+03  0.17762494195E+02 -0.24819052263E+02  0.76544132059E+03  0.65864270000E+03 0.  1.
    8880022    1    1    2    0    0 -0.38879135464E+03 -0.17762494195E+02  0.56951723839E+03  0.70655202319E+03  0.15294330000E+03 0.  0.
<mgrwt>
<rscale>  0 0.65781042E+03</rscale>
<asrwt>0</asrwt>
<pdfrwt beam="1">  1        2 0.15513012E+00 0.76503884E+03</pdfrwt>
<pdfrwt beam="2">  1       -2 0.71330397E-01 0.76503884E+03</pdfrwt>
<totfact> 0.45018307E+01</totfact>
</mgrwt>
</event>
<event>
 4    2  0.6914693E-007  0.7151184E+03  0.7818608E-02  0.9939464E-01
          2   -1    0    0  501    0  0.00000000000E+00  0.00000000000E+00  0.22545287490E+03  0.22545287492E+03  0.25500000000E-02 0. -1.
         -2   -1    0    0    0  501 -0.00000000000E+00 -0.00000000000E+00 -0.22019256458E+04  0.22019256458E+04  0.25500000000E-02 0.  1.
    8880023    1    1    2    0    0 -0.26089015547E+03 -0.97572410987E+02 -0.19845980426E+04  0.21095079155E+04  0.65864270000E+03 0.  1.
    8880022    1    1    2    0    0  0.26089015547E+03  0.97572410987E+02  0.81252717032E+01  0.31787060522E+03  0.15294330000E+03 0.  0.
<mgrwt>
<rscale>  0 0.58386246E+03</rscale>
<asrwt>0</asrwt>
<pdfrwt beam="1">  1        2 0.34685059E-01 0.71511835E+03</pdfrwt>
<pdfrwt beam="2">  1       -2 0.33875778E+00 0.71511835E+03</pdfrwt>
<totfact> 0.29150637E+00</totfact>
</mgrwt>
</event>
<event>
 4    2  0.6914693E-007  0.7295039E+03  0.7818608E-02  0.9891649E-01
          2   -1    0    0  501    0  0.00000000000E+00  0.00000000000E+00  0.19167638256E+04  0.19167638256E+04  0.25500000000E-02 0. -1.
         -2   -1    0    0    0  501 -0.00000000000E+00 -0.00000000000E+00 -0.24384621777E+03  0.24384621779E+03  0.25500000000E-02 0.  1.
    8880023    1    1    2    0    0 -0.13363236630E+03  0.28373947186E+03  0.38220685301E+03  0.82356419420E+03  0.65864270000E+03 0.  1.
    8880022    1    1    2    0    0  0.13363236630E+03 -0.28373947186E+03  0.12907107548E+04  0.13370458492E+04  0.15294330000E+03 0.  0.
<mgrwt>
<rscale>  0 0.60667710E+03</rscale>
<asrwt>0</asrwt>
<pdfrwt beam="1">  1        2 0.29488674E+00 0.72950387E+03</pdfrwt>
<pdfrwt beam="2">  1       -2 0.37514803E-01 0.72950387E+03</pdfrwt>
<totfact> 0.51343104E+01</totfact>
</mgrwt>
</event>
<event>
 4    2  0.6914693E-007  0.7711670E+03  0.7818608E-02  0.9777010E-01
          2   -1    0    0  501    0  0.00000000000E+00  0.00000000000E+00  0.24994269692E+04  0.24994269692E+04  0.25500000000E-02 0. -1.
         -2   -1    0    0    0  501 -0.00000000000E+00 -0.00000000000E+00 -0.29159358651E+03  0.29159358652E+03  0.25500000000E-02 0.  1.
    8880023    1    1    2    0    0  0.18453812466E+03 -0.35613758246E+03  0.28706097997E+03  0.82286238800E+03  0.65864270000E+03 0.  1.
    8880022    1    1    2    0    0 -0.18453812466E+03  0.35613758246E+03  0.19207724027E+04  0.19681581677E+04  0.15294330000E+03 0.  0.
<mgrwt>
<rscale>  0 0.66611019E+03</rscale>
<asrwt>0</asrwt>
<pdfrwt beam="1">  1        2 0.38452723E+00 0.77116698E+03</pdfrwt>
<pdfrwt beam="2">  1       -2 0.44860552E-01 0.77116698E+03</pdfrwt>
<totfact> 0.17124784E+01</totfact>
</mgrwt>
</event>
<event>
 4    2  0.6914694E-007  0.7901974E+03  0.7818608E-02  0.9732406E-01
          2   -1    0    0  501    0  0.00000000000E+00  0.00000000000E+00  0.15241358066E+04  0.15241358066E+04  0.25500000000E-02 0. -1.
         -2   -1    0    0    0  501 -0.00000000000E+00 -0.00000000000E+00 -0.65235194072E+03  0.65235194072E+03  0.25500000000E-02 0.  1.
    8880023    1    1    2    0    0 -0.43610346247E+03 -0.20385528792E+02 -0.35433589064E+03  0.86600573291E+03  0.65864270000E+03 0.  0.
    8880022    1    1    2    0    0  0.43610346247E+03  0.20385528792E+02  0.12261197565E+04  0.13104820144E+04  0.15294330000E+03 0.  0.
<mgrwt>
<rscale>  0 0.69119689E+03</rscale>
<asrwt>0</asrwt>
<pdfrwt beam="1">  1        2 0.23448243E+00 0.79019745E+03</pdfrwt>
<pdfrwt beam="2">  1       -2 0.10036184E+00 0.79019745E+03</pdfrwt>
<totfact> 0.10272634E+01</totfact>
</mgrwt>
</event>
<event>
 4    2  0.6914693E-007  0.8647763E+03  0.7818608E-02  0.9585123E-01
          2   -1    0    0  501    0  0.00000000000E+00  0.00000000000E+00  0.76705694019E+03  0.76705694020E+03  0.25500000000E-02 0. -1.
         -2   -1    0    0    0  501 -0.00000000000E+00 -0.00000000000E+00 -0.16614170479E+04  0.16614170479E+04  0.25500000000E-02 0.  1.
    8880023    1    1    2    0    0 -0.14113252245E+02 -0.56020409459E+03 -0.14084695685E+04  0.16527627002E+04  0.65864270000E+03 0.  0.
    8880022    1    1    2    0    0  0.14113252245E+02  0.56020409459E+03  0.51410946080E+03  0.77571128790E+03  0.15294330000E+03 0.  0.
<mgrwt>
<rscale>  0 0.78288702E+03</rscale>
<asrwt>0</asrwt>
<pdfrwt beam="1">  1        2 0.11800876E+00 0.86477628E+03</pdfrwt>
<pdfrwt beam="2">  1       -2 0.25560262E+00 0.86477628E+03</pdfrwt>
<totfact> 0.21952351E+00</totfact>
</mgrwt>
</event>
<event>
 4    2  0.6914693E-007  0.6676825E+03  0.7818608E-02  0.1017382E+00
          2   -1    0    0  501    0  0.00000000000E+00  0.00000000000E+00  0.74258025606E+03  0.74258025606E+03  0.25500000000E-02 0. -1.
         -2   -1    0    0    0  501 -0.00000000000E+00 -0.00000000000E+00 -0.15715548593E+04  0.15715548593E+04  0.25500000000E-02 0.  1.
    8880023    1    1    2    0    0 -0.38594767857E+02  0.10247030699E+03 -0.14868569265E+04  0.16298906239E+04  0.65864270000E+03 0.  1.
    8880022    1    1    2    0    0  0.38594767857E+02 -0.10247030699E+03  0.65788232319E+03  0.68424449147E+03  0.15294330000E+03 0.  0.
<mgrwt>
<rscale>  0 0.48643446E+03</rscale>
<asrwt>0</asrwt>
<pdfrwt beam="1">  1        2 0.11424312E+00 0.66768250E+03</pdfrwt>
<pdfrwt beam="2">  1       -2 0.24177767E+00 0.66768250E+03</pdfrwt>
<totfact> 0.28610970E+00</totfact>
</mgrwt>
</event>
<event>
 4    2  0.6914693E-007  0.8559085E+03  0.7818608E-02  0.9600883E-01
         -2   -1    0    0    0  501 -0.00000000000E+00  0.00000000000E+00  0.45503829952E+03  0.45503829953E+03  0.25500000000E-02 0.  1.
          2   -1    0    0  501    0  0.00000000000E+00 -0.00000000000E+00 -0.13122004784E+04  0.13122004784E+04  0.25500000000E-02 0. -1.
    8880023    1    1    2    0    0  0.27620909888E+03  0.47167533974E+03 -0.16423706324E+03  0.87152344296E+03  0.65864270000E+03 0.  1.
    8880022    1    1    2    0    0 -0.27620909888E+03 -0.47167533974E+03 -0.69292511565E+03  0.89571533498E+03  0.15294330000E+03 0. -1.
<mgrwt>
<rscale>  0 0.77237742E+03</rscale>
<asrwt>0</asrwt>
<pdfrwt beam="1">  1        2 0.20187700E+00 0.85590846E+03</pdfrwt>
<pdfrwt beam="2">  1       -2 0.70005893E-01 0.85590846E+03</pdfrwt>
<totfact> 0.30510972E+01</totfact>
</mgrwt>
</event>
<event>
 4    2  0.6914693E-007  0.7430304E+03  0.7818608E-02  0.9851206E-01
          2   -1    0    0  501    0  0.00000000000E+00  0.00000000000E+00  0.11080918627E+04  0.11080918627E+04  0.25500000000E-02 0. -1.
         -2   -1    0    0    0  501 -0.00000000000E+00 -0.00000000000E+00 -0.37990267478E+03  0.37990267478E+03  0.25500000000E-02 0.  1.
    8880023    1    1    2    0    0  0.64840933519E+02 -0.33775678751E+03  0.91873820144E+02  0.74868885344E+03  0.65864270000E+03 0.  1.
    8880022    1    1    2    0    0 -0.64840933519E+02  0.33775678751E+03  0.63631536774E+03  0.73930568401E+03  0.15294330000E+03 0.  0.
<mgrwt>
<rscale>  0 0.62685464E+03</rscale>
<asrwt>0</asrwt>
<pdfrwt beam="1">  1        2 0.17047567E+00 0.74303042E+03</pdfrwt>
<pdfrwt beam="2">  1       -2 0.58446565E-01 0.74303042E+03</pdfrwt>
<totfact> 0.59947655E+01</totfact>
</mgrwt>
</event>
<event>
 4    2  0.6914693E-007  0.7806875E+03  0.7818608E-02  0.9754225E-01
         -2   -1    0    0    0  501 -0.00000000000E+00  0.00000000000E+00  0.11556341392E+04  0.11556341392E+04  0.25500000000E-02 0.  1.
          2   -1    0    0  501    0  0.00000000000E+00 -0.00000000000E+00 -0.71260198220E+03  0.71260198221E+03  0.25500000000E-02 0. -1.
    8880023    1    1    2    0    0 -0.36326332295E+03  0.20905148543E+03  0.92570298250E+03  0.12109496205E+04  0.65864270000E+03 0.  1.
    8880022    1    1    2    0    0  0.36326332295E+03 -0.20905148543E+03 -0.48267082555E+03  0.65728650085E+03  0.15294330000E+03 0.  0.
<mgrwt>
<rscale>  0 0.67878056E+03</rscale>
<asrwt>0</asrwt>
<pdfrwt beam="1">  1        2 0.10963107E+00 0.78068750E+03</pdfrwt>
<pdfrwt beam="2">  1       -2 0.17778987E+00 0.78068750E+03</pdfrwt>
<totfact> 0.76322829E+00</totfact>
</mgrwt>
</event>
<event>
 4    2  0.6914693E-007  0.7348403E+03  0.7818608E-02  0.9875240E-01
          2   -1    0    0  501    0  0.00000000000E+00  0.00000000000E+00  0.85599494481E+03  0.85599494481E+03  0.25500000000E-02 0. -1.
         -2   -1    0    0    0  501 -0.00000000000E+00 -0.00000000000E+00 -0.47880698401E+03  0.47880698402E+03  0.25500000000E-02 0.  1.
    8880023    1    1    2    0    0  0.31527029605E+03 -0.82369548818E+02 -0.95109541988E+02  0.74096972501E+03  0.65864270000E+03 0.  0.
    8880022    1    1    2    0    0 -0.31527029605E+03  0.82369548818E+02  0.47229750278E+03  0.59383220382E+03  0.15294330000E+03 0.  0.
<mgrwt>
<rscale>  0 0.61476414E+03</rscale>
<asrwt>0</asrwt>
<pdfrwt beam="1">  1        2 0.13169153E+00 0.73484033E+03</pdfrwt>
<pdfrwt beam="2">  1       -2 0.73662613E-01 0.73484033E+03</pdfrwt>
<totfact> 0.53034550E+01</totfact>
</mgrwt>
</event>
<event>
 4    2  0.6914693E-007  0.9671099E+03  0.7818608E-02  0.9425913E-01
          2   -1    0    0  501    0  0.00000000000E+00  0.00000000000E+00  0.13963520575E+04  0.13963520575E+04  0.25500000000E-02 0. -1.
         -2   -1    0    0    0  501 -0.00000000000E+00 -0.00000000000E+00 -0.12108749593E+04  0.12108749593E+04  0.25500000000E-02 0.  1.
    8880023    1    1    2    0    0 -0.34321040028E+03  0.61943355304E+03 -0.88746351498E+03  0.13125901882E+04  0.65864270000E+03 0.  1.
    8880022    1    1    2    0    0  0.34321040028E+03 -0.61943355304E+03  0.10729406132E+04  0.12946368286E+04  0.15294330000E+03 0.  0.
<mgrwt>
<rscale>  0 0.89973512E+03</rscale>
<asrwt>0</asrwt>
<pdfrwt beam="1">  1        2 0.21482339E+00 0.96710988E+03</pdfrwt>
<pdfrwt beam="2">  1       -2 0.18628846E+00 0.96710988E+03</pdfrwt>
<totfact> 0.23791965E+00</totfact>
</mgrwt>
</event>
<event>
 4    2  0.6914693E-007  0.7418950E+03  0.7818608E-02  0.9854461E-01
         -2   -1    0    0    0  501 -0.00000000000E+00  0.00000000000E+00  0.16278836521E+03  0.16278836523E+03  0.25500000000E-02 0.  1.
          2   -1    0    0  501    0  0.00000000000E+00 -0.00000000000E+00 -0.24012294804E+04  0.24012294804E+04  0.25500000000E-02 0. -1.
    8880023    1    1    2    0    0 -0.26134374275E+02  0.34046284818E+03 -0.86040633312E+03  0.11360929631E+04  0.65864270000E+03 0.  0.
    8880022    1    1    2    0    0  0.26134374275E+02 -0.34046284818E+03 -0.13780347821E+04  0.14279248825E+04  0.15294330000E+03 0.  0.
<mgrwt>
<rscale>  0 0.62519976E+03</rscale>
<asrwt>0</asrwt>
<pdfrwt beam="1">  1        2 0.36941989E+00 0.74189498E+03</pdfrwt>
<pdfrwt beam="2">  1       -2 0.25044366E-01 0.74189498E+03</pdfrwt>
<totfact> 0.58899692E+01</totfact>
</mgrwt>
</event>
<event>
 4    2  0.6914693E-007  0.9733479E+03  0.7818608E-02  0.9417289E-01
         -2   -1    0    0    0  501 -0.00000000000E+00  0.00000000000E+00  0.11344009133E+04  0.11344009133E+04  0.25500000000E-02 0.  1.
          2   -1    0    0  501    0  0.00000000000E+00 -0.00000000000E+00 -0.79495376847E+03  0.79495376848E+03  0.25500000000E-02 0. -1.
    8880023    1    1    2    0    0  0.66560911292E+01 -0.71662521448E+03  0.60944431065E+03  0.11484026191E+04  0.65864270000E+03 0.  0.
    8880022    1    1    2    0    0 -0.66560911292E+01  0.71662521448E+03 -0.26999716582E+03  0.78095206264E+03  0.15294330000E+03 0.  0.
<mgrwt>
<rscale>  0 0.90666452E+03</rscale>
<asrwt>0</asrwt>
<pdfrwt beam="1">  1        2 0.12230058E+00 0.97334794E+03</pdfrwt>
<pdfrwt beam="2">  1       -2 0.17452322E+00 0.97334794E+03</pdfrwt>
<totfact> 0.68394726E+00</totfact>
</mgrwt>
</event>
<event>
 4    2  0.6914693E-007  0.7785555E+03  0.7818608E-02  0.9759241E-01
         -2   -1    0    0    0  501 -0.00000000000E+00  0.00000000000E+00  0.83310786494E+03  0.83310786494E+03  0.25500000000E-02 0.  1.
          2   -1    0    0  501    0  0.00000000000E+00 -0.00000000000E+00 -0.68166897409E+03  0.68166897409E+03  0.25500000000E-02 0. -1.
    8880023    1    1    2    0    0 -0.13744403221E+03 -0.39172395998E+03  0.52226817270E+03  0.93750347908E+03  0.65864270000E+03 0.  1.
    8880022    1    1    2    0    0  0.13744403221E+03  0.39172395998E+03 -0.37082928185E+03  0.57727335995E+03  0.15294330000E+03 0.  0.
<mgrwt>
<rscale>  0 0.67596533E+03</rscale>
<asrwt>0</asrwt>
<pdfrwt beam="1">  1        2 0.10487215E+00 0.77855554E+03</pdfrwt>
<pdfrwt beam="2">  1       -2 0.12817044E+00 0.77855554E+03</pdfrwt>
<totfact> 0.19287494E+01</totfact>
</mgrwt>
</event>
<event>
 4    2  0.6914693E-007  0.6646790E+03  0.7818608E-02  0.1019804E+00
          2   -1    0    0  501    0  0.00000000000E+00  0.00000000000E+00  0.57816945649E+03  0.57816945650E+03  0.25500000000E-02 0. -1.
         -2   -1    0    0    0  501 -0.00000000000E+00 -0.00000000000E+00 -0.86425709162E+03  0.86425709163E+03  0.25500000000E-02 0.  1.
    8880023    1    1    2    0    0 -0.36251806989E+02  0.81692992791E+02 -0.71629391406E+03  0.97717711607E+03  0.65864270000E+03 0.  1.
    8880022    1    1    2    0    0  0.36251806989E+02 -0.81692992791E+02  0.43020627893E+03  0.46524943205E+03  0.15294330000E+03 0.  0.
<mgrwt>
<rscale>  0 0.47757311E+03</rscale>
<asrwt>0</asrwt>
<pdfrwt beam="1">  1        2 0.88949147E-01 0.66467898E+03</pdfrwt>
<pdfrwt beam="2">  1       -2 0.13296263E+00 0.66467898E+03</pdfrwt>
<totfact> 0.21725086E+01</totfact>
</mgrwt>
</event>
<event>
 4    2  0.6914693E-007  0.7970518E+03  0.7818608E-02  0.9717207E-01
         -2   -1    0    0    0  501 -0.00000000000E+00  0.00000000000E+00  0.40871036880E+03  0.40871036880E+03  0.25500000000E-02 0.  1.
          2   -1    0    0  501    0  0.00000000000E+00 -0.00000000000E+00 -0.17277176978E+04  0.17277176978E+04  0.25500000000E-02 0. -1.
    8880023    1    1    2    0    0 -0.44753309497E+03  0.34576619564E+02 -0.69634669690E+02  0.80008787467E+03  0.65864270000E+03 0. -1.
    8880022    1    1    2    0    0  0.44753309497E+03 -0.34576619564E+02 -0.12493726593E+04  0.13363401919E+04  0.15294330000E+03 0.  0.
<mgrwt>
<rscale>  0 0.70001461E+03</rscale>
<asrwt>0</asrwt>
<pdfrwt beam="1">  1        2 0.26580272E+00 0.79705183E+03</pdfrwt>
<pdfrwt beam="2">  1       -2 0.62878520E-01 0.79705183E+03</pdfrwt>
<totfact> 0.22677328E+01</totfact>
</mgrwt>
</event>
<event>
 4    2  0.6914693E-007  0.1016105E+04  0.7818608E-02  0.9360784E-01
          2   -1    0    0  501    0  0.00000000000E+00  0.00000000000E+00  0.26508117152E+04  0.26508117152E+04  0.25500000000E-02 0. -1.
         -2   -1    0    0    0  501 -0.00000000000E+00 -0.00000000000E+00 -0.34010169981E+03  0.34010169982E+03  0.25500000000E-02 0.  1.
    8880023    1    1    2    0    0 -0.74947371804E+03  0.19222066231E+03  0.17486247401E+04  0.20224139846E+04  0.65864270000E+03 0. -1.
    8880022    1    1    2    0    0  0.74947371804E+03 -0.19222066231E+03  0.56208527528E+03  0.96849943044E+03  0.15294330000E+03 0.  0.
<mgrwt>
<rscale>  0 0.95374504E+03</rscale>
<asrwt>0</asrwt>
<pdfrwt beam="1">  1        2 0.40781717E+00 0.10161052E+04</pdfrwt>
<pdfrwt beam="2">  1       -2 0.52323340E-01 0.10161052E+04</pdfrwt>
<totfact> 0.99198720E+00</totfact>
</mgrwt>
</event>
<event>
 4    2  0.6914693E-007  0.8555648E+03  0.7818608E-02  0.9601502E-01
          2   -1    0    0  501    0  0.00000000000E+00  0.00000000000E+00  0.20042722853E+04  0.20042722853E+04  0.25500000000E-02 0. -1.
         -2   -1    0    0    0  501 -0.00000000000E+00 -0.00000000000E+00 -0.40689310928E+03  0.40689310929E+03  0.25500000000E-02 0.  1.
    8880023    1    1    2    0    0  0.42678053320E+03  0.34064543261E+03  0.16596092199E+03  0.87151257487E+03  0.65864270000E+03 0. -1.
    8880022    1    1    2    0    0 -0.42678053320E+03 -0.34064543261E+03  0.14314182540E+04  0.15396528197E+04  0.15294330000E+03 0.  0.
<mgrwt>
<rscale>  0 0.77196847E+03</rscale>
<asrwt>0</asrwt>
<pdfrwt beam="1">  1        2 0.30834958E+00 0.85556481E+03</pdfrwt>
<pdfrwt beam="2">  1       -2 0.62598940E-01 0.85556481E+03</pdfrwt>
<totfact> 0.16043675E+01</totfact>
</mgrwt>
</event>
<event>
 4    2  0.6914693E-007  0.6852701E+03  0.7818608E-02  0.1006487E+00
         -2   -1    0    0    0  501 -0.00000000000E+00  0.00000000000E+00  0.20202425800E+03  0.20202425802E+03  0.25500000000E-02 0.  1.
          2   -1    0    0  501    0  0.00000000000E+00 -0.00000000000E+00 -0.10789327561E+04  0.10789327561E+04  0.25500000000E-02 0. -1.
    8880023    1    1    2    0    0 -0.16731766547E+03  0.88259189333E+02 -0.70438442751E+03  0.98272707995E+03  0.65864270000E+03 0.  1.
    8880022    1    1    2    0    0  0.16731766547E+03 -0.88259189333E+02 -0.17252407056E+03  0.29822993414E+03  0.15294330000E+03 0.  0.
<mgrwt>
<rscale>  0 0.52895049E+03</rscale>
<asrwt>0</asrwt>
<pdfrwt beam="1">  1        2 0.16598965E+00 0.68527009E+03</pdfrwt>
<pdfrwt beam="2">  1       -2 0.31080656E-01 0.68527009E+03</pdfrwt>
<totfact> 0.21846405E+02</totfact>
</mgrwt>
</event>
<event>
 4    2  0.6914693E-007  0.9361973E+03  0.7818608E-02  0.9470258E-01
          2   -1    0    0  501    0  0.00000000000E+00  0.00000000000E+00  0.75573884542E+03  0.75573884542E+03  0.25500000000E-02 0. -1.
         -2   -1    0    0    0  501 -0.00000000000E+00 -0.00000000000E+00 -0.13545010249E+04  0.13545010249E+04  0.25500000000E-02 0.  1.
    8880023    1    1    2    0    0  0.30915297625E+03  0.58913456290E+03 -0.95742829088E+03  0.13390796221E+04  0.65864270000E+03 0.  0.
    8880022    1    1    2    0    0 -0.30915297625E+03 -0.58913456290E+03  0.35866611140E+03  0.77116024821E+03  0.15294330000E+03 0.  0.
<mgrwt>
<rscale>  0 0.86512569E+03</rscale>
<asrwt>0</asrwt>
<pdfrwt beam="1">  1        2 0.11626751E+00 0.93619726E+03</pdfrwt>
<pdfrwt beam="2">  1       -2 0.20838477E+00 0.93619726E+03</pdfrwt>
<totfact> 0.43559851E+00</totfact>
</mgrwt>
</event>
<event>
 4    2  0.6914693E-007  0.7988293E+03  0.7818608E-02  0.9713333E-01
         -2   -1    0    0    0  501 -0.00000000000E+00  0.00000000000E+00  0.49444630860E+03  0.49444630861E+03  0.25500000000E-02 0.  1.
          2   -1    0    0  501    0  0.00000000000E+00 -0.00000000000E+00 -0.25238363380E+04  0.25238363380E+04  0.25500000000E-02 0. -1.
    8880023    1    1    2    0    0 -0.33680500961E+03 -0.30146373595E+03  0.12776126179E+03  0.80898154792E+03  0.65864270000E+03 0.  1.
    8880022    1    1    2    0    0  0.33680500961E+03  0.30146373595E+03 -0.21571512912E+04  0.22093010987E+04  0.15294330000E+03 0.  0.
<mgrwt>
<rscale>  0 0.70228462E+03</rscale>
<asrwt>0</asrwt>
<pdfrwt beam="1">  1        2 0.38828251E+00 0.79882927E+03</pdfrwt>
<pdfrwt beam="2">  1       -2 0.76068664E-01 0.79882927E+03</pdfrwt>
<totfact> 0.54348590E+00</totfact>
</mgrwt>
</event>
<event>
 4    2  0.6914693E-007  0.7905233E+03  0.7818608E-02  0.9731674E-01
         -2   -1    0    0    0  501 -0.00000000000E+00  0.00000000000E+00  0.44902235429E+03  0.44902235430E+03  0.25500000000E-02 0.  1.
          2   -1    0    0  501    0  0.00000000000E+00 -0.00000000000E+00 -0.34324126072E+04  0.34324126072E+04  0.25500000000E-02 0. -1.
    8880023    1    1    2    0    0 -0.24200391797E+03  0.36407543108E+03  0.69537216909E+02  0.79357573465E+03  0.65864270000E+03 0.  1.
    8880022    1    1    2    0    0  0.24200391797E+03 -0.36407543108E+03 -0.30529274699E+04  0.30878592269E+04  0.15294330000E+03 0.  0.
<mgrwt>
<rscale>  0 0.69161841E+03</rscale>
<asrwt>0</asrwt>
<pdfrwt beam="1">  1        2 0.52806346E+00 0.79052326E+03</pdfrwt>
<pdfrwt beam="2">  1       -2 0.69080364E-01 0.79052326E+03</pdfrwt>
<totfact> 0.18634985E+00</totfact>
</mgrwt>
</event>
<event>
 4    2  0.6914693E-007  0.7212096E+03  0.7818608E-02  0.9918514E-01
         -2   -1    0    0    0  501 -0.00000000000E+00  0.00000000000E+00  0.52868970977E+03  0.52868970978E+03  0.25500000000E-02 0.  1.
          2   -1    0    0  501    0  0.00000000000E+00 -0.00000000000E+00 -0.12614894565E+04  0.12614894565E+04  0.25500000000E-02 0. -1.
    8880023    1    1    2    0    0 -0.53616789694E+02  0.28889163966E+03  0.24192705413E+03  0.76070496606E+03  0.65864270000E+03 0.  1.
    8880022    1    1    2    0    0  0.53616789694E+02 -0.28889163966E+03 -0.97472680086E+03  0.10294742002E+04  0.15294330000E+03 0.  0.
<mgrwt>
<rscale>  0 0.59372350E+03</rscale>
<asrwt>0</asrwt>
<pdfrwt beam="1">  1        2 0.19407530E+00 0.72120964E+03</pdfrwt>
<pdfrwt beam="2">  1       -2 0.81336879E-01 0.72120964E+03</pdfrwt>
<totfact> 0.23724753E+01</totfact>
</mgrwt>
</event>
<event>
 4    2  0.6914693E-007  0.9700443E+03  0.7818608E-02  0.9421843E-01
         -2   -1    0    0    0  501 -0.00000000000E+00  0.00000000000E+00  0.36983003929E+03  0.36983003929E+03  0.25500000000E-02 0.  1.
          2   -1    0    0  501    0  0.00000000000E+00 -0.00000000000E+00 -0.26071001095E+04  0.26071001095E+04  0.25500000000E-02 0. -1.
    8880023    1    1    2    0    0  0.70999919883E+03 -0.55470096741E+02 -0.49610321334E+03  0.10895432064E+04  0.65864270000E+03 0.  0.
    8880022    1    1    2    0    0 -0.70999919883E+03  0.55470096741E+02 -0.17411668569E+04  0.18873869424E+04  0.15294330000E+03 0.  0.
<mgrwt>
<rscale>  0 0.90299690E+03</rscale>
<asrwt>0</asrwt>
<pdfrwt beam="1">  1        2 0.40109231E+00 0.97004433E+03</pdfrwt>
<pdfrwt beam="2">  1       -2 0.56896931E-01 0.97004433E+03</pdfrwt>
<totfact> 0.88869308E+00</totfact>
</mgrwt>
</event>
<event>
 4    2  0.6914693E-007  0.9735249E+03  0.7818608E-02  0.9417045E-01
         -2   -1    0    0    0  501 -0.00000000000E+00  0.00000000000E+00  0.46218097508E+03  0.46218097509E+03  0.25500000000E-02 0.  1.
          2   -1    0    0  501    0  0.00000000000E+00 -0.00000000000E+00 -0.21583367757E+04  0.21583367757E+04  0.25500000000E-02 0. -1.
    8880023    1    1    2    0    0 -0.59395160375E+03 -0.40144986030E+03 -0.25927549048E+03  0.10074594206E+04  0.65864270000E+03 0.  1.
    8880022    1    1    2    0    0  0.59395160375E+03  0.40144986030E+03 -0.14368803102E+04  0.16130583302E+04  0.15294330000E+03 0.  0.
<mgrwt>
<rscale>  0 0.90686084E+03</rscale>
<asrwt>0</asrwt>
<pdfrwt beam="1">  1        2 0.33205181E+00 0.97352489E+03</pdfrwt>
<pdfrwt beam="2">  1       -2 0.71104766E-01 0.97352489E+03</pdfrwt>
<totfact> 0.98702483E+00</totfact>
</mgrwt>
</event>
<event>
 4    2  0.1197737E-006  0.8620110E+03  0.7818608E-02  0.9589996E-01
         -2   -1    0    0    0  501 -0.00000000000E+00  0.00000000000E+00  0.12971246319E+04  0.12971246319E+04  0.25500000000E-02 0.  1.
          2   -1    0    0  501    0  0.00000000000E+00 -0.00000000000E+00 -0.18917894945E+04  0.18917894945E+04  0.25500000000E-02 0. -1.
    8880023    1    1    2    0    0 -0.27472121447E+03  0.48350904418E+03  0.11007340574E+04  0.13980981413E+04  0.65864270000E+03 0.  1.
    8880022    1    1    2    0    0  0.27472121447E+03 -0.48350904418E+03 -0.16953989200E+04  0.17908159851E+04  0.15294330000E+03 0. -1.
<mgrwt>
<rscale>  0 0.77961849E+03</rscale>
<asrwt>0</asrwt>
<pdfrwt beam="1">  1        2 0.29104454E+00 0.86201099E+03</pdfrwt>
<pdfrwt beam="2">  1       -2 0.19955764E+00 0.86201099E+03</pdfrwt>
<totfact> 0.10474390E+00</totfact>
</mgrwt>
</event>
<event>
 4    2  0.6914693E-007  0.7536543E+03  0.7818608E-02  0.9821822E-01
         -2   -1    0    0    0  501 -0.00000000000E+00  0.00000000000E+00  0.64634200596E+03  0.64634200597E+03  0.25500000000E-02 0.  1.
          2   -1    0    0  501    0  0.00000000000E+00 -0.00000000000E+00 -0.11773870915E+04  0.11773870915E+04  0.25500000000E-02 0. -1.
    8880023    1    1    2    0    0 -0.36626426647E+03 -0.59254291852E+01  0.36965927216E+03  0.83943004912E+03  0.65864270000E+03 0.  1.
    8880022    1    1    2    0    0  0.36626426647E+03  0.59254291852E+01 -0.90070435773E+03  0.98429904838E+03  0.15294330000E+03 0.  0.
<mgrwt>
<rscale>  0 0.64204504E+03</rscale>
<asrwt>0</asrwt>
<pdfrwt beam="1">  1        2 0.18113648E+00 0.75365432E+03</pdfrwt>
<pdfrwt beam="2">  1       -2 0.99437232E-01 0.75365432E+03</pdfrwt>
<totfact> 0.16662514E+01</totfact>
</mgrwt>
</event>
<event>
 4    2  0.6914693E-007  0.6799702E+03  0.7818608E-02  0.1009341E+00
          2   -1    0    0  501    0  0.00000000000E+00  0.00000000000E+00  0.37871037158E+04  0.37871037158E+04  0.25500000000E-02 0. -1.
         -2   -1    0    0    0  501 -0.00000000000E+00 -0.00000000000E+00 -0.65853425028E+02  0.65853425078E+02  0.25500000000E-02 0.  1.
    8880023    1    1    2    0    0  0.51285365170E+02 -0.16099410624E+03  0.19100415280E+04  0.20274659395E+04  0.65864270000E+03 0.  1.
    8880022    1    1    2    0    0 -0.51285365170E+02  0.16099410624E+03  0.18112087628E+04  0.18254912014E+04  0.15294330000E+03 0.  0.
<mgrwt>
<rscale>  0 0.51737584E+03</rscale>
<asrwt>0</asrwt>
<pdfrwt beam="1">  1        2 0.58263156E+00 0.67997022E+03</pdfrwt>
<pdfrwt beam="2">  1       -2 0.10131292E-01 0.67997022E+03</pdfrwt>
<totfact> 0.37238352E+01</totfact>
</mgrwt>
</event>
<event>
 4    2  0.6914693E-007  0.8202492E+03  0.7818608E-02  0.9668611E-01
         -2   -1    0    0    0  501 -0.00000000000E+00  0.00000000000E+00  0.52007231094E+03  0.52007231095E+03  0.25500000000E-02 0.  1.
          2   -1    0    0  501    0  0.00000000000E+00 -0.00000000000E+00 -0.15399087962E+04  0.15399087962E+04  0.25500000000E-02 0. -1.
    8880023    1    1    2    0    0  0.14739975020E+03  0.46612420928E+03  0.10215838549E+03  0.82658635776E+03  0.65864270000E+03 0.  0.
    8880022    1    1    2    0    0 -0.14739975020E+03 -0.46612420928E+03 -0.11219948708E+04  0.12333947494E+04  0.15294330000E+03 0.  0.
<mgrwt>
<rscale>  0 0.72916830E+03</rscale>
<asrwt>0</asrwt>
<pdfrwt beam="1">  1        2 0.23690904E+00 0.82024915E+03</pdfrwt>
<pdfrwt beam="2">  1       -2 0.80011125E-01 0.82024915E+03</pdfrwt>
<totfact> 0.16925418E+01</totfact>
</mgrwt>
</event>
<event>
 4    2  0.6914693E-007  0.7610060E+03  0.7818608E-02  0.9802510E-01
          2   -1    0    0  501    0  0.00000000000E+00  0.00000000000E+00  0.12522360774E+04  0.12522360774E+04  0.25500000000E-02 0. -1.
         -2   -1    0    0    0  501 -0.00000000000E+00 -0.00000000000E+00 -0.44124511774E+03  0.44124511775E+03  0.25500000000E-02 0.  1.
    8880023    1    1    2    0    0 -0.27842322261E+03  0.26038517806E+03 -0.25664142260E+02  0.76143862938E+03  0.65864270000E+03 0.  1.
    8880022    1    1    2    0    0  0.27842322261E+03 -0.26038517806E+03  0.83665510191E+03  0.93204256578E+03  0.15294330000E+03 0.  0.
<mgrwt>
<rscale>  0 0.65228017E+03</rscale>
<asrwt>0</asrwt>
<pdfrwt beam="1">  1        2 0.19265170E+00 0.76100600E+03</pdfrwt>
<pdfrwt beam="2">  1       -2 0.67883865E-01 0.76100600E+03</pdfrwt>
<totfact> 0.35678680E+01</totfact>
</mgrwt>
</event>
<event>
 4    2  0.6914693E-007  0.6739328E+03  0.7818608E-02  0.1012988E+00
          2   -1    0    0  501    0  0.00000000000E+00  0.00000000000E+00  0.67121152508E+03  0.67121152509E+03  0.25500000000E-02 0. -1.
         -2   -1    0    0    0  501 -0.00000000000E+00 -0.00000000000E+00 -0.85046134298E+03  0.85046134299E+03  0.25500000000E-02 0.  1.
    8880023    1    1    2    0    0  0.41704201810E+01  0.14268068530E+03 -0.69318185163E+03  0.96679183698E+03  0.65864270000E+03 0.  1.
    8880022    1    1    2    0    0 -0.41704201810E+01 -0.14268068530E+03  0.51393203373E+03  0.55488103110E+03  0.15294330000E+03 0.  0.
<mgrwt>
<rscale>  0 0.50304352E+03</rscale>
<asrwt>0</asrwt>
<pdfrwt beam="1">  1        2 0.10326331E+00 0.67393277E+03</pdfrwt>
<pdfrwt beam="2">  1       -2 0.13084021E+00 0.67393277E+03</pdfrwt>
<totfact> 0.18856403E+01</totfact>
</mgrwt>
</event>
<event>
 4    2  0.6914693E-007  0.6743311E+03  0.7818608E-02  0.1012731E+00
         -2   -1    0    0    0  501 -0.00000000000E+00  0.00000000000E+00  0.42981660568E+03  0.42981660569E+03  0.25500000000E-02 0.  1.
          2   -1    0    0  501    0  0.00000000000E+00 -0.00000000000E+00 -0.20768977097E+04  0.20768977097E+04  0.25500000000E-02 0. -1.
    8880023    1    1    2    0    0  0.71798761886E+02 -0.12552772241E+03  0.15538324934E+03  0.69200175704E+03  0.65864270000E+03 0.  1.
    8880022    1    1    2    0    0 -0.71798761886E+02  0.12552772241E+03 -0.18024643533E+04  0.18147125583E+04  0.15294330000E+03 0.  0.
<mgrwt>
<rscale>  0 0.50403441E+03</rscale>
<asrwt>0</asrwt>
<pdfrwt beam="1">  1        2 0.31952272E+00 0.67433113E+03</pdfrwt>
<pdfrwt beam="2">  1       -2 0.66125633E-01 0.67433113E+03</pdfrwt>
<totfact> 0.13361696E+01</totfact>
</mgrwt>
</event>
<event>
 4    2  0.6914693E-007  0.8105396E+03  0.7818608E-02  0.9688454E-01
         -2   -1    0    0    0  501 -0.00000000000E+00  0.00000000000E+00  0.23773808169E+03  0.23773808170E+03  0.25500000000E-02 0.  1.
          2   -1    0    0  501    0  0.00000000000E+00 -0.00000000000E+00 -0.17971519699E+04  0.17971519699E+04  0.25500000000E-02 0. -1.
    8880023    1    1    2    0    0  0.23975727532E+03 -0.40703884255E+03 -0.98448964116E+03  0.12752232080E+04  0.65864270000E+03 0. -1.
    8880022    1    1    2    0    0 -0.23975727532E+03  0.40703884255E+03 -0.57492424708E+03  0.75966684363E+03  0.15294330000E+03 0.  1.
<mgrwt>
<rscale>  0 0.71708406E+03</rscale>
<asrwt>0</asrwt>
<pdfrwt beam="1">  1        2 0.27648491E+00 0.81053956E+03</pdfrwt>
<pdfrwt beam="2">  1       -2 0.36575091E-01 0.81053956E+03</pdfrwt>
<totfact> 0.62095530E+01</totfact>
</mgrwt>
</event>
<event>
 4    2  0.6914693E-007  0.6836422E+03  0.7818608E-02  0.1007334E+00
         -2   -1    0    0    0  501 -0.00000000000E+00  0.00000000000E+00  0.91306382098E+02  0.91306382133E+02  0.25500000000E-02 0.  1.
          2   -1    0    0  501    0  0.00000000000E+00 -0.00000000000E+00 -0.24936491492E+04  0.24936491492E+04  0.25500000000E-02 0. -1.
    8880023    1    1    2    0    0 -0.66685725935E+02 -0.17061504055E+03 -0.20362864119E+04  0.21479825501E+04  0.65864270000E+03 0. -1.
    8880022    1    1    2    0    0  0.66685725935E+02  0.17061504055E+03 -0.36605635519E+03  0.43697298120E+03  0.15294330000E+03 0. -1.
<mgrwt>
<rscale>  0 0.52548048E+03</rscale>
<asrwt>0</asrwt>
<pdfrwt beam="1">  1        2 0.38363828E+00 0.68364222E+03</pdfrwt>
<pdfrwt beam="2">  1       -2 0.14047138E-01 0.68364222E+03</pdfrwt>
<totfact> 0.14366097E+02</totfact>
</mgrwt>
</event>
<event>
 4    2  0.6914693E-007  0.8087265E+03  0.7818608E-02  0.9692236E-01
          2   -1    0    0  501    0  0.00000000000E+00  0.00000000000E+00  0.86638698691E+03  0.86638698691E+03  0.25500000000E-02 0. -1.
         -2   -1    0    0    0  501 -0.00000000000E+00 -0.00000000000E+00 -0.65193087033E+03  0.65193087034E+03  0.25500000000E-02 0.  1.
    8880023    1    1    2    0    0 -0.17298987974E+03  0.43623710076E+03  0.49734788395E+03  0.94941741637E+03  0.65864270000E+03 0. -1.
    8880022    1    1    2    0    0  0.17298987974E+03 -0.43623710076E+03 -0.28289176737E+03  0.56890044088E+03  0.15294330000E+03 0.  0.
<mgrwt>
<rscale>  0 0.71480956E+03</rscale>
<asrwt>0</asrwt>
<pdfrwt beam="1">  1        2 0.13329031E+00 0.80872648E+03</pdfrwt>
<pdfrwt beam="2">  1       -2 0.10029706E+00 0.80872648E+03</pdfrwt>
<totfact> 0.25598758E+01</totfact>
</mgrwt>
</event>
<event>
 4    2  0.6914693E-007  0.7194722E+03  0.7818608E-02  0.9924376E-01
         -2   -1    0    0    0  501 -0.00000000000E+00  0.00000000000E+00  0.65622082575E+03  0.65622082576E+03  0.25500000000E-02 0.  1.
          2   -1    0    0  501    0  0.00000000000E+00 -0.00000000000E+00 -0.10039989701E+04  0.10039989701E+04  0.25500000000E-02 0. -1.
    8880023    1    1    2    0    0  0.27737007402E+03 -0.83041182210E+02  0.41468055403E+03  0.83042167846E+03  0.65864270000E+03 0.  1.
    8880022    1    1    2    0    0 -0.27737007402E+03  0.83041182210E+02 -0.76245869837E+03  0.82979811740E+03  0.15294330000E+03 0.  0.
<mgrwt>
<rscale>  0 0.59094330E+03</rscale>
<asrwt>0</asrwt>
<pdfrwt beam="1">  1        2 0.15446138E+00 0.71947217E+03</pdfrwt>
<pdfrwt beam="2">  1       -2 0.10095705E+00 0.71947217E+03</pdfrwt>
<totfact> 0.20620650E+01</totfact>
</mgrwt>
</event>
<event>
 4    2  0.6914693E-007  0.6677702E+03  0.7818608E-02  0.1017314E+00
          2   -1    0    0  501    0  0.00000000000E+00  0.00000000000E+00  0.73145649677E+03  0.73145649677E+03  0.25500000000E-02 0. -1.
         -2   -1    0    0    0  501 -0.00000000000E+00 -0.00000000000E+00 -0.31260516076E+03  0.31260516077E+03  0.25500000000E-02 0.  1.
    8880023    1    1    2    0    0  0.10956525126E+03 -0.10113535170E+02  0.10212809822E+03  0.67553473825E+03  0.65864270000E+03 0.  1.
    8880022    1    1    2    0    0 -0.10956525126E+03  0.10113535170E+02  0.31672323778E+03  0.36852691929E+03  0.15294330000E+03 0.  0.
<mgrwt>
<rscale>  0 0.48668336E+03</rscale>
<asrwt>0</asrwt>
<pdfrwt beam="1">  1        2 0.11253177E+00 0.66777020E+03</pdfrwt>
<pdfrwt beam="2">  1       -2 0.48093103E-01 0.66777020E+03</pdfrwt>
<totfact> 0.16106202E+02</totfact>
</mgrwt>
</event>
<event>
 4    2  0.6914693E-007  0.1128091E+04  0.7818608E-02  0.9230406E-01
         -2   -1    0    0    0  501 -0.00000000000E+00  0.00000000000E+00  0.82841905528E+03  0.82841905528E+03  0.25500000000E-02 0.  1.
          2   -1    0    0  501    0  0.00000000000E+00 -0.00000000000E+00 -0.16895871342E+04  0.16895871342E+04  0.25500000000E-02 0. -1.
    8880023    1    1    2    0    0 -0.34611375716E+03  0.84792955196E+03  0.15820739240E+03  0.11391308280E+04  0.65864270000E+03 0.  0.
    8880022    1    1    2    0    0  0.34611375716E+03 -0.84792955196E+03 -0.10193754713E+04  0.13788753615E+04  0.15294330000E+03 0.  0.
<mgrwt>
<rscale>  0 0.10745022E+04</rscale>
<asrwt>0</asrwt>
<pdfrwt beam="1">  1        2 0.25993648E+00 0.11280911E+04</pdfrwt>
<pdfrwt beam="2">  1       -2 0.12744909E+00 0.11280911E+04</pdfrwt>
<totfact> 0.44531991E+00</totfact>
</mgrwt>
</event>
<event>
 4    2  0.6914693E-007  0.1154181E+04  0.7818608E-02  0.9203002E-01
         -2   -1    0    0    0  501 -0.00000000000E+00  0.00000000000E+00  0.77524415585E+03  0.77524415585E+03  0.25500000000E-02 0.  1.
          2   -1    0    0  501    0  0.00000000000E+00 -0.00000000000E+00 -0.18011237942E+04  0.18011237942E+04  0.25500000000E-02 0. -1.
    8880023    1    1    2    0    0 -0.42270149428E+03  0.84831963181E+03  0.23047396306E+02  0.11544107327E+04  0.65864270000E+03 0.  0.
    8880022    1    1    2    0    0  0.42270149428E+03 -0.84831963181E+03 -0.10489270346E+04  0.14219572174E+04  0.15294330000E+03 0.  0.
<mgrwt>
<rscale>  0 0.11022494E+04</rscale>
<asrwt>0</asrwt>
<pdfrwt beam="1">  1        2 0.27709597E+00 0.11541806E+04</pdfrwt>
<pdfrwt beam="2">  1       -2 0.11926833E+00 0.11541806E+04</pdfrwt>
<totfact> 0.45523697E+00</totfact>
</mgrwt>
</event>
<event>
 4    2  0.6914693E-007  0.1254874E+04  0.7818608E-02  0.9105543E-01
         -2   -1    0    0    0  501 -0.00000000000E+00  0.00000000000E+00  0.67765617231E+03  0.67765617232E+03  0.25500000000E-02 0.  1.
          2   -1    0    0  501    0  0.00000000000E+00 -0.00000000000E+00 -0.41730311532E+04  0.41730311532E+04  0.25500000000E-02 0. -1.
    8880023    1    1    2    0    0  0.87614260380E+03  0.61095993947E+03 -0.35550408953E+04  0.37700164301E+04  0.65864270000E+03 0. -1.
    8880022    1    1    2    0    0 -0.87614260380E+03 -0.61095993947E+03  0.59665914402E+02  0.10806708954E+04  0.15294330000E+03 0.  0.
<mgrwt>
<rscale>  0 0.12083915E+04</rscale>
<asrwt>0</asrwt>
<pdfrwt beam="1">  1        2 0.64200478E+00 0.12548737E+04</pdfrwt>
<pdfrwt beam="2">  1       -2 0.10425480E+00 0.12548737E+04</pdfrwt>
<totfact> 0.18506217E-01</totfact>
</mgrwt>
</event>
<event>
 4    2  0.6914693E-007  0.1014287E+04  0.7818608E-02  0.9363100E-01
         -2   -1    0    0    0  501 -0.00000000000E+00  0.00000000000E+00  0.14422125138E+04  0.14422125138E+04  0.25500000000E-02 0.  1.
          2   -1    0    0  501    0  0.00000000000E+00 -0.00000000000E+00 -0.62065330652E+03  0.62065330653E+03  0.25500000000E-02 0. -1.
    8880023    1    1    2    0    0 -0.75592483423E+03 -0.15344494369E+03  0.77252628753E+03  0.12749803045E+04  0.65864270000E+03 0.  0.
    8880022    1    1    2    0    0  0.75592483423E+03  0.15344494369E+03  0.49032919726E+02  0.78788551578E+03  0.15294330000E+03 0.  0.
<mgrwt>
<rscale>  0 0.95175623E+03</rscale>
<asrwt>0</asrwt>
<pdfrwt beam="1">  1        2 0.95485125E-01 0.10142869E+04</pdfrwt>
<pdfrwt beam="2">  1       -2 0.22187885E+00 0.10142869E+04</pdfrwt>
<totfact> 0.45513140E+00</totfact>
</mgrwt>
</event>
<event>
 4    2  0.6914693E-007  0.7226947E+03  0.7818608E-02  0.9913571E-01
          2   -1    0    0  501    0  0.00000000000E+00  0.00000000000E+00  0.13180055948E+04  0.13180055948E+04  0.25500000000E-02 0. -1.
         -2   -1    0    0    0  501 -0.00000000000E+00 -0.00000000000E+00 -0.43623898191E+03  0.43623898192E+03  0.25500000000E-02 0.  1.
    8880023    1    1    2    0    0 -0.25256636097E+03 -0.15712322899E+03 -0.88362948572E+02  0.72807670799E+03  0.65864270000E+03 0.  1.
    8880022    1    1    2    0    0  0.25256636097E+03  0.15712322899E+03  0.97012956148E+03  0.10261678687E+04  0.15294330000E+03 0.  0.
<mgrwt>
<rscale>  0 0.59608055E+03</rscale>
<asrwt>0</asrwt>
<pdfrwt beam="1">  1        2 0.20277009E+00 0.72269474E+03</pdfrwt>
<pdfrwt beam="2">  1       -2 0.67113689E-01 0.72269474E+03</pdfrwt>
<totfact> 0.33638517E+01</totfact>
</mgrwt>
</event>
<event>
 4    2  0.6914693E-007  0.6763107E+03  0.7818608E-02  0.1011493E+00
          2   -1    0    0  501    0  0.00000000000E+00  0.00000000000E+00  0.74911731037E+03  0.74911731038E+03  0.25500000000E-02 0. -1.
         -2   -1    0    0    0  501 -0.00000000000E+00 -0.00000000000E+00 -0.34726783062E+03  0.34726783063E+03  0.25500000000E-02 0.  1.
    8880023    1    1    2    0    0 -0.62867197854E+02 -0.14012014621E+03  0.43653245636E+02  0.67771804761E+03  0.65864270000E+03 0.  1.
    8880022    1    1    2    0    0  0.62867197854E+02  0.14012014621E+03  0.35819623412E+03  0.41866709340E+03  0.15294330000E+03 0.  0.
<mgrwt>
<rscale>  0 0.50885733E+03</rscale>
<asrwt>0</asrwt>
<pdfrwt beam="1">  1        2 0.11524882E+00 0.67631069E+03</pdfrwt>
<pdfrwt beam="2">  1       -2 0.53425821E-01 0.67631069E+03</pdfrwt>
<totfact> 0.12601112E+02</totfact>
</mgrwt>
</event>
<event>
 4    2  0.6914693E-007  0.1038529E+04  0.7818608E-02  0.9332799E-01
         -2   -1    0    0    0  501 -0.00000000000E+00  0.00000000000E+00  0.43856636224E+03  0.43856636225E+03  0.25500000000E-02 0.  1.
          2   -1    0    0  501    0  0.00000000000E+00 -0.00000000000E+00 -0.24521140959E+04  0.24521140959E+04  0.25500000000E-02 0. -1.
    8880023    1    1    2    0    0  0.21525390480E+03 -0.77356246523E+03 -0.46129951738E+03  0.11363716743E+04  0.65864270000E+03 0.  0.
    8880022    1    1    2    0    0 -0.21525390480E+03  0.77356246523E+03 -0.15522482163E+04  0.17543087838E+04  0.15294330000E+03 0.  0.
<mgrwt>
<rscale>  0 0.97818567E+03</rscale>
<asrwt>0</asrwt>
<pdfrwt beam="1">  1        2 0.37724831E+00 0.10385294E+04</pdfrwt>
<pdfrwt beam="2">  1       -2 0.67471750E-01 0.10385294E+04</pdfrwt>
<totfact> 0.75141500E+00</totfact>
</mgrwt>
</event>
<event>
 4    2  0.6914693E-007  0.8526190E+03  0.7818608E-02  0.9606830E-01
          2   -1    0    0  501    0  0.00000000000E+00  0.00000000000E+00  0.10809956168E+04  0.10809956168E+04  0.25500000000E-02 0. -1.
         -2   -1    0    0    0  501 -0.00000000000E+00 -0.00000000000E+00 -0.48123978707E+03  0.48123978708E+03  0.25500000000E-02 0.  1.
    8880023    1    1    2    0    0 -0.51557811005E+03  0.16531253120E+03  0.21090674908E+03  0.87831707464E+03  0.65864270000E+03 0.  0.
    8880022    1    1    2    0    0  0.51557811005E+03 -0.16531253120E+03  0.38884908064E+03  0.68391832924E+03  0.15294330000E+03 0.  0.
<mgrwt>
<rscale>  0 0.76845769E+03</rscale>
<asrwt>0</asrwt>
<pdfrwt beam="1">  1        2 0.16630702E+00 0.85261904E+03</pdfrwt>
<pdfrwt beam="2">  1       -2 0.74036891E-01 0.85261904E+03</pdfrwt>
<totfact> 0.37061375E+01</totfact>
</mgrwt>
</event>
<event>
 4    2  0.6914693E-007  0.7295675E+03  0.7818608E-02  0.9891450E-01
         -2   -1    0    0    0  501 -0.00000000000E+00  0.00000000000E+00  0.13105502969E+04  0.13105502970E+04  0.25500000000E-02 0.  1.
          2   -1    0    0  501    0  0.00000000000E+00 -0.00000000000E+00 -0.22609556956E+03  0.22609556957E+03  0.25500000000E-02 0. -1.
    8880023    1    1    2    0    0 -0.25871901983E+03 -0.17754732863E+03  0.82756781237E+03  0.11032394461E+04  0.65864270000E+03 0.  1.
    8880022    1    1    2    0    0  0.25871901983E+03  0.17754732863E+03  0.25688691503E+03  0.43340642041E+03  0.15294330000E+03 0. -1.
<mgrwt>
<rscale>  0 0.60677464E+03</rscale>
<asrwt>0</asrwt>
<pdfrwt beam="1">  1        2 0.34783934E-01 0.72956754E+03</pdfrwt>
<pdfrwt beam="2">  1       -2 0.20162312E+00 0.72956754E+03</pdfrwt>
<totfact> 0.19911051E+01</totfact>
</mgrwt>
</event>
<event>
 4    2  0.6914693E-007  0.1205872E+04  0.7818608E-02  0.9151435E-01
         -2   -1    0    0    0  501 -0.00000000000E+00  0.00000000000E+00  0.16121539414E+04  0.16121539414E+04  0.25500000000E-02 0.  1.
          2   -1    0    0  501    0  0.00000000000E+00 -0.00000000000E+00 -0.14284542272E+04  0.14284542272E+04  0.25500000000E-02 0. -1.
    8880023    1    1    2    0    0  0.88845753591E+03 -0.48058344297E+03  0.11266794801E+04  0.16503133327E+04  0.65864270000E+03 0.  0.
    8880022    1    1    2    0    0 -0.88845753591E+03  0.48058344297E+03 -0.94297976596E+03  0.13902948359E+04  0.15294330000E+03 0. -1.
<mgrwt>
<rscale>  0 0.11569067E+04</rscale>
<asrwt>0</asrwt>
<pdfrwt beam="1">  1        2 0.21976219E+00 0.12058721E+04</pdfrwt>
<pdfrwt beam="2">  1       -2 0.24802368E+00 0.12058721E+04</pdfrwt>
<totfact> 0.89445355E-01</totfact>
</mgrwt>
</event>
<event>
 4    2  0.6914693E-007  0.7105881E+03  0.7818608E-02  0.9955823E-01
          2   -1    0    0  501    0  0.00000000000E+00  0.00000000000E+00  0.85061670292E+03  0.85061670292E+03  0.25500000000E-02 0. -1.
         -2   -1    0    0    0  501 -0.00000000000E+00 -0.00000000000E+00 -0.67159729034E+03  0.67159729034E+03  0.25500000000E-02 0.  1.
    8880023    1    1    2    0    0 -0.76563117009E+02  0.25546701236E+03 -0.43666918781E+03  0.83403566539E+03  0.65864270000E+03 0.  1.
    8880022    1    1    2    0    0  0.76563117009E+02 -0.25546701236E+03  0.61568860039E+03  0.68817832788E+03  0.15294330000E+03 0.  0.
<mgrwt>
<rscale>  0 0.57630473E+03</rscale>
<asrwt>0</asrwt>
<pdfrwt beam="1">  1        2 0.13086411E+00 0.71058814E+03</pdfrwt>
<pdfrwt beam="2">  1       -2 0.10332266E+00 0.71058814E+03</pdfrwt>
<totfact> 0.24678568E+01</totfact>
</mgrwt>
</event>
<event>
 4    2  0.6914693E-007  0.7299577E+03  0.7818608E-02  0.9890229E-01
         -2   -1    0    0    0  501 -0.00000000000E+00  0.00000000000E+00  0.21584932201E+03  0.21584932202E+03  0.25500000000E-02 0.  1.
          2   -1    0    0  501    0  0.00000000000E+00 -0.00000000000E+00 -0.33710158506E+04  0.33710158506E+04  0.25500000000E-02 0. -1.
    8880023    1    1    2    0    0 -0.85247350545E+02  0.30292068573E+03 -0.44648469484E+03  0.85567916979E+03  0.65864270000E+03 0.  1.
    8880022    1    1    2    0    0  0.85247350545E+02 -0.30292068573E+03 -0.27086818338E+04  0.27311860029E+04  0.15294330000E+03 0.  0.
<mgrwt>
<rscale>  0 0.60737189E+03</rscale>
<asrwt>0</asrwt>
<pdfrwt beam="1">  1        2 0.51861778E+00 0.72995771E+03</pdfrwt>
<pdfrwt beam="2">  1       -2 0.33207590E-01 0.72995771E+03</pdfrwt>
<totfact> 0.91235575E+00</totfact>
</mgrwt>
</event>
<event>
 4    2  0.6914693E-007  0.9465956E+03  0.7818608E-02  0.9455029E-01
         -2   -1    0    0    0  501 -0.00000000000E+00  0.00000000000E+00  0.54689094058E+03  0.54689094058E+03  0.25500000000E-02 0.  1.
          2   -1    0    0  501    0  0.00000000000E+00 -0.00000000000E+00 -0.15831317918E+04  0.15831317918E+04  0.25500000000E-02 0. -1.
    8880023    1    1    2    0    0  0.55912203053E+03  0.38680169135E+03 -0.10746443016E+04  0.14320976135E+04  0.65864270000E+03 0.  0.
    8880022    1    1    2    0    0 -0.55912203053E+03 -0.38680169135E+03  0.38403450416E+02  0.69792511882E+03  0.15294330000E+03 0.  0.
<mgrwt>
<rscale>  0 0.87682101E+03</rscale>
<asrwt>0</asrwt>
<pdfrwt beam="1">  1        2 0.24355873E+00 0.94659558E+03</pdfrwt>
<pdfrwt beam="2">  1       -2 0.84137069E-01 0.94659558E+03</pdfrwt>
<totfact> 0.14094075E+01</totfact>
</mgrwt>
</event>
<event>
 4    2  0.6914693E-007  0.8585402E+03  0.7818608E-02  0.9596165E-01
         -2   -1    0    0    0  501 -0.00000000000E+00  0.00000000000E+00  0.23332017973E+03  0.23332017974E+03  0.25500000000E-02 0.  1.
          2   -1    0    0  501    0  0.00000000000E+00 -0.00000000000E+00 -0.28585381016E+04  0.28585381016E+04  0.25500000000E-02 0. -1.
    8880023    1    1    2    0    0  0.15451804093E+02 -0.55049275844E+03 -0.77930878075E+03  0.11594884292E+04  0.65864270000E+03 0.  1.
    8880022    1    1    2    0    0 -0.15451804093E+02  0.55049275844E+03 -0.18459091411E+04  0.19323698521E+04  0.15294330000E+03 0.  0.
<mgrwt>
<rscale>  0 0.77550495E+03</rscale>
<asrwt>0</asrwt>
<pdfrwt beam="1">  1        2 0.43977507E+00 0.85854018E+03</pdfrwt>
<pdfrwt beam="2">  1       -2 0.35895414E-01 0.85854018E+03</pdfrwt>
<totfact> 0.16148417E+01</totfact>
</mgrwt>
</event>
<event>
 4    2  0.6914693E-007  0.7929465E+03  0.7818608E-02  0.9726260E-01
         -2   -1    0    0    0  501 -0.00000000000E+00  0.00000000000E+00  0.19422958989E+03  0.19422958991E+03  0.25500000000E-02 0.  1.
          2   -1    0    0  501    0  0.00000000000E+00 -0.00000000000E+00 -0.22749677331E+04  0.22749677331E+04  0.25500000000E-02 0. -1.
    8880023    1    1    2    0    0 -0.40924865419E+03 -0.16573920390E+03 -0.16632016403E+04  0.18425536212E+04  0.65864270000E+03 0.  0.
    8880022    1    1    2    0    0  0.40924865419E+03  0.16573920390E+03 -0.41753650290E+03  0.62664370174E+03  0.15294330000E+03 0.  0.
<mgrwt>
<rscale>  0 0.69474586E+03</rscale>
<asrwt>0</asrwt>
<pdfrwt beam="1">  1        2 0.34999502E+00 0.79294650E+03</pdfrwt>
<pdfrwt beam="2">  1       -2 0.29881477E-01 0.79294650E+03</pdfrwt>
<totfact> 0.49825934E+01</totfact>
</mgrwt>
</event>
<event>
 4    2  0.6914693E-007  0.1557918E+04  0.7818608E-02  0.8869785E-01
         -2   -1    0    0    0  501 -0.00000000000E+00  0.00000000000E+00  0.13964866555E+04  0.13964866555E+04  0.25500000000E-02 0.  1.
          2   -1    0    0  501    0  0.00000000000E+00 -0.00000000000E+00 -0.18534514372E+04  0.18534514372E+04  0.25500000000E-02 0. -1.
    8880023    1    1    2    0    0 -0.13420482146E+04  0.43841140363E+03  0.37724568215E+03  0.16029418206E+04  0.65864270000E+03 0.  0.
    8880022    1    1    2    0    0  0.13420482146E+04 -0.43841140363E+03 -0.83421046386E+03  0.16469962721E+04  0.15294330000E+03 0.  0.
<mgrwt>
<rscale>  0 0.15222581E+04</rscale>
<asrwt>0</asrwt>
<pdfrwt beam="1">  1        2 0.28514637E+00 0.15579179E+04</pdfrwt>
<pdfrwt beam="2">  1       -2 0.21484410E+00 0.15579179E+04</pdfrwt>
<totfact> 0.80217086E-01</totfact>
</mgrwt>
</event>
<event>
 4    2  0.6914693E-007  0.1047209E+04  0.7818608E-02  0.9322244E-01
          2   -1    0    0  501    0  0.00000000000E+00  0.00000000000E+00  0.11240461914E+04  0.11240461914E+04  0.25500000000E-02 0. -1.
         -2   -1    0    0    0  501 -0.00000000000E+00 -0.00000000000E+00 -0.12269638207E+04  0.12269638207E+04  0.25500000000E-02 0.  1.
    8880023    1    1    2    0    0 -0.27899035719E+03  0.76485314225E+03  0.64920672421E+03  0.12321183083E+04  0.65864270000E+03 0. -1.
    8880022    1    1    2    0    0  0.27899035719E+03 -0.76485314225E+03 -0.75212435358E+03  0.11188917038E+04  0.15294330000E+03 0.  0.
<mgrwt>
<rscale>  0 0.98760543E+03</rscale>
<asrwt>0</asrwt>
<pdfrwt beam="1">  1        2 0.17293018E+00 0.10472087E+04</pdfrwt>
<pdfrwt beam="2">  1       -2 0.18876366E+00 0.10472087E+04</pdfrwt>
<totfact> 0.32818829E+00</totfact>
</mgrwt>
</event>
<event>
 4    2  0.6914693E-007  0.1050231E+04  0.7818608E-02  0.9318604E-01
          2   -1    0    0  501    0  0.00000000000E+00  0.00000000000E+00  0.11226910650E+04  0.11226910650E+04  0.25500000000E-02 0. -1.
         -2   -1    0    0    0  501 -0.00000000000E+00 -0.00000000000E+00 -0.79740574818E+03  0.79740574819E+03  0.25500000000E-02 0.  1.
    8880023    1    1    2    0    0  0.81277590798E+03 -0.92570399366E+02  0.27873925895E+03  0.10865908780E+04  0.65864270000E+03 0. -1.
    8880022    1    1    2    0    0 -0.81277590798E+03  0.92570399366E+02  0.46546057844E+02  0.83350593516E+03  0.15294330000E+03 0.  1.
<mgrwt>
<rscale>  0 0.99088007E+03</rscale>
<asrwt>0</asrwt>
<pdfrwt beam="1">  1        2 0.17272170E+00 0.10502305E+04</pdfrwt>
<pdfrwt beam="2">  1       -2 0.12267781E+00 0.10502305E+04</pdfrwt>
<totfact> 0.10475021E+01</totfact>
</mgrwt>
</event>
<event>
 4    2  0.6914693E-007  0.7306870E+03  0.7818608E-02  0.9887956E-01
          2   -1    0    0  501    0  0.00000000000E+00  0.00000000000E+00  0.80367675764E+03  0.80367675764E+03  0.25500000000E-02 0. -1.
         -2   -1    0    0    0  501 -0.00000000000E+00 -0.00000000000E+00 -0.68832246050E+03  0.68832246051E+03  0.25500000000E-02 0.  1.
    8880023    1    1    2    0    0  0.21329284340E+02 -0.31565550577E+03 -0.42658954105E+03  0.84609820913E+03  0.65864270000E+03 0.  1.
    8880022    1    1    2    0    0 -0.21329284340E+02  0.31565550577E+03  0.54194383818E+03  0.64590100902E+03  0.15294330000E+03 0.  0.
<mgrwt>
<rscale>  0 0.60848562E+03</rscale>
<asrwt>0</asrwt>
<pdfrwt beam="1">  1        2 0.12364258E+00 0.73068703E+03</pdfrwt>
<pdfrwt beam="2">  1       -2 0.10589576E+00 0.73068703E+03</pdfrwt>
<totfact> 0.25057433E+01</totfact>
</mgrwt>
</event>
<event>
 4    2  0.6914693E-007  0.7543754E+03  0.7818608E-02  0.9819893E-01
         -2   -1    0    0    0  501 -0.00000000000E+00  0.00000000000E+00  0.36747109969E+03  0.36747109970E+03  0.25500000000E-02 0.  1.
          2   -1    0    0  501    0  0.00000000000E+00 -0.00000000000E+00 -0.18086935409E+04  0.18086935409E+04  0.25500000000E-02 0. -1.
    8880023    1    1    2    0    0 -0.36024207070E+03  0.74146164971E+02 -0.80874064588E+02  0.75869811116E+03  0.65864270000E+03 0.  1.
    8880022    1    1    2    0    0  0.36024207070E+03 -0.74146164971E+02 -0.13603483766E+04  0.14174665294E+04  0.15294330000E+03 0. -1.
<mgrwt>
<rscale>  0 0.64305824E+03</rscale>
<asrwt>0</asrwt>
<pdfrwt beam="1">  1        2 0.27826054E+00 0.75437538E+03</pdfrwt>
<pdfrwt beam="2">  1       -2 0.56534016E-01 0.75437538E+03</pdfrwt>
<totfact> 0.25768986E+01</totfact>
</mgrwt>
</event>
<event>
 4    2  0.6914693E-007  0.7907084E+03  0.7818608E-02  0.9731259E-01
          2   -1    0    0  501    0  0.00000000000E+00  0.00000000000E+00  0.21734205989E+04  0.21734205989E+04  0.25500000000E-02 0. -1.
         -2   -1    0    0    0  501 -0.00000000000E+00 -0.00000000000E+00 -0.19672775051E+03  0.19672775052E+03  0.25500000000E-02 0.  1.
    8880023    1    1    2    0    0 -0.35560645479E+03  0.25486010255E+03  0.15506514110E+04  0.17406147269E+04  0.65864270000E+03 0.  0.
    8880022    1    1    2    0    0  0.35560645479E+03 -0.25486010255E+03  0.42604143732E+03  0.62953362253E+03  0.15294330000E+03 0.  0.
<mgrwt>
<rscale>  0 0.69185787E+03</rscale>
<asrwt>0</asrwt>
<pdfrwt beam="1">  1        2 0.33437240E+00 0.79070843E+03</pdfrwt>
<pdfrwt beam="2">  1       -2 0.30265808E-01 0.79070843E+03</pdfrwt>
<totfact> 0.55389308E+01</totfact>
</mgrwt>
</event>
<event>
 4    2  0.6914693E-007  0.7362539E+03  0.7818608E-02  0.9870997E-01
          2   -1    0    0  501    0  0.00000000000E+00  0.00000000000E+00  0.11939465284E+04  0.11939465284E+04  0.25500000000E-02 0. -1.
         -2   -1    0    0    0  501 -0.00000000000E+00 -0.00000000000E+00 -0.33349653426E+03  0.33349653427E+03  0.25500000000E-02 0.  1.
    8880023    1    1    2    0    0 -0.27697757167E+03 -0.17760370094E+03  0.18254935889E+03  0.75854737788E+03  0.65864270000E+03 0.  0.
    8880022    1    1    2    0    0  0.27697757167E+03  0.17760370094E+03  0.67790063520E+03  0.76889568474E+03  0.15294330000E+03 0.  0.
<mgrwt>
<rscale>  0 0.61687741E+03</rscale>
<asrwt>0</asrwt>
<pdfrwt beam="1">  1        2 0.18368408E+00 0.73625393E+03</pdfrwt>
<pdfrwt beam="2">  1       -2 0.51307160E-01 0.73625393E+03</pdfrwt>
<totfact> 0.69779840E+01</totfact>
</mgrwt>
</event>
<event>
 4    2  0.6914693E-007  0.8252527E+03  0.7818608E-02  0.9658641E-01
         -2   -1    0    0    0  501 -0.00000000000E+00  0.00000000000E+00  0.87986285268E+03  0.87986285269E+03  0.25500000000E-02 0.  1.
          2   -1    0    0  501    0  0.00000000000E+00 -0.00000000000E+00 -0.13461645439E+04  0.13461645439E+04  0.25500000000E-02 0. -1.
    8880023    1    1    2    0    0  0.24007777248E+03  0.43542453299E+03  0.61292262712E+03  0.10279670296E+04  0.65864270000E+03 0.  1.
    8880022    1    1    2    0    0 -0.24007777248E+03 -0.43542453299E+03 -0.10792243184E+04  0.11980603671E+04  0.15294330000E+03 0.  0.
<mgrwt>
<rscale>  0 0.73533615E+03</rscale>
<asrwt>0</asrwt>
<pdfrwt beam="1">  1        2 0.20710224E+00 0.82525273E+03</pdfrwt>
<pdfrwt beam="2">  1       -2 0.13536352E+00 0.82525273E+03</pdfrwt>
<totfact> 0.61656148E+00</totfact>
</mgrwt>
</event>
<event>
 4    2  0.6914693E-007  0.7441071E+03  0.7818608E-02  0.9848141E-01
         -2   -1    0    0    0  501 -0.00000000000E+00  0.00000000000E+00  0.49407854818E+03  0.49407854819E+03  0.25500000000E-02 0.  1.
          2   -1    0    0  501    0  0.00000000000E+00 -0.00000000000E+00 -0.11316708832E+04  0.11316708832E+04  0.25500000000E-02 0. -1.
    8880023    1    1    2    0    0  0.26971843260E+03 -0.21711100349E+03  0.14345947156E+03  0.75781003356E+03  0.65864270000E+03 0.  0.
    8880022    1    1    2    0    0 -0.26971843260E+03  0.21711100349E+03 -0.78105180654E+03  0.86793939779E+03  0.15294330000E+03 0.  0.
<mgrwt>
<rscale>  0 0.62841800E+03</rscale>
<asrwt>0</asrwt>
<pdfrwt beam="1">  1        2 0.17410321E+00 0.74410713E+03</pdfrwt>
<pdfrwt beam="2">  1       -2 0.76012085E-01 0.74410713E+03</pdfrwt>
<totfact> 0.32876041E+01</totfact>
</mgrwt>
</event>
<event>
 4    2  0.6914693E-007  0.7204759E+03  0.7818608E-02  0.9920979E-01
          2   -1    0    0  501    0  0.00000000000E+00  0.00000000000E+00  0.11690340608E+04  0.11690340608E+04  0.25500000000E-02 0. -1.
         -2   -1    0    0    0  501 -0.00000000000E+00 -0.00000000000E+00 -0.55589522407E+03  0.55589522408E+03  0.25500000000E-02 0.  1.
    8880023    1    1    2    0    0  0.12582246684E+03  0.26352234051E+03 -0.27994303089E+03  0.77295124291E+03  0.65864270000E+03 0.  1.
    8880022    1    1    2    0    0 -0.12582246684E+03 -0.26352234051E+03  0.89308186763E+03  0.95197804198E+03  0.15294330000E+03 0.  0.
<mgrwt>
<rscale>  0 0.59255244E+03</rscale>
<asrwt>0</asrwt>
<pdfrwt beam="1">  1        2 0.17985139E+00 0.72047590E+03</pdfrwt>
<pdfrwt beam="2">  1       -2 0.85522344E-01 0.72047590E+03</pdfrwt>
<totfact> 0.24002670E+01</totfact>
</mgrwt>
</event>
<event>
 4    2  0.6914693E-007  0.9454801E+03  0.7818608E-02  0.9456647E-01
         -2   -1    0    0    0  501 -0.00000000000E+00  0.00000000000E+00  0.10976551597E+04  0.10976551597E+04  0.25500000000E-02 0.  1.
          2   -1    0    0  501    0  0.00000000000E+00 -0.00000000000E+00 -0.12992603615E+04  0.12992603615E+04  0.25500000000E-02 0. -1.
    8880023    1    1    2    0    0  0.67600281623E+03  0.56059430991E+02  0.75803113805E+03  0.12118349227E+04  0.65864270000E+03 0.  0.
    8880022    1    1    2    0    0 -0.67600281623E+03 -0.56059430991E+02 -0.95963633982E+03  0.11850805986E+04  0.15294330000E+03 0.  0.
<mgrwt>
<rscale>  0 0.87556915E+03</rscale>
<asrwt>0</asrwt>
<pdfrwt beam="1">  1        2 0.19988621E+00 0.94548013E+03</pdfrwt>
<pdfrwt beam="2">  1       -2 0.16887002E+00 0.94548013E+03</pdfrwt>
<totfact> 0.35853618E+00</totfact>
</mgrwt>
</event>
<event>
 4    2  0.6914693E-007  0.8622699E+03  0.7818608E-02  0.9589538E-01
         -2   -1    0    0    0  501 -0.00000000000E+00  0.00000000000E+00  0.50061480076E+03  0.50061480077E+03  0.25500000000E-02 0.  1.
          2   -1    0    0  501    0  0.00000000000E+00 -0.00000000000E+00 -0.20547590738E+04  0.20547590738E+04  0.25500000000E-02 0. -1.
    8880023    1    1    2    0    0  0.55577573036E+03 -0.28504246668E+02 -0.17458910502E+04  0.19472146569E+04  0.65864270000E+03 0. -1.
    8880022    1    1    2    0    0 -0.55577573036E+03  0.28504246668E+02  0.19174677713E+03  0.60815921771E+03  0.15294330000E+03 0.  1.
<mgrwt>
<rscale>  0 0.77992483E+03</rscale>
<asrwt>0</asrwt>
<pdfrwt beam="1">  1        2 0.31611678E+00 0.86226989E+03</pdfrwt>
<pdfrwt beam="2">  1       -2 0.77017662E-01 0.86226989E+03</pdfrwt>
<totfact> 0.95638094E+00</totfact>
</mgrwt>
</event>
<event>
 4    2  0.6914693E-007  0.8383321E+03  0.7818608E-02  0.9633333E-01
         -2   -1    0    0    0  501 -0.00000000000E+00  0.00000000000E+00  0.38044430354E+03  0.38044430355E+03  0.25500000000E-02 0.  1.
          2   -1    0    0  501    0  0.00000000000E+00 -0.00000000000E+00 -0.15335803805E+04  0.15335803805E+04  0.25500000000E-02 0. -1.
    8880023    1    1    2    0    0 -0.45784653151E+03  0.24365360823E+03 -0.27411834406E+03  0.88200997729E+03  0.65864270000E+03 0.  1.
    8880022    1    1    2    0    0  0.45784653151E+03 -0.24365360823E+03 -0.87901773290E+03  0.10320147068E+04  0.15294330000E+03 0.  0.
<mgrwt>
<rscale>  0 0.75128711E+03</rscale>
<asrwt>0</asrwt>
<pdfrwt beam="1">  1        2 0.23593544E+00 0.83833211E+03</pdfrwt>
<pdfrwt beam="2">  1       -2 0.58529894E-01 0.83833211E+03</pdfrwt>
<totfact> 0.33626390E+01</totfact>
</mgrwt>
</event>
<event>
 4    2  0.6914693E-007  0.6591528E+03  0.7818608E-02  0.1025042E+00
          2   -1    0    0  501    0  0.00000000000E+00  0.00000000000E+00  0.11150198443E+04  0.11150198443E+04  0.25500000000E-02 0. -1.
         -2   -1    0    0    0  501 -0.00000000000E+00 -0.00000000000E+00 -0.42198205309E+03  0.42198205309E+03  0.25500000000E-02 0.  1.
    8880023    1    1    2    0    0 -0.84389249568E+01  0.24515641565E+02 -0.15315158261E+03  0.67671105034E+03  0.65864270000E+03 0.  1.
    8880022    1    1    2    0    0  0.84389249568E+01 -0.24515641565E+02  0.84618937384E+03  0.86029084707E+03  0.15294330000E+03 0.  0.
<mgrwt>
<rscale>  0 0.45910318E+03</rscale>
<asrwt>0</asrwt>
<pdfrwt beam="1">  1        2 0.17154151E+00 0.65915282E+03</pdfrwt>
<pdfrwt beam="2">  1       -2 0.64920317E-01 0.65915282E+03</pdfrwt>
<totfact> 0.47893693E+01</totfact>
</mgrwt>
</event>
<event>
 4    2  0.6914693E-007  0.1128454E+04  0.7818608E-02  0.9230018E-01
         -2   -1    0    0    0  501 -0.00000000000E+00  0.00000000000E+00  0.60642416507E+03  0.60642416507E+03  0.25500000000E-02 0.  1.
          2   -1    0    0  501    0  0.00000000000E+00 -0.00000000000E+00 -0.28513505086E+04  0.28513505086E+04  0.25500000000E-02 0. -1.
    8880023    1    1    2    0    0  0.81390261189E+03 -0.42090566006E+03 -0.11527396599E+03  0.11343268179E+04  0.65864270000E+03 0.  0.
    8880022    1    1    2    0    0 -0.81390261189E+03  0.42090566006E+03 -0.21296523775E+04  0.23234478557E+04  0.15294330000E+03 0.  0.
<mgrwt>
<rscale>  0 0.10748894E+04</rscale>
<asrwt>0</asrwt>
<pdfrwt beam="1">  1        2 0.43866930E+00 0.11284544E+04</pdfrwt>
<pdfrwt beam="2">  1       -2 0.93296027E-01 0.11284544E+04</pdfrwt>
<totfact> 0.20885484E+00</totfact>
</mgrwt>
</event>
<event>
 4    2  0.6914693E-007  0.7360508E+03  0.7818608E-02  0.9871604E-01
          2   -1    0    0  501    0  0.00000000000E+00  0.00000000000E+00  0.12651286964E+04  0.12651286964E+04  0.25500000000E-02 0. -1.
         -2   -1    0    0    0  501 -0.00000000000E+00 -0.00000000000E+00 -0.35403796581E+03  0.35403796582E+03  0.25500000000E-02 0.  1.
    8880023    1    1    2    0    0 -0.25646036940E+03 -0.20539882523E+03  0.11568978816E+03  0.74508719746E+03  0.65864270000E+03 0.  1.
    8880022    1    1    2    0    0  0.25646036940E+03  0.20539882523E+03  0.79540094247E+03  0.87407946480E+03  0.15294330000E+03 0.  0.
<mgrwt>
<rscale>  0 0.61657447E+03</rscale>
<asrwt>0</asrwt>
<pdfrwt beam="1">  1        2 0.19463519E+00 0.73605082E+03</pdfrwt>
<pdfrwt beam="2">  1       -2 0.54467378E-01 0.73605082E+03</pdfrwt>
<totfact> 0.56047258E+01</totfact>
</mgrwt>
</event>
<event>
 4    2  0.6914693E-007  0.8225181E+03  0.7818608E-02  0.9664069E-01
          2   -1    0    0  501    0  0.00000000000E+00  0.00000000000E+00  0.20926032011E+04  0.20926032011E+04  0.25500000000E-02 0. -1.
         -2   -1    0    0    0  501 -0.00000000000E+00 -0.00000000000E+00 -0.62964728922E+03  0.62964728923E+03  0.25500000000E-02 0.  1.
    8880023    1    1    2    0    0  0.48358192006E+03 -0.94204079291E+02 -0.30753944617E+03  0.87813244968E+03  0.65864270000E+03 0.  0.
    8880022    1    1    2    0    0 -0.48358192006E+03  0.94204079291E+02  0.17704953580E+04  0.18441180406E+04  0.15294330000E+03 0.  0.
<mgrwt>
<rscale>  0 0.73197003E+03</rscale>
<asrwt>0</asrwt>
<pdfrwt beam="1">  1        2 0.32193896E+00 0.82251814E+03</pdfrwt>
<pdfrwt beam="2">  1       -2 0.96868813E-01 0.82251814E+03</pdfrwt>
<totfact> 0.54218151E+00</totfact>
</mgrwt>
</event>
<event>
 4    2  0.6914693E-007  0.7577819E+03  0.7818608E-02  0.9810884E-01
          2   -1    0    0  501    0  0.00000000000E+00  0.00000000000E+00  0.80734062523E+03  0.80734062523E+03  0.25500000000E-02 0. -1.
         -2   -1    0    0    0  501 -0.00000000000E+00 -0.00000000000E+00 -0.12948515560E+04  0.12948515560E+04  0.25500000000E-02 0.  1.
    8880023    1    1    2    0    0  0.33510784746E+03 -0.16770782529E+03 -0.11194122031E+04  0.13517829229E+04  0.65864270000E+03 0.  0.
    8880022    1    1    2    0    0 -0.33510784746E+03  0.16770782529E+03  0.63190127226E+03  0.75040925833E+03  0.15294330000E+03 0.  0.
<mgrwt>
<rscale>  0 0.64781697E+03</rscale>
<asrwt>0</asrwt>
<pdfrwt beam="1">  1        2 0.12420625E+00 0.75778189E+03</pdfrwt>
<pdfrwt beam="2">  1       -2 0.19920793E+00 0.75778189E+03</pdfrwt>
<totfact> 0.46756547E+00</totfact>
</mgrwt>
</event>
<event>
 4    2  0.6914693E-007  0.8771295E+03  0.7818608E-02  0.9563791E-01
          2   -1    0    0  501    0  0.00000000000E+00  0.00000000000E+00  0.79270677147E+03  0.79270677147E+03  0.25500000000E-02 0. -1.
         -2   -1    0    0    0  501 -0.00000000000E+00 -0.00000000000E+00 -0.84809032130E+03  0.84809032131E+03  0.25500000000E-02 0.  1.
    8880023    1    1    2    0    0 -0.19265902035E+03  0.54628608087E+03  0.32013415551E+03  0.93372483316E+03  0.65864270000E+03 0.  0.
    8880022    1    1    2    0    0  0.19265902035E+03 -0.54628608087E+03 -0.37551770535E+03  0.70707225962E+03  0.15294330000E+03 0. -1.
<mgrwt>
<rscale>  0 0.79739805E+03</rscale>
<asrwt>0</asrwt>
<pdfrwt beam="1">  1        2 0.12195489E+00 0.87712952E+03</pdfrwt>
<pdfrwt beam="2">  1       -2 0.13047543E+00 0.87712952E+03</pdfrwt>
<totfact> 0.15045838E+01</totfact>
</mgrwt>
</event>
<event>
 4    2  0.6914693E-007  0.7067251E+03  0.7818608E-02  0.9970369E-01
          2   -1    0    0  501    0  0.00000000000E+00  0.00000000000E+00  0.29665813984E+04  0.29665813984E+04  0.25500000000E-02 0. -1.
         -2   -1    0    0    0  501 -0.00000000000E+00 -0.00000000000E+00 -0.31181809760E+03  0.31181809761E+03  0.25500000000E-02 0.  1.
    8880023    1    1    2    0    0  0.23990248598E+03 -0.89983471294E+02  0.10884993189E+03  0.71505855831E+03  0.65864270000E+03 0.  1.
    8880022    1    1    2    0    0 -0.23990248598E+03  0.89983471294E+02  0.25459133689E+04  0.25633409377E+04  0.15294330000E+03 0.  0.
<mgrwt>
<rscale>  0 0.56968817E+03</rscale>
<asrwt>0</asrwt>
<pdfrwt beam="1">  1        2 0.45639714E+00 0.70672515E+03</pdfrwt>
<pdfrwt beam="2">  1       -2 0.47972015E-01 0.70672515E+03</pdfrwt>
<totfact> 0.80627730E+00</totfact>
</mgrwt>
</event>
<event>
 4    2  0.6914693E-007  0.6860908E+03  0.7818608E-02  0.1006069E+00
         -2   -1    0    0    0  501 -0.00000000000E+00  0.00000000000E+00  0.12713753241E+04  0.12713753241E+04  0.25500000000E-02 0.  1.
          2   -1    0    0  501    0  0.00000000000E+00 -0.00000000000E+00 -0.48127960732E+03  0.48127960732E+03  0.25500000000E-02 0. -1.
    8880023    1    1    2    0    0 -0.19180435873E+03 -0.11019736680E+02  0.11368011456E+04  0.13277941849E+04  0.65864270000E+03 0.  1.
    8880022    1    1    2    0    0  0.19180435873E+03  0.11019736680E+02 -0.34670542876E+03  0.42486074656E+03  0.15294330000E+03 0.  0.
<mgrwt>
<rscale>  0 0.53067380E+03</rscale>
<asrwt>0</asrwt>
<pdfrwt beam="1">  1        2 0.74043017E-01 0.68609078E+03</pdfrwt>
<pdfrwt beam="2">  1       -2 0.19559620E+00 0.68609078E+03</pdfrwt>
<totfact> 0.93911447E+00</totfact>
</mgrwt>
</event>
<event>
 4    2  0.6914693E-007  0.9095630E+03  0.7818608E-02  0.9510851E-01
          2   -1    0    0  501    0  0.00000000000E+00  0.00000000000E+00  0.86681884503E+03  0.86681884504E+03  0.25500000000E-02 0. -1.
         -2   -1    0    0    0  501 -0.00000000000E+00 -0.00000000000E+00 -0.75957187426E+03  0.75957187426E+03  0.25500000000E-02 0.  1.
    8880023    1    1    2    0    0 -0.32894546059E+03 -0.53412500897E+03 -0.16722220100E+03  0.92480706746E+03  0.65864270000E+03 0. -1.
    8880022    1    1    2    0    0  0.32894546059E+03  0.53412500897E+03  0.27446917178E+03  0.70158365184E+03  0.15294330000E+03 0.  1.
<mgrwt>
<rscale>  0 0.83488525E+03</rscale>
<asrwt>0</asrwt>
<pdfrwt beam="1">  1        2 0.13335675E+00 0.90956300E+03</pdfrwt>
<pdfrwt beam="2">  1       -2 0.11685721E+00 0.90956300E+03</pdfrwt>
<totfact> 0.17523838E+01</totfact>
</mgrwt>
</event>
<event>
 4    2  0.9445461E-007  0.7993677E+03  0.7818608E-02  0.9712165E-01
          2   -1    0    0  501    0  0.00000000000E+00  0.00000000000E+00  0.16067660253E+04  0.16067660253E+04  0.25500000000E-02 0. -1.
         -2   -1    0    0    0  501 -0.00000000000E+00 -0.00000000000E+00 -0.14685943177E+04  0.14685943177E+04  0.25500000000E-02 0.  1.
    8880023    1    1    2    0    0 -0.13458928737E+03 -0.43250917752E+03 -0.13186919415E+04  0.15420561299E+04  0.65864270000E+03 0.  0.
    8880022    1    1    2    0    0  0.13458928737E+03  0.43250917752E+03  0.14568636491E+04  0.15333042131E+04  0.15294330000E+03 0.  0.
<mgrwt>
<rscale>  0 0.70297093E+03</rscale>
<asrwt>0</asrwt>
<pdfrwt beam="1">  1        2 0.24719477E+00 0.79936767E+03</pdfrwt>
<pdfrwt beam="2">  1       -2 0.22593759E+00 0.79936767E+03</pdfrwt>
<totfact> 0.10319561E+00</totfact>
</mgrwt>
</event>
<event>
 4    2  0.6914693E-007  0.7247505E+03  0.7818608E-02  0.9906828E-01
          2   -1    0    0  501    0  0.00000000000E+00  0.00000000000E+00  0.71078868425E+03  0.71078868426E+03  0.25500000000E-02 0. -1.
         -2   -1    0    0    0  501 -0.00000000000E+00 -0.00000000000E+00 -0.54923073674E+03  0.54923073675E+03  0.25500000000E-02 0.  1.
    8880023    1    1    2    0    0 -0.20134754372E+03  0.22563751405E+03 -0.21251615471E+03  0.75526580975E+03  0.65864270000E+03 0.  1.
    8880022    1    1    2    0    0  0.20134754372E+03 -0.22563751405E+03  0.37407410222E+03  0.50475361125E+03  0.15294330000E+03 0.  0.
<mgrwt>
<rscale>  0 0.59931522E+03</rscale>
<asrwt>0</asrwt>
<pdfrwt beam="1">  1        2 0.10935210E+00 0.72475053E+03</pdfrwt>
<pdfrwt beam="2">  1       -2 0.84497037E-01 0.72475053E+03</pdfrwt>
<totfact> 0.49811333E+01</totfact>
</mgrwt>
</event>
<event>
 4    2  0.6914693E-007  0.1356856E+04  0.7818608E-02  0.9017953E-01
          2   -1    0    0  501    0  0.00000000000E+00  0.00000000000E+00  0.20358671983E+04  0.20358671983E+04  0.25500000000E-02 0. -1.
         -2   -1    0    0    0  501 -0.00000000000E+00 -0.00000000000E+00 -0.98308227857E+03  0.98308227857E+03  0.25500000000E-02 0.  1.
    8880023    1    1    2    0    0 -0.73495936633E+03 -0.93117314159E+03 -0.96372403890E+02  0.13602744342E+04  0.65864270000E+03 0.  0.
    8880022    1    1    2    0    0  0.73495936633E+03  0.93117314159E+03  0.11491573236E+04  0.16586750427E+04  0.15294330000E+03 0.  0.
<mgrwt>
<rscale>  0 0.13147455E+04</rscale>
<asrwt>0</asrwt>
<pdfrwt beam="1">  1        2 0.31321034E+00 0.13568563E+04</pdfrwt>
<pdfrwt beam="2">  1       -2 0.15124343E+00 0.13568563E+04</pdfrwt>
<totfact> 0.17904894E+00</totfact>
</mgrwt>
</event>
<event>
 4    2  0.6914693E-007  0.1111366E+04  0.7818608E-02  0.9248506E-01
         -2   -1    0    0    0  501 -0.00000000000E+00  0.00000000000E+00  0.54582246869E+03  0.54582246870E+03  0.25500000000E-02 0.  1.
          2   -1    0    0  501    0  0.00000000000E+00 -0.00000000000E+00 -0.30765129322E+04  0.30765129322E+04  0.25500000000E-02 0. -1.
    8880023    1    1    2    0    0  0.53659895938E+03  0.71650876751E+03 -0.21100364197E+03  0.11312188119E+04  0.65864270000E+03 0.  0.
    8880022    1    1    2    0    0 -0.53659895938E+03 -0.71650876751E+03 -0.23196868215E+04  0.24911165890E+04  0.15294330000E+03 0.  0.
<mgrwt>
<rscale>  0 0.10566489E+04</rscale>
<asrwt>0</asrwt>
<pdfrwt beam="1">  1        2 0.47330967E+00 0.11113656E+04</pdfrwt>
<pdfrwt beam="2">  1       -2 0.83972689E-01 0.11113656E+04</pdfrwt>
<totfact> 0.19414098E+00</totfact>
</mgrwt>
</event>
<event>
 4    2  0.6914693E-007  0.1195487E+04  0.7818608E-02  0.9161522E-01
          2   -1    0    0  501    0  0.00000000000E+00  0.00000000000E+00  0.14902137414E+04  0.14902137414E+04  0.25500000000E-02 0. -1.
         -2   -1    0    0    0  501 -0.00000000000E+00 -0.00000000000E+00 -0.10657575469E+04  0.10657575469E+04  0.25500000000E-02 0.  1.
    8880023    1    1    2    0    0 -0.81208713140E+03  0.57956278061E+03 -0.39161519011E+03  0.12579949082E+04  0.65864270000E+03 0.  1.
    8880022    1    1    2    0    0  0.81208713140E+03 -0.57956278061E+03  0.81607138452E+03  0.12979763801E+04  0.15294330000E+03 0. -1.
<mgrwt>
<rscale>  0 0.11459565E+04</rscale>
<asrwt>0</asrwt>
<pdfrwt beam="1">  1        2 0.22926365E+00 0.11954868E+04</pdfrwt>
<pdfrwt beam="2">  1       -2 0.16396270E+00 0.11954868E+04</pdfrwt>
<totfact> 0.29425355E+00</totfact>
</mgrwt>
</event>
<event>
 4    2  0.6914693E-007  0.1021383E+04  0.7818608E-02  0.9354101E-01
         -2   -1    0    0    0  501 -0.00000000000E+00  0.00000000000E+00  0.79946941633E+03  0.79946941633E+03  0.25500000000E-02 0.  1.
          2   -1    0    0  501    0  0.00000000000E+00 -0.00000000000E+00 -0.21735619085E+04  0.21735619085E+04  0.25500000000E-02 0. -1.
    8880023    1    1    2    0    0  0.73515971976E+03  0.26259136210E+03  0.34559507323E+03  0.10782672201E+04  0.65864270000E+03 0.  0.
    8880022    1    1    2    0    0 -0.73515971976E+03 -0.26259136210E+03 -0.17196875654E+04  0.18947641047E+04  0.15294330000E+03 0.  0.
<mgrwt>
<rscale>  0 0.95951203E+03</rscale>
<asrwt>0</asrwt>
<pdfrwt beam="1">  1        2 0.33439414E+00 0.10213835E+04</pdfrwt>
<pdfrwt beam="2">  1       -2 0.12299530E+00 0.10213835E+04</pdfrwt>
<totfact> 0.26640850E+00</totfact>
</mgrwt>
</event>
<event>
 4    2  0.6914693E-007  0.9598723E+03  0.7818608E-02  0.9436050E-01
          2   -1    0    0  501    0  0.00000000000E+00  0.00000000000E+00  0.96289978980E+03  0.96289978980E+03  0.25500000000E-02 0. -1.
         -2   -1    0    0    0  501 -0.00000000000E+00 -0.00000000000E+00 -0.10002206156E+04  0.10002206156E+04  0.25500000000E-02 0.  1.
    8880023    1    1    2    0    0 -0.52365869939E+03 -0.46187250923E+03 -0.52857635171E+03  0.10957863907E+04  0.65864270000E+03 0.  0.
    8880022    1    1    2    0    0  0.52365869939E+03  0.46187250923E+03  0.49125552593E+03  0.86733401467E+03  0.15294330000E+03 0.  0.
<mgrwt>
<rscale>  0 0.89167367E+03</rscale>
<asrwt>0</asrwt>
<pdfrwt beam="1">  1        2 0.14813843E+00 0.95987231E+03</pdfrwt>
<pdfrwt beam="2">  1       -2 0.15388009E+00 0.95987231E+03</pdfrwt>
<totfact> 0.74158752E+00</totfact>
</mgrwt>
</event>
<event>
 4    2  0.6914693E-007  0.9535554E+03  0.7818608E-02  0.9445017E-01
         -2   -1    0    0    0  501 -0.00000000000E+00  0.00000000000E+00  0.54922914564E+03  0.54922914564E+03  0.25500000000E-02 0.  1.
          2   -1    0    0  501    0  0.00000000000E+00 -0.00000000000E+00 -0.24168307504E+04  0.24168307504E+04  0.25500000000E-02 0. -1.
    8880023    1    1    2    0    0 -0.64210291105E+03 -0.25131971580E+03  0.16737444575E+02  0.95370231008E+03  0.65864270000E+03 0.  0.
    8880022    1    1    2    0    0  0.64210291105E+03  0.25131971580E+03 -0.18843390493E+04  0.20123575860E+04  0.15294330000E+03 0.  0.
<mgrwt>
<rscale>  0 0.88461773E+03</rscale>
<asrwt>0</asrwt>
<pdfrwt beam="1">  1        2 0.37182011E+00 0.95355543E+03</pdfrwt>
<pdfrwt beam="2">  1       -2 0.84496793E-01 0.95355543E+03</pdfrwt>
<totfact> 0.48181789E+00</totfact>
</mgrwt>
</event>
<event>
 4    2  0.6914693E-007  0.8098078E+03  0.7818608E-02  0.9689977E-01
         -2   -1    0    0    0  501 -0.00000000000E+00  0.00000000000E+00  0.45677342116E+03  0.45677342116E+03  0.25500000000E-02 0.  1.
          2   -1    0    0  501    0  0.00000000000E+00 -0.00000000000E+00 -0.18355409438E+04  0.18355409438E+04  0.25500000000E-02 0. -1.
    8880023    1    1    2    0    0  0.34839828763E+03 -0.31717048690E+03  0.18315701135E+02  0.81001491082E+03  0.65864270000E+03 0.  1.
    8880022    1    1    2    0    0 -0.34839828763E+03  0.31717048690E+03 -0.13970832238E+04  0.14822994542E+04  0.15294330000E+03 0.  0.
<mgrwt>
<rscale>  0 0.71616680E+03</rscale>
<asrwt>0</asrwt>
<pdfrwt beam="1">  1        2 0.28239091E+00 0.80980781E+03</pdfrwt>
<pdfrwt beam="2">  1       -2 0.70272835E-01 0.80980781E+03</pdfrwt>
<totfact> 0.15545318E+01</totfact>
</mgrwt>
</event>
<event>
 4    2  0.6914693E-007  0.1110658E+04  0.7818608E-02  0.9249281E-01
          2   -1    0    0  501    0  0.00000000000E+00  0.00000000000E+00  0.14580531719E+04  0.14580531719E+04  0.25500000000E-02 0. -1.
         -2   -1    0    0    0  501 -0.00000000000E+00 -0.00000000000E+00 -0.78170753249E+03  0.78170753250E+03  0.25500000000E-02 0.  1.
    8880023    1    1    2    0    0  0.41623812106E+03  0.79151581794E+03  0.42511941795E+01  0.11106663506E+04  0.65864270000E+03 0.  0.
    8880022    1    1    2    0    0 -0.41623812106E+03 -0.79151581794E+03  0.67209444525E+03  0.11290943538E+04  0.15294330000E+03 0.  0.
<mgrwt>
<rscale>  0 0.10558926E+04</rscale>
<asrwt>0</asrwt>
<pdfrwt beam="1">  1        2 0.22431587E+00 0.11106582E+04</pdfrwt>
<pdfrwt beam="2">  1       -2 0.12026270E+00 0.11106582E+04</pdfrwt>
<totfact> 0.69600082E+00</totfact>
</mgrwt>
</event>
<event>
 4    2  0.6914693E-007  0.1074936E+04  0.7818608E-02  0.9289489E-01
         -2   -1    0    0    0  501 -0.00000000000E+00  0.00000000000E+00  0.99394395955E+03  0.99394395956E+03  0.25500000000E-02 0.  1.
          2   -1    0    0  501    0  0.00000000000E+00 -0.00000000000E+00 -0.25233727906E+04  0.25233727906E+04  0.25500000000E-02 0. -1.
    8880023    1    1    2    0    0  0.56102720337E+03  0.63790702669E+03  0.59188130612E+03  0.12271147397E+04  0.65864270000E+03 0.  1.
    8880022    1    1    2    0    0 -0.56102720337E+03 -0.63790702669E+03 -0.21213101372E+04  0.22902020105E+04  0.15294330000E+03 0.  0.
<mgrwt>
<rscale>  0 0.10175633E+04</rscale>
<asrwt>0</asrwt>
<pdfrwt beam="1">  1        2 0.38821120E+00 0.10749359E+04</pdfrwt>
<pdfrwt beam="2">  1       -2 0.15291446E+00 0.10749359E+04</pdfrwt>
<totfact> 0.95540921E-01</totfact>
</mgrwt>
</event>
<event>
 4    2  0.6914693E-007  0.6827498E+03  0.7818608E-02  0.1007809E+00
          2   -1    0    0  501    0  0.00000000000E+00  0.00000000000E+00  0.57601264845E+03  0.57601264846E+03  0.25500000000E-02 0. -1.
         -2   -1    0    0    0  501 -0.00000000000E+00 -0.00000000000E+00 -0.42871557504E+03  0.42871557505E+03  0.25500000000E-02 0.  1.
    8880023    1    1    2    0    0  0.17147992297E+03  0.54144901344E+02  0.27532920424E+03  0.73617485104E+03  0.65864270000E+03 0. -1.
    8880022    1    1    2    0    0 -0.17147992297E+03 -0.54144901344E+02 -0.12803213083E+03  0.26855337247E+03  0.15294330000E+03 0.  0.
<mgrwt>
<rscale>  0 0.52354742E+03</rscale>
<asrwt>0</asrwt>
<pdfrwt beam="1">  1        2 0.88617330E-01 0.68274976E+03</pdfrwt>
<pdfrwt beam="2">  1       -2 0.65956242E-01 0.68274976E+03</pdfrwt>
<totfact> 0.11186591E+02</totfact>
</mgrwt>
</event>
<event>
 4    2  0.6914693E-007  0.7434662E+03  0.7818608E-02  0.9849963E-01
         -2   -1    0    0    0  501 -0.00000000000E+00  0.00000000000E+00  0.52671319900E+03  0.52671319901E+03  0.25500000000E-02 0.  1.
          2   -1    0    0  501    0  0.00000000000E+00 -0.00000000000E+00 -0.90881778026E+03  0.90881778026E+03  0.25500000000E-02 0. -1.
    8880023    1    1    2    0    0 -0.34481878239E+03 -0.56433072909E+01  0.17398190106E+03  0.76355205963E+03  0.65864270000E+03 0.  1.
    8880022    1    1    2    0    0  0.34481878239E+03  0.56433072909E+01 -0.55608648232E+03  0.67197891964E+03  0.15294330000E+03 0.  0.
<mgrwt>
<rscale>  0 0.62748813E+03</rscale>
<asrwt>0</asrwt>
<pdfrwt beam="1">  1        2 0.13981812E+00 0.74346624E+03</pdfrwt>
<pdfrwt beam="2">  1       -2 0.81032800E-01 0.74346624E+03</pdfrwt>
<totfact> 0.39440090E+01</totfact>
</mgrwt>
</event>
<event>
 4    2  0.6914693E-007  0.6705783E+03  0.7818608E-02  0.1015252E+00
          2   -1    0    0  501    0  0.00000000000E+00  0.00000000000E+00  0.15086427299E+04  0.15086427299E+04  0.25500000000E-02 0. -1.
         -2   -1    0    0    0  501 -0.00000000000E+00 -0.00000000000E+00 -0.47591209315E+03  0.47591209315E+03  0.25500000000E-02 0.  1.
    8880023    1    1    2    0    0  0.71587933736E+02  0.10363501142E+03 -0.22805423859E+03  0.70829654090E+03  0.65864270000E+03 0.  1.
    8880022    1    1    2    0    0 -0.71587933736E+02 -0.10363501142E+03  0.12607848753E+04  0.12762582821E+04  0.15294330000E+03 0.  0.
<mgrwt>
<rscale>  0 0.49439759E+03</rscale>
<asrwt>0</asrwt>
<pdfrwt beam="1">  1        2 0.23209887E+00 0.67057830E+03</pdfrwt>
<pdfrwt beam="2">  1       -2 0.73217247E-01 0.67057830E+03</pdfrwt>
<totfact> 0.21868660E+01</totfact>
</mgrwt>
</event>
<event>
 4    2  0.6914693E-007  0.1002033E+04  0.7818608E-02  0.9378903E-01
          2   -1    0    0  501    0  0.00000000000E+00  0.00000000000E+00  0.80610477677E+03  0.80610477678E+03  0.25500000000E-02 0. -1.
         -2   -1    0    0    0  501 -0.00000000000E+00 -0.00000000000E+00 -0.11275091071E+04  0.11275091071E+04  0.25500000000E-02 0.  1.
    8880023    1    1    2    0    0 -0.70783457698E+03  0.26311523932E+03 -0.53249433590E+03  0.11347333791E+04  0.65864270000E+03 0.  1.
    8880022    1    1    2    0    0  0.70783457698E+03 -0.26311523932E+03  0.21109000556E+03  0.79888050483E+03  0.15294330000E+03 0.  0.
<mgrwt>
<rscale>  0 0.93832404E+03</rscale>
<asrwt>0</asrwt>
<pdfrwt beam="1">  1        2 0.12401612E+00 0.10020327E+04</pdfrwt>
<pdfrwt beam="2">  1       -2 0.17346294E+00 0.10020327E+04</pdfrwt>
<totfact> 0.68114770E+00</totfact>
</mgrwt>
</event>
<event>
 4    2  0.6914693E-007  0.9683283E+03  0.7818608E-02  0.9424220E-01
         -2   -1    0    0    0  501 -0.00000000000E+00  0.00000000000E+00  0.60989481499E+03  0.60989481499E+03  0.25500000000E-02 0.  1.
          2   -1    0    0  501    0  0.00000000000E+00 -0.00000000000E+00 -0.12883538762E+04  0.12883538762E+04  0.25500000000E-02 0. -1.
    8880023    1    1    2    0    0  0.70373176655E+03 -0.92795932837E+02 -0.10698026118E+03  0.97421992740E+03  0.65864270000E+03 0.  0.
    8880022    1    1    2    0    0 -0.70373176655E+03  0.92795932837E+02 -0.57147879999E+03  0.92402876376E+03  0.15294330000E+03 0.  0.
<mgrwt>
<rscale>  0 0.90108991E+03</rscale>
<asrwt>0</asrwt>
<pdfrwt beam="1">  1        2 0.19820829E+00 0.96832830E+03</pdfrwt>
<pdfrwt beam="2">  1       -2 0.93829972E-01 0.96832830E+03</pdfrwt>
<totfact> 0.16074001E+01</totfact>
</mgrwt>
</event>
<event>
 4    2  0.6914693E-007  0.1430031E+04  0.7818608E-02  0.8960692E-01
          2   -1    0    0  501    0  0.00000000000E+00  0.00000000000E+00  0.28899561688E+04  0.28899561688E+04  0.25500000000E-02 0. -1.
         -2   -1    0    0    0  501 -0.00000000000E+00 -0.00000000000E+00 -0.87953015900E+03  0.87953015900E+03  0.25500000000E-02 0.  1.
    8880023    1    1    2    0    0  0.92331844098E+03 -0.87101182111E+03  0.52366470695E+02  0.14309895141E+04  0.65864270000E+03 0.  1.
    8880022    1    1    2    0    0 -0.92331844098E+03  0.87101182111E+03  0.19580595392E+04  0.23384968137E+04  0.15294330000E+03 0. -1.
<mgrwt>
<rscale>  0 0.13905434E+04</rscale>
<asrwt>0</asrwt>
<pdfrwt beam="1">  1        2 0.44460865E+00 0.14300310E+04</pdfrwt>
<pdfrwt beam="2">  1       -2 0.13531233E+00 0.14300310E+04</pdfrwt>
<totfact> 0.76453579E-01</totfact>
</mgrwt>
</event>
<event>
 4    2  0.6914693E-007  0.7524328E+03  0.7818608E-02  0.9825107E-01
         -2   -1    0    0    0  501 -0.00000000000E+00  0.00000000000E+00  0.29118661803E+03  0.29118661804E+03  0.25500000000E-02 0.  1.
          2   -1    0    0  501    0  0.00000000000E+00 -0.00000000000E+00 -0.14344218826E+04  0.14344218826E+04  0.25500000000E-02 0. -1.
    8880023    1    1    2    0    0  0.10397385725E+03 -0.34861774223E+03 -0.32987582039E+03  0.82156749956E+03  0.65864270000E+03 0.  1.
    8880022    1    1    2    0    0 -0.10397385725E+03  0.34861774223E+03 -0.81335944413E+03  0.90404100104E+03  0.15294330000E+03 0.  0.
<mgrwt>
<rscale>  0 0.64032374E+03</rscale>
<asrwt>0</asrwt>
<pdfrwt beam="1">  1        2 0.22068029E+00 0.75243279E+03</pdfrwt>
<pdfrwt beam="2">  1       -2 0.44797942E-01 0.75243279E+03</pdfrwt>
<totfact> 0.66618321E+01</totfact>
</mgrwt>
</event>
<event>
 4    2  0.6914693E-007  0.8509164E+03  0.7818608E-02  0.9609930E-01
         -2   -1    0    0    0  501 -0.00000000000E+00  0.00000000000E+00  0.51325851739E+03  0.51325851739E+03  0.25500000000E-02 0.  1.
          2   -1    0    0  501    0  0.00000000000E+00 -0.00000000000E+00 -0.22051408849E+04  0.22051408849E+04  0.25500000000E-02 0. -1.
    8880023    1    1    2    0    0 -0.22825163451E+03  0.48800581752E+03  0.85189188063E+02  0.85517009455E+03  0.65864270000E+03 0.  1.
    8880022    1    1    2    0    0  0.22825163451E+03 -0.48800581752E+03 -0.17770715556E+04  0.18632293078E+04  0.15294330000E+03 0.  0.
<mgrwt>
<rscale>  0 0.76642404E+03</rscale>
<asrwt>0</asrwt>
<pdfrwt beam="1">  1        2 0.33925244E+00 0.85091638E+03</pdfrwt>
<pdfrwt beam="2">  1       -2 0.78962850E-01 0.85091638E+03</pdfrwt>
<totfact> 0.74842615E+00</totfact>
</mgrwt>
</event>
<event>
 4    2  0.6914693E-007  0.7402912E+03  0.7818608E-02  0.9859100E-01
         -2   -1    0    0    0  501 -0.00000000000E+00  0.00000000000E+00  0.28545366595E+03  0.28545366596E+03  0.25500000000E-02 0.  1.
          2   -1    0    0  501    0  0.00000000000E+00 -0.00000000000E+00 -0.37458733678E+04  0.37458733678E+04  0.25500000000E-02 0. -1.
    8880023    1    1    2    0    0 -0.17761807644E+03  0.28752860115E+03 -0.22360485138E+03  0.77332413216E+03  0.65864270000E+03 0.  0.
    8880022    1    1    2    0    0  0.17761807644E+03 -0.28752860115E+03 -0.32368148504E+04  0.32580029016E+04  0.15294330000E+03 0. -1.
<mgrwt>
<rscale>  0 0.62285104E+03</rscale>
<asrwt>0</asrwt>
<pdfrwt beam="1">  1        2 0.57628817E+00 0.74029122E+03</pdfrwt>
<pdfrwt beam="2">  1       -2 0.43915951E-01 0.74029122E+03</pdfrwt>
<totfact> 0.29153050E+00</totfact>
</mgrwt>
</event>
<event>
 4    2  0.6914693E-007  0.7543832E+03  0.7818608E-02  0.9819872E-01
         -2   -1    0    0    0  501 -0.00000000000E+00  0.00000000000E+00  0.14015019221E+04  0.14015019221E+04  0.25500000000E-02 0.  1.
          2   -1    0    0  501    0  0.00000000000E+00 -0.00000000000E+00 -0.33916128138E+03  0.33916128139E+03  0.25500000000E-02 0. -1.
    8880023    1    1    2    0    0  0.19653376772E+03  0.31089907351E+03  0.11072358173E+04  0.13398004020E+04  0.65864270000E+03 0.  0.
    8880022    1    1    2    0    0 -0.19653376772E+03 -0.31089907351E+03 -0.44895176567E+02  0.40086280154E+03  0.15294330000E+03 0.  0.
<mgrwt>
<rscale>  0 0.64306918E+03</rscale>
<asrwt>0</asrwt>
<pdfrwt beam="1">  1        2 0.52178659E-01 0.75438317E+03</pdfrwt>
<pdfrwt beam="2">  1       -2 0.21561568E+00 0.75438317E+03</pdfrwt>
<totfact> 0.10292037E+01</totfact>
</mgrwt>
</event>
<event>
 4    2  0.6914693E-007  0.7263542E+03  0.7818608E-02  0.9901644E-01
         -2   -1    0    0    0  501 -0.00000000000E+00  0.00000000000E+00  0.78530041363E+03  0.78530041363E+03  0.25500000000E-02 0.  1.
          2   -1    0    0  501    0  0.00000000000E+00 -0.00000000000E+00 -0.12892486899E+04  0.12892486899E+04  0.25500000000E-02 0. -1.
    8880023    1    1    2    0    0 -0.15926081408E+03 -0.26156483638E+03  0.58527103976E+03  0.93280896586E+03  0.65864270000E+03 0.  0.
    8880022    1    1    2    0    0  0.15926081408E+03  0.26156483638E+03 -0.10892193160E+04  0.11417401376E+04  0.15294330000E+03 0.  0.
<mgrwt>
<rscale>  0 0.60181668E+03</rscale>
<asrwt>0</asrwt>
<pdfrwt beam="1">  1        2 0.19834595E+00 0.72635417E+03</pdfrwt>
<pdfrwt beam="2">  1       -2 0.12081545E+00 0.72635417E+03</pdfrwt>
<totfact> 0.89716114E+00</totfact>
</mgrwt>
</event>
<event>
 4    2  0.6914693E-007  0.8793093E+03  0.7818608E-02  0.9560098E-01
          2   -1    0    0  501    0  0.00000000000E+00  0.00000000000E+00  0.14541979301E+04  0.14541979301E+04  0.25500000000E-02 0. -1.
         -2   -1    0    0    0  501 -0.00000000000E+00 -0.00000000000E+00 -0.70177622010E+03  0.70177622010E+03  0.25500000000E-02 0.  1.
    8880023    1    1    2    0    0 -0.44228336783E+03 -0.37915694200E+03 -0.31195040067E+03  0.93300472821E+03  0.65864270000E+03 0.  1.
    8880022    1    1    2    0    0  0.44228336783E+03  0.37915694200E+03  0.10643721107E+04  0.12229694220E+04  0.15294330000E+03 0.  0.
<mgrwt>
<rscale>  0 0.79994401E+03</rscale>
<asrwt>0</asrwt>
<pdfrwt beam="1">  1        2 0.22372276E+00 0.87930926E+03</pdfrwt>
<pdfrwt beam="2">  1       -2 0.10796557E+00 0.87930926E+03</pdfrwt>
<totfact> 0.93327696E+00</totfact>
</mgrwt>
</event>
<event>
 4    2  0.6914693E-007  0.9918041E+03  0.7818608E-02  0.9392360E-01
         -2   -1    0    0    0  501 -0.00000000000E+00  0.00000000000E+00  0.99442878664E+03  0.99442878665E+03  0.25500000000E-02 0.  1.
          2   -1    0    0  501    0  0.00000000000E+00 -0.00000000000E+00 -0.11799262350E+04  0.11799262350E+04  0.25500000000E-02 0. -1.
    8880023    1    1    2    0    0 -0.44305831465E+03 -0.59461291214E+03  0.53696498070E+03  0.11278327811E+04  0.65864270000E+03 0.  0.
    8880022    1    1    2    0    0  0.44305831465E+03  0.59461291214E+03 -0.72246242907E+03  0.10465222405E+04  0.15294330000E+03 0.  0.
<mgrwt>
<rscale>  0 0.92707119E+03</rscale>
<asrwt>0</asrwt>
<pdfrwt beam="1">  1        2 0.18152711E+00 0.99180411E+03</pdfrwt>
<pdfrwt beam="2">  1       -2 0.15298904E+00 0.99180411E+03</pdfrwt>
<totfact> 0.54925327E+00</totfact>
</mgrwt>
</event>
<event>
 4    2  0.6914693E-007  0.9376055E+03  0.7818608E-02  0.9468176E-01
         -2   -1    0    0    0  501 -0.00000000000E+00  0.00000000000E+00  0.69955759611E+03  0.69955759612E+03  0.25500000000E-02 0.  1.
          2   -1    0    0  501    0  0.00000000000E+00 -0.00000000000E+00 -0.21619919809E+04  0.21619919809E+04  0.25500000000E-02 0. -1.
    8880023    1    1    2    0    0  0.64252318311E+03 -0.18016030894E+03  0.28894640055E+03  0.98111875245E+03  0.65864270000E+03 0.  0.
    8880022    1    1    2    0    0 -0.64252318311E+03  0.18016030894E+03 -0.17513807853E+04  0.18804308246E+04  0.15294330000E+03 0.  0.
<mgrwt>
<rscale>  0 0.86671293E+03</rscale>
<asrwt>0</asrwt>
<pdfrwt beam="1">  1        2 0.33261415E+00 0.93760545E+03</pdfrwt>
<pdfrwt beam="2">  1       -2 0.10762425E+00 0.93760545E+03</pdfrwt>
<totfact> 0.37970692E+00</totfact>
</mgrwt>
</event>
<event>
 4    2  0.6914693E-007  0.8321689E+03  0.7818608E-02  0.9645127E-01
          2   -1    0    0  501    0  0.00000000000E+00  0.00000000000E+00  0.19496037285E+04  0.19496037285E+04  0.25500000000E-02 0. -1.
         -2   -1    0    0    0  501 -0.00000000000E+00 -0.00000000000E+00 -0.45914589591E+03  0.45914589592E+03  0.25500000000E-02 0.  1.
    8880023    1    1    2    0    0 -0.26992798679E+03 -0.43108435253E+03  0.60552957472E+01  0.83219090954E+03  0.65864270000E+03 0.  1.
    8880022    1    1    2    0    0  0.26992798679E+03  0.43108435253E+03  0.14844025369E+04  0.15765587149E+04  0.15294330000E+03 0.  0.
<mgrwt>
<rscale>  0 0.74380037E+03</rscale>
<asrwt>0</asrwt>
<pdfrwt beam="1">  1        2 0.29993904E+00 0.83216888E+03</pdfrwt>
<pdfrwt beam="2">  1       -2 0.70637828E-01 0.83216888E+03</pdfrwt>
<totfact> 0.13276202E+01</totfact>
</mgrwt>
</event>
<event>
 4    2  0.6914693E-007  0.8937711E+03  0.7818608E-02  0.9536106E-01
         -2   -1    0    0    0  501 -0.00000000000E+00  0.00000000000E+00  0.39904833137E+03  0.39904833138E+03  0.25500000000E-02 0.  1.
          2   -1    0    0  501    0  0.00000000000E+00 -0.00000000000E+00 -0.15499033834E+04  0.15499033834E+04  0.25500000000E-02 0. -1.
    8880023    1    1    2    0    0  0.60350599001E+03 -0.28233349441E+02 -0.92449754649E+03  0.12858936666E+04  0.65864270000E+03 0. -1.
    8880022    1    1    2    0    0 -0.60350599001E+03  0.28233349441E+02 -0.22635750559E+03  0.66305804825E+03  0.15294330000E+03 0.  1.
<mgrwt>
<rscale>  0 0.81673430E+03</rscale>
<asrwt>0</asrwt>
<pdfrwt beam="1">  1        2 0.23844667E+00 0.89377112E+03</pdfrwt>
<pdfrwt beam="2">  1       -2 0.61392052E-01 0.89377112E+03</pdfrwt>
<totfact> 0.29602914E+01</totfact>
</mgrwt>
</event>
<event>
 4    2  0.6914693E-007  0.7344218E+03  0.7818608E-02  0.9876504E-01
         -2   -1    0    0    0  501 -0.00000000000E+00  0.00000000000E+00  0.44330525739E+03  0.44330525740E+03  0.25500000000E-02 0.  1.
          2   -1    0    0  501    0  0.00000000000E+00 -0.00000000000E+00 -0.13643548286E+04  0.13643548286E+04  0.25500000000E-02 0. -1.
    8880023    1    1    2    0    0  0.23161004536E+03 -0.22786384871E+03  0.85110233841E+02  0.73933693593E+03  0.65864270000E+03 0.  0.
    8880022    1    1    2    0    0 -0.23161004536E+03  0.22786384871E+03 -0.10061598051E+04  0.10683231501E+04  0.15294330000E+03 0.  0.
<mgrwt>
<rscale>  0 0.61413619E+03</rscale>
<asrwt>0</asrwt>
<pdfrwt beam="1">  1        2 0.20990074E+00 0.73442178E+03</pdfrwt>
<pdfrwt beam="2">  1       -2 0.68200810E-01 0.73442178E+03</pdfrwt>
<totfact> 0.30527403E+01</totfact>
</mgrwt>
</event>
<event>
 4    2  0.6914693E-007  0.9264962E+03  0.7818608E-02  0.9484769E-01
          2   -1    0    0  501    0  0.00000000000E+00  0.00000000000E+00  0.18463546284E+04  0.18463546284E+04  0.25500000000E-02 0. -1.
         -2   -1    0    0    0  501 -0.00000000000E+00 -0.00000000000E+00 -0.84337444331E+03  0.84337444331E+03  0.25500000000E-02 0.  1.
    8880023    1    1    2    0    0  0.61185753105E+03 -0.22408766882E+03 -0.49397635744E+03  0.10499560798E+04  0.65864270000E+03 0.  1.
    8880022    1    1    2    0    0 -0.61185753105E+03  0.22408766882E+03  0.14969565425E+04  0.16397729918E+04  0.15294330000E+03 0.  0.
<mgrwt>
<rscale>  0 0.85416079E+03</rscale>
<asrwt>0</asrwt>
<pdfrwt beam="1">  1        2 0.28405456E+00 0.92649616E+03</pdfrwt>
<pdfrwt beam="2">  1       -2 0.12974992E+00 0.92649616E+03</pdfrwt>
<totfact> 0.35708088E+00</totfact>
</mgrwt>
</event>
<event>
 4    2  0.6914693E-007  0.6607069E+03  0.7818608E-02  0.1023444E+00
          2   -1    0    0  501    0  0.00000000000E+00  0.00000000000E+00  0.30852653000E+04  0.30852653000E+04  0.25500000000E-02 0. -1.
         -2   -1    0    0    0  501 -0.00000000000E+00 -0.00000000000E+00 -0.14455603340E+03  0.14455603342E+03  0.25500000000E-02 0.  1.
    8880023    1    1    2    0    0 -0.55553279352E+00  0.52182634370E+02  0.62823923078E+03  0.91171161740E+03  0.65864270000E+03 0.  1.
    8880022    1    1    2    0    0  0.55553279352E+00 -0.52182634370E+02  0.23124700358E+04  0.23181097160E+04  0.15294330000E+03 0.  0.
<mgrwt>
<rscale>  0 0.46464133E+03</rscale>
<asrwt>0</asrwt>
<pdfrwt beam="1">  1        2 0.47465620E+00 0.66070685E+03</pdfrwt>
<pdfrwt beam="2">  1       -2 0.22239390E-01 0.66070685E+03</pdfrwt>
<totfact> 0.29280669E+01</totfact>
</mgrwt>
</event>
<event>
 4    2  0.6914693E-007  0.7748393E+03  0.7818608E-02  0.9768102E-01
          2   -1    0    0  501    0  0.00000000000E+00  0.00000000000E+00  0.52029547365E+03  0.52029547365E+03  0.25500000000E-02 0. -1.
         -2   -1    0    0    0  501 -0.00000000000E+00 -0.00000000000E+00 -0.96303278551E+03  0.96303278552E+03  0.25500000000E-02 0.  1.
    8880023    1    1    2    0    0 -0.11275263390E+03  0.39224042071E+03 -0.63995154466E+03  0.10049447198E+04  0.65864270000E+03 0.  1.
    8880022    1    1    2    0    0  0.11275263390E+03 -0.39224042071E+03  0.19721423280E+03  0.47838353936E+03  0.15294330000E+03 0.  0.
<mgrwt>
<rscale>  0 0.67102815E+03</rscale>
<asrwt>0</asrwt>
<pdfrwt beam="1">  1        2 0.80045458E-01 0.77483928E+03</pdfrwt>
<pdfrwt beam="2">  1       -2 0.14815889E+00 0.77483928E+03</pdfrwt>
<totfact> 0.18406266E+01</totfact>
</mgrwt>
</event>
<event>
 4    2  0.6914693E-007  0.8300530E+03  0.7818608E-02  0.9649229E-01
          2   -1    0    0  501    0  0.00000000000E+00  0.00000000000E+00  0.23761069795E+04  0.23761069795E+04  0.25500000000E-02 0. -1.
         -2   -1    0    0    0  501 -0.00000000000E+00 -0.00000000000E+00 -0.28304555307E+03  0.28304555309E+03  0.25500000000E-02 0.  1.
    8880023    1    1    2    0    0 -0.49031278615E+03  0.12153690327E+03  0.47317211827E+03  0.95544749039E+03  0.65864270000E+03 0.  1.
    8880022    1    1    2    0    0  0.49031278615E+03 -0.12153690327E+03  0.16198893081E+04  0.17037050422E+04  0.15294330000E+03 0. -1.
<mgrwt>
<rscale>  0 0.74121821E+03</rscale>
<asrwt>0</asrwt>
<pdfrwt beam="1">  1        2 0.36555492E+00 0.83005304E+03</pdfrwt>
<pdfrwt beam="2">  1       -2 0.43545470E-01 0.83005304E+03</pdfrwt>
<totfact> 0.21148035E+01</totfact>
</mgrwt>
</event>
<event>
 4    2  0.6914693E-007  0.8785153E+03  0.7818608E-02  0.9561441E-01
         -2   -1    0    0    0  501 -0.00000000000E+00  0.00000000000E+00  0.35482025193E+03  0.35482025194E+03  0.25500000000E-02 0.  1.
          2   -1    0    0  501    0  0.00000000000E+00 -0.00000000000E+00 -0.22264611160E+04  0.22264611160E+04  0.25500000000E-02 0. -1.
    8880023    1    1    2    0    0  0.20645527148E+03  0.54346593373E+03 -0.35083722643E+03  0.94597884012E+03  0.65864270000E+03 0.  0.
    8880022    1    1    2    0    0 -0.20645527148E+03 -0.54346593373E+03 -0.15208036377E+04  0.16353025279E+04  0.15294330000E+03 0.  0.
<mgrwt>
<rscale>  0 0.79901719E+03</rscale>
<asrwt>0</asrwt>
<pdfrwt beam="1">  1        2 0.34253247E+00 0.87851534E+03</pdfrwt>
<pdfrwt beam="2">  1       -2 0.54587732E-01 0.87851534E+03</pdfrwt>
<totfact> 0.16098899E+01</totfact>
</mgrwt>
</event>
<event>
 4    2  0.6914693E-007  0.7360972E+03  0.7818608E-02  0.9871465E-01
         -2   -1    0    0    0  501 -0.00000000000E+00  0.00000000000E+00  0.42155422536E+03  0.42155422537E+03  0.25500000000E-02 0.  1.
          2   -1    0    0  501    0  0.00000000000E+00 -0.00000000000E+00 -0.13378110056E+04  0.13378110056E+04  0.25500000000E-02 0. -1.
    8880023    1    1    2    0    0  0.31674999955E+03  0.87739847789E+02  0.39509763944E+02  0.73715674779E+03  0.65864270000E+03 0.  0.
    8880022    1    1    2    0    0 -0.31674999955E+03 -0.87739847789E+02 -0.95576654422E+03  0.10222084832E+04  0.15294330000E+03 0.  0.
<mgrwt>
<rscale>  0 0.61664363E+03</rscale>
<asrwt>0</asrwt>
<pdfrwt beam="1">  1        2 0.20581708E+00 0.73609717E+03</pdfrwt>
<pdfrwt beam="2">  1       -2 0.64854497E-01 0.73609717E+03</pdfrwt>
<totfact> 0.35228871E+01</totfact>
</mgrwt>
</event>
<event>
 4    2  0.6914693E-007  0.6840913E+03  0.7818608E-02  0.1007098E+00
          2   -1    0    0  501    0  0.00000000000E+00  0.00000000000E+00  0.10381983995E+04  0.10381983995E+04  0.25500000000E-02 0. -1.
         -2   -1    0    0    0  501 -0.00000000000E+00 -0.00000000000E+00 -0.43210552214E+03  0.43210552215E+03  0.25500000000E-02 0.  1.
    8880023    1    1    2    0    0 -0.86885102208E+02  0.16316136923E+03 -0.12979248006E+03  0.69629515835E+03  0.65864270000E+03 0.  1.
    8880022    1    1    2    0    0  0.86885102208E+02 -0.16316136923E+03  0.73588535745E+03  0.77400876334E+03  0.15294330000E+03 0.  0.
<mgrwt>
<rscale>  0 0.52644476E+03</rscale>
<asrwt>0</asrwt>
<pdfrwt beam="1">  1        2 0.15972283E+00 0.68409127E+03</pdfrwt>
<pdfrwt beam="2">  1       -2 0.66477773E-01 0.68409127E+03</pdfrwt>
<totfact> 0.50619446E+01</totfact>
</mgrwt>
</event>
<event>
 4    2  0.6914693E-007  0.1040945E+04  0.7818608E-02  0.9329847E-01
         -2   -1    0    0    0  501 -0.00000000000E+00  0.00000000000E+00  0.50989480339E+03  0.50989480340E+03  0.25500000000E-02 0.  1.
          2   -1    0    0  501    0  0.00000000000E+00 -0.00000000000E+00 -0.20138253899E+04  0.20138253899E+04  0.25500000000E-02 0. -1.
    8880023    1    1    2    0    0 -0.77628798354E+03  0.21710015835E+03 -0.13232350781E+04  0.16836023254E+04  0.65864270000E+03 0.  0.
    8880022    1    1    2    0    0  0.77628798354E+03 -0.21710015835E+03 -0.18069550847E+03  0.84011786789E+03  0.15294330000E+03 0.  0.
<mgrwt>
<rscale>  0 0.98080907E+03</rscale>
<asrwt>0</asrwt>
<pdfrwt beam="1">  1        2 0.30981929E+00 0.10409446E+04</pdfrwt>
<pdfrwt beam="2">  1       -2 0.78445355E-01 0.10409446E+04</pdfrwt>
<totfact> 0.94622879E+00</totfact>
</mgrwt>
</event>
<event>
 4    2  0.6914693E-007  0.6888703E+03  0.7818608E-02  0.1004694E+00
          2   -1    0    0  501    0  0.00000000000E+00  0.00000000000E+00  0.15191657115E+04  0.15191657115E+04  0.25500000000E-02 0. -1.
         -2   -1    0    0    0  501 -0.00000000000E+00 -0.00000000000E+00 -0.16333618574E+03  0.16333618576E+03  0.25500000000E-02 0.  1.
    8880023    1    1    2    0    0  0.14151041869E+03  0.14389905102E+03  0.71217151322E+03  0.99082319613E+03  0.65864270000E+03 0.  0.
    8880022    1    1    2    0    0 -0.14151041869E+03 -0.14389905102E+03  0.64365801258E+03  0.69167870118E+03  0.15294330000E+03 0.  1.
<mgrwt>
<rscale>  0 0.53638980E+03</rscale>
<asrwt>0</asrwt>
<pdfrwt beam="1">  1        2 0.23371780E+00 0.68887034E+03</pdfrwt>
<pdfrwt beam="2">  1       -2 0.25128644E-01 0.68887034E+03</pdfrwt>
<totfact> 0.17945103E+02</totfact>
</mgrwt>
</event>
<event>
 4    2  0.6914693E-007  0.7596062E+03  0.7818608E-02  0.9806128E-01
          2   -1    0    0  501    0  0.00000000000E+00  0.00000000000E+00  0.58863040652E+03  0.58863040652E+03  0.25500000000E-02 0. -1.
         -2   -1    0    0    0  501 -0.00000000000E+00 -0.00000000000E+00 -0.11396576696E+04  0.11396576697E+04  0.25500000000E-02 0.  1.
    8880023    1    1    2    0    0  0.19583674563E+03 -0.32378915175E+03 -0.90955887065E+03  0.11850312195E+04  0.65864270000E+03 0.  1.
    8880022    1    1    2    0    0 -0.19583674563E+03  0.32378915175E+03  0.35853160752E+03  0.54325685669E+03  0.15294330000E+03 0.  0.
<mgrwt>
<rscale>  0 0.65034718E+03</rscale>
<asrwt>0</asrwt>
<pdfrwt beam="1">  1        2 0.90558524E-01 0.75960625E+03</pdfrwt>
<pdfrwt beam="2">  1       -2 0.17533195E+00 0.75960625E+03</pdfrwt>
<totfact> 0.10074600E+01</totfact>
</mgrwt>
</event>
<event>
 4    2  0.6914693E-007  0.6800216E+03  0.7818608E-02  0.1009311E+00
         -2   -1    0    0    0  501 -0.00000000000E+00  0.00000000000E+00  0.16432719292E+04  0.16432719292E+04  0.25500000000E-02 0.  1.
          2   -1    0    0  501    0  0.00000000000E+00 -0.00000000000E+00 -0.31846886131E+03  0.31846886132E+03  0.25500000000E-02 0. -1.
    8880023    1    1    2    0    0 -0.83435866450E+02  0.14716526819E+03  0.15176751517E+04  0.16630595998E+04  0.65864270000E+03 0.  1.
    8880022    1    1    2    0    0  0.83435866450E+02 -0.14716526819E+03 -0.19287208384E+03  0.29868119075E+03  0.15294330000E+03 0.  0.
<mgrwt>
<rscale>  0 0.51749211E+03</rscale>
<asrwt>0</asrwt>
<pdfrwt beam="1">  1        2 0.48995209E-01 0.68002159E+03</pdfrwt>
<pdfrwt beam="2">  1       -2 0.25281107E+00 0.68002159E+03</pdfrwt>
<totfact> 0.65773409E+00</totfact>
</mgrwt>
</event>
<event>
 4    2  0.6914693E-007  0.1557712E+04  0.7818608E-02  0.8869923E-01
         -2   -1    0    0    0  501 -0.00000000000E+00  0.00000000000E+00  0.12041063742E+04  0.12041063742E+04  0.25500000000E-02 0.  1.
          2   -1    0    0  501    0  0.00000000000E+00 -0.00000000000E+00 -0.21166232988E+04  0.21166232988E+04  0.25500000000E-02 0. -1.
    8880023    1    1    2    0    0 -0.11310176628E+04  0.84466285674E+03  0.12419785229E+03  0.15626553068E+04  0.65864270000E+03 0.  0.
    8880022    1    1    2    0    0  0.11310176628E+04 -0.84466285674E+03 -0.10367147770E+04  0.17580743661E+04  0.15294330000E+03 0.  0.
<mgrwt>
<rscale>  0 0.15220467E+04</rscale>
<asrwt>0</asrwt>
<pdfrwt beam="1">  1        2 0.32563435E+00 0.15577119E+04</pdfrwt>
<pdfrwt beam="2">  1       -2 0.18524714E+00 0.15577119E+04</pdfrwt>
<totfact> 0.89763541E-01</totfact>
</mgrwt>
</event>
<event>
 4    2  0.6914693E-007  0.7316070E+03  0.7818608E-02  0.9885106E-01
         -2   -1    0    0    0  501 -0.00000000000E+00  0.00000000000E+00  0.31612688147E+03  0.31612688148E+03  0.25500000000E-02 0.  1.
          2   -1    0    0  501    0  0.00000000000E+00 -0.00000000000E+00 -0.10415256634E+04  0.10415256634E+04  0.25500000000E-02 0. -1.
    8880023    1    1    2    0    0 -0.25714051419E+03 -0.18792897461E+03 -0.68465368379E+03  0.10019977128E+04  0.65864270000E+03 0.  0.
    8880022    1    1    2    0    0  0.25714051419E+03  0.18792897461E+03 -0.40745098167E+02  0.35565483207E+03  0.15294330000E+03 0.  0.
<mgrwt>
<rscale>  0 0.60988553E+03</rscale>
<asrwt>0</asrwt>
<pdfrwt beam="1">  1        2 0.16023472E+00 0.73160696E+03</pdfrwt>
<pdfrwt beam="2">  1       -2 0.48634906E-01 0.73160696E+03</pdfrwt>
<totfact> 0.96347696E+01</totfact>
</mgrwt>
</event>
<event>
 4    2  0.6914693E-007  0.9130025E+03  0.7818608E-02  0.9505473E-01
          2   -1    0    0  501    0  0.00000000000E+00  0.00000000000E+00  0.70811322570E+03  0.70811322570E+03  0.25500000000E-02 0. -1.
         -2   -1    0    0    0  501 -0.00000000000E+00 -0.00000000000E+00 -0.13818086519E+04  0.13818086519E+04  0.25500000000E-02 0.  1.
    8880023    1    1    2    0    0  0.16281899756E+03 -0.61094469578E+03 -0.10067718611E+04  0.13591038348E+04  0.65864270000E+03 0.  1.
    8880022    1    1    2    0    0 -0.16281899756E+03  0.61094469578E+03  0.33307643484E+03  0.73081804283E+03  0.15294330000E+03 0.  0.
<mgrwt>
<rscale>  0 0.83881549E+03</rscale>
<asrwt>0</asrwt>
<pdfrwt beam="1">  1        2 0.10894050E+00 0.91300255E+03</pdfrwt>
<pdfrwt beam="2">  1       -2 0.21258595E+00 0.91300255E+03</pdfrwt>
<totfact> 0.44645459E+00</totfact>
</mgrwt>
</event>
<event>
 4    2  0.7132288E-007  0.8089681E+03  0.7818608E-02  0.9691730E-01
         -2   -1    0    0    0  501 -0.00000000000E+00  0.00000000000E+00  0.14256080699E+04  0.14256080699E+04  0.25500000000E-02 0.  1.
          2   -1    0    0  501    0  0.00000000000E+00 -0.00000000000E+00 -0.13377898514E+04  0.13377898514E+04  0.25500000000E-02 0. -1.
    8880023    1    1    2    0    0  0.66213779542E+02 -0.46501060444E+03  0.12566199043E+04  0.14944975467E+04  0.65864270000E+03 0.  0.
    8880022    1    1    2    0    0 -0.66213779542E+02  0.46501060444E+03 -0.11688016859E+04  0.12689003746E+04  0.15294330000E+03 0.  0.
<mgrwt>
<rscale>  0 0.71511298E+03</rscale>
<asrwt>0</asrwt>
<pdfrwt beam="1">  1        2 0.20581382E+00 0.80896807E+03</pdfrwt>
<pdfrwt beam="2">  1       -2 0.21932432E+00 0.80896807E+03</pdfrwt>
<totfact> 0.16037977E+00</totfact>
</mgrwt>
</event>
<event>
 4    2  0.6914693E-007  0.8029893E+03  0.7818608E-02  0.9704370E-01
          2   -1    0    0  501    0  0.00000000000E+00  0.00000000000E+00  0.23082374883E+04  0.23082374883E+04  0.25500000000E-02 0. -1.
         -2   -1    0    0    0  501 -0.00000000000E+00 -0.00000000000E+00 -0.46919461479E+03  0.46919461480E+03  0.25500000000E-02 0.  1.
    8880023    1    1    2    0    0 -0.24099049967E+02 -0.45869468400E+03 -0.71821616006E+02  0.80619484501E+03  0.65864270000E+03 0.  1.
    8880022    1    1    2    0    0  0.24099049967E+02  0.45869468400E+03  0.19108644895E+04  0.19712372581E+04  0.15294330000E+03 0.  0.
<mgrwt>
<rscale>  0 0.70757228E+03</rscale>
<asrwt>0</asrwt>
<pdfrwt beam="1">  1        2 0.35511346E+00 0.80298928E+03</pdfrwt>
<pdfrwt beam="2">  1       -2 0.72183786E-01 0.80298928E+03</pdfrwt>
<totfact> 0.80660268E+00</totfact>
</mgrwt>
</event>
<event>
 4    2  0.6914693E-007  0.1815248E+04  0.7818608E-02  0.8714148E-01
          2   -1    0    0  501    0  0.00000000000E+00  0.00000000000E+00  0.21505450371E+04  0.21505450371E+04  0.25500000000E-02 0. -1.
         -2   -1    0    0    0  501 -0.00000000000E+00 -0.00000000000E+00 -0.19399840592E+04  0.19399840592E+04  0.25500000000E-02 0.  1.
    8880023    1    1    2    0    0 -0.73774869779E+03  0.15221832381E+04  0.11507082337E+04  0.21492451225E+04  0.65864270000E+03 0. -1.
    8880022    1    1    2    0    0  0.73774869779E+03 -0.15221832381E+04 -0.94014725585E+03  0.19412839738E+04  0.15294330000E+03 0.  1.
<mgrwt>
<rscale>  0 0.17853143E+04</rscale>
<asrwt>0</asrwt>
<pdfrwt beam="1">  1        2 0.33085308E+00 0.18152480E+04</pdfrwt>
<pdfrwt beam="2">  1       -2 0.29845909E+00 0.18152480E+04</pdfrwt>
<totfact> 0.16187739E-01</totfact>
</mgrwt>
</event>
<event>
 4    2  0.6914693E-007  0.7806451E+03  0.7818608E-02  0.9754324E-01
         -2   -1    0    0    0  501 -0.00000000000E+00  0.00000000000E+00  0.48556064352E+03  0.48556064352E+03  0.25500000000E-02 0.  1.
          2   -1    0    0  501    0  0.00000000000E+00 -0.00000000000E+00 -0.19486926751E+04  0.19486926751E+04  0.25500000000E-02 0. -1.
    8880023    1    1    2    0    0 -0.29913602689E+03 -0.29345227017E+03  0.11969551261E+03  0.78976820616E+03  0.65864270000E+03 0.  1.
    8880022    1    1    2    0    0  0.29913602689E+03  0.29345227017E+03 -0.15828275442E+04  0.16444851125E+04  0.15294330000E+03 0.  0.
<mgrwt>
<rscale>  0 0.67872472E+03</rscale>
<asrwt>0</asrwt>
<pdfrwt beam="1">  1        2 0.29979887E+00 0.78064512E+03</pdfrwt>
<pdfrwt beam="2">  1       -2 0.74701639E-01 0.78064512E+03</pdfrwt>
<totfact> 0.11832573E+01</totfact>
</mgrwt>
</event>
<event>
 4    2  0.6914693E-007  0.6706554E+03  0.7818608E-02  0.1015197E+00
         -2   -1    0    0    0  501 -0.00000000000E+00  0.00000000000E+00  0.26961895991E+03  0.26961895993E+03  0.25500000000E-02 0.  1.
          2   -1    0    0  501    0  0.00000000000E+00 -0.00000000000E+00 -0.13624506257E+04  0.13624506257E+04  0.25500000000E-02 0. -1.
    8880023    1    1    2    0    0 -0.86377333170E+02  0.92235994664E+02 -0.17509777078E+03  0.69313631992E+03  0.65864270000E+03 0.  1.
    8880022    1    1    2    0    0  0.86377333170E+02 -0.92235994664E+02 -0.91773389503E+03  0.93893326573E+03  0.15294330000E+03 0.  0.
<mgrwt>
<rscale>  0 0.49460297E+03</rscale>
<asrwt>0</asrwt>
<pdfrwt beam="1">  1        2 0.20960778E+00 0.67065545E+03</pdfrwt>
<pdfrwt beam="2">  1       -2 0.41479841E-01 0.67065545E+03</pdfrwt>
<totfact> 0.85851215E+01</totfact>
</mgrwt>
</event>
<event>
 4    2  0.6914693E-007  0.8274966E+03  0.7818608E-02  0.9654223E-01
         -2   -1    0    0    0  501 -0.00000000000E+00  0.00000000000E+00  0.42263554110E+03  0.42263554111E+03  0.25500000000E-02 0.  1.
          2   -1    0    0  501    0  0.00000000000E+00 -0.00000000000E+00 -0.15749268901E+04  0.15749268901E+04  0.25500000000E-02 0. -1.
    8880023    1    1    2    0    0 -0.47321305706E+03 -0.16434656076E+03 -0.11488520439E+03  0.83543354365E+03  0.65864270000E+03 0.  1.
    8880022    1    1    2    0    0  0.47321305706E+03  0.16434656076E+03 -0.10374061446E+04  0.11621288875E+04  0.15294330000E+03 0.  0.
<mgrwt>
<rscale>  0 0.73808983E+03</rscale>
<asrwt>0</asrwt>
<pdfrwt beam="1">  1        2 0.24229644E+00 0.82749658E+03</pdfrwt>
<pdfrwt beam="2">  1       -2 0.65020853E-01 0.82749658E+03</pdfrwt>
<totfact> 0.25528769E+01</totfact>
</mgrwt>
</event>
<event>
 4    2  0.6914693E-007  0.6696700E+03  0.7818608E-02  0.1015901E+00
         -2   -1    0    0    0  501 -0.00000000000E+00  0.00000000000E+00  0.16833537877E+03  0.16833537879E+03  0.25500000000E-02 0.  1.
          2   -1    0    0  501    0  0.00000000000E+00 -0.00000000000E+00 -0.18626565301E+04  0.18626565301E+04  0.25500000000E-02 0. -1.
    8880023    1    1    2    0    0  0.93561316008E+02 -0.76772150261E+02 -0.53987832621E+03  0.86018980248E+03  0.65864270000E+03 0.  0.
    8880022    1    1    2    0    0 -0.93561316008E+02  0.76772150261E+02 -0.11544428251E+04  0.11708021064E+04  0.15294330000E+03 0. -1.
<mgrwt>
<rscale>  0 0.49195428E+03</rscale>
<asrwt>0</asrwt>
<pdfrwt beam="1">  1        2 0.28656253E+00 0.66966999E+03</pdfrwt>
<pdfrwt beam="2">  1       -2 0.25897752E-01 0.66966999E+03</pdfrwt>
<totfact> 0.11049307E+02</totfact>
</mgrwt>
</event>
<event>
 4    2  0.6914693E-007  0.6862461E+03  0.7818608E-02  0.1005990E+00
          2   -1    0    0  501    0  0.00000000000E+00  0.00000000000E+00  0.15342318287E+04  0.15342318287E+04  0.25500000000E-02 0. -1.
         -2   -1    0    0    0  501 -0.00000000000E+00 -0.00000000000E+00 -0.14239462496E+03  0.14239462499E+03  0.25500000000E-02 0.  1.
    8880023    1    1    2    0    0  0.14124075985E+03  0.13105159534E+03  0.96803368701E+03  0.11866014067E+04  0.65864270000E+03 0.  1.
    8880022    1    1    2    0    0 -0.14124075985E+03 -0.13105159534E+03  0.42380351668E+03  0.49002504697E+03  0.15294330000E+03 0. -1.
<mgrwt>
<rscale>  0 0.53099802E+03</rscale>
<asrwt>0</asrwt>
<pdfrwt beam="1">  1        2 0.23603565E+00 0.68624608E+03</pdfrwt>
<pdfrwt beam="2">  1       -2 0.21906867E-01 0.68624608E+03</pdfrwt>
<totfact> 0.22495826E+02</totfact>
</mgrwt>
</event>
<event>
 4    2  0.6914693E-007  0.9304477E+03  0.7818608E-02  0.9478822E-01
         -2   -1    0    0    0  501 -0.00000000000E+00  0.00000000000E+00  0.40921361078E+03  0.40921361079E+03  0.25500000000E-02 0.  1.
          2   -1    0    0  501    0  0.00000000000E+00 -0.00000000000E+00 -0.16349000078E+04  0.16349000078E+04  0.25500000000E-02 0. -1.
    8880023    1    1    2    0    0 -0.63581200028E+03 -0.16633037032E+03 -0.51230393144E+03  0.10621620480E+04  0.65864270000E+03 0. -1.
    8880022    1    1    2    0    0  0.63581200028E+03  0.16633037032E+03 -0.71338246562E+03  0.98195157063E+03  0.15294330000E+03 0.  0.
<mgrwt>
<rscale>  0 0.85863362E+03</rscale>
<asrwt>0</asrwt>
<pdfrwt beam="1">  1        2 0.25152307E+00 0.93044769E+03</pdfrwt>
<pdfrwt beam="2">  1       -2 0.62955941E-01 0.93044769E+03</pdfrwt>
<totfact> 0.25077906E+01</totfact>
</mgrwt>
</event>
<event>
 4    2  0.6914693E-007  0.9995665E+03  0.7818608E-02  0.9382125E-01
         -2   -1    0    0    0  501 -0.00000000000E+00  0.00000000000E+00  0.57541397204E+03  0.57541397205E+03  0.25500000000E-02 0.  1.
          2   -1    0    0  501    0  0.00000000000E+00 -0.00000000000E+00 -0.28808727231E+04  0.28808727231E+04  0.25500000000E-02 0. -1.
    8880023    1    1    2    0    0  0.29606998961E+03 -0.69113348416E+03  0.27959107792E+02  0.99995742392E+03  0.65864270000E+03 0.  1.
    8880022    1    1    2    0    0 -0.29606998961E+03  0.69113348416E+03 -0.23334178588E+04  0.24563292712E+04  0.15294330000E+03 0.  0.
<mgrwt>
<rscale>  0 0.93561432E+03</rscale>
<asrwt>0</asrwt>
<pdfrwt beam="1">  1        2 0.44321118E+00 0.99956647E+03</pdfrwt>
<pdfrwt beam="2">  1       -2 0.88525229E-01 0.99956647E+03</pdfrwt>
<totfact> 0.23063102E+00</totfact>
</mgrwt>
</event>
<event>
 4    2  0.6914693E-007  0.6688467E+03  0.7818608E-02  0.1016503E+00
          2   -1    0    0  501    0  0.00000000000E+00  0.00000000000E+00  0.11382890785E+04  0.11382890785E+04  0.25500000000E-02 0. -1.
         -2   -1    0    0    0  501 -0.00000000000E+00 -0.00000000000E+00 -0.25315056824E+03  0.25315056826E+03  0.25500000000E-02 0.  1.
    8880023    1    1    2    0    0  0.67264509070E+02 -0.94979751180E+02  0.22779097590E+03  0.70657243244E+03  0.65864270000E+03 0.  1.
    8880022    1    1    2    0    0 -0.67264509070E+02  0.94979751180E+02  0.65734753440E+03  0.68486721436E+03  0.15294330000E+03 0.  0.
<mgrwt>
<rscale>  0 0.48969774E+03</rscale>
<asrwt>0</asrwt>
<pdfrwt beam="1">  1        2 0.17512140E+00 0.66884667E+03</pdfrwt>
<pdfrwt beam="2">  1       -2 0.38946241E-01 0.66884667E+03</pdfrwt>
<totfact> 0.13112602E+02</totfact>
</mgrwt>
</event>
<event>
 4    2  0.6914693E-007  0.6836212E+03  0.7818608E-02  0.1007345E+00
         -2   -1    0    0    0  501 -0.00000000000E+00  0.00000000000E+00  0.89670868751E+03  0.89670868752E+03  0.25500000000E-02 0.  1.
          2   -1    0    0  501    0  0.00000000000E+00 -0.00000000000E+00 -0.52528341865E+03  0.52528341865E+03  0.25500000000E-02 0. -1.
    8880023    1    1    2    0    0  0.84296066307E+02  0.16254797700E+03  0.72434398765E+03  0.99599803731E+03  0.65864270000E+03 0.  1.
    8880022    1    1    2    0    0 -0.84296066307E+02 -0.16254797700E+03 -0.35291871878E+03  0.42599406886E+03  0.15294330000E+03 0.  0.
<mgrwt>
<rscale>  0 0.52543511E+03</rscale>
<asrwt>0</asrwt>
<pdfrwt beam="1">  1        2 0.80812835E-01 0.68362115E+03</pdfrwt>
<pdfrwt beam="2">  1       -2 0.13795518E+00 0.68362115E+03</pdfrwt>
<totfact> 0.22103593E+01</totfact>
</mgrwt>
</event>
<event>
 4    2  0.6914693E-007  0.7287221E+03  0.7818608E-02  0.9894108E-01
          2   -1    0    0  501    0  0.00000000000E+00  0.00000000000E+00  0.26921164577E+04  0.26921164577E+04  0.25500000000E-02 0. -1.
         -2   -1    0    0    0  501 -0.00000000000E+00 -0.00000000000E+00 -0.59834745652E+03  0.59834745652E+03  0.25500000000E-02 0.  1.
    8880023    1    1    2    0    0  0.29149576152E+03 -0.11070644729E+03 -0.35961174973E+03  0.81262322959E+03  0.65864270000E+03 0.  1.
    8880022    1    1    2    0    0 -0.29149576152E+03  0.11070644729E+03  0.24533807509E+04  0.24778406846E+04  0.15294330000E+03 0. -1.
<mgrwt>
<rscale>  0 0.60547704E+03</rscale>
<asrwt>0</asrwt>
<pdfrwt beam="1">  1        2 0.41417176E+00 0.72872210E+03</pdfrwt>
<pdfrwt beam="2">  1       -2 0.92053455E-01 0.72872210E+03</pdfrwt>
<totfact> 0.28565425E+00</totfact>
</mgrwt>
</event>
<event>
 4    2  0.6914693E-007  0.7480812E+03  0.7818608E-02  0.9837003E-01
          2   -1    0    0  501    0  0.00000000000E+00  0.00000000000E+00  0.13360440803E+04  0.13360440803E+04  0.25500000000E-02 0. -1.
         -2   -1    0    0    0  501 -0.00000000000E+00 -0.00000000000E+00 -0.46096435293E+03  0.46096435294E+03  0.25500000000E-02 0.  1.
    8880023    1    1    2    0    0  0.13647652064E+03 -0.32739795414E+03 -0.93826919660E+02  0.75394227775E+03  0.65864270000E+03 0.  0.
    8880022    1    1    2    0    0 -0.13647652064E+03  0.32739795414E+03  0.96890664704E+03  0.10430661555E+04  0.15294330000E+03 0.  0.
<mgrwt>
<rscale>  0 0.63414003E+03</rscale>
<asrwt>0</asrwt>
<pdfrwt beam="1">  1        2 0.20554524E+00 0.74808119E+03</pdfrwt>
<pdfrwt beam="2">  1       -2 0.70917593E-01 0.74808119E+03</pdfrwt>
<totfact> 0.29054133E+01</totfact>
</mgrwt>
</event>
<event>
 4    2  0.6914693E-007  0.7219537E+03  0.7818608E-02  0.9916030E-01
         -2   -1    0    0    0  501 -0.00000000000E+00  0.00000000000E+00  0.14282340336E+03  0.14282340338E+03  0.25500000000E-02 0.  1.
          2   -1    0    0  501    0  0.00000000000E+00 -0.00000000000E+00 -0.19482054090E+04  0.19482054090E+04  0.25500000000E-02 0. -1.
    8880023    1    1    2    0    0  0.19771285914E+03 -0.21981037717E+03 -0.12529461697E+04  0.14460606097E+04  0.65864270000E+03 0.  1.
    8880022    1    1    2    0    0 -0.19771285914E+03  0.21981037717E+03 -0.55243583591E+03  0.64496820262E+03  0.15294330000E+03 0.  1.
<mgrwt>
<rscale>  0 0.59490665E+03</rscale>
<asrwt>0</asrwt>
<pdfrwt beam="1">  1        2 0.29972389E+00 0.72195373E+03</pdfrwt>
<pdfrwt beam="2">  1       -2 0.21972833E-01 0.72195373E+03</pdfrwt>
<totfact> 0.13249040E+02</totfact>
</mgrwt>
</event>
<event>
 4    2  0.6914693E-007  0.7577575E+03  0.7818608E-02  0.9810948E-01
         -2   -1    0    0    0  501 -0.00000000000E+00  0.00000000000E+00  0.26422497607E+03  0.26422497608E+03  0.25500000000E-02 0.  1.
          2   -1    0    0  501    0  0.00000000000E+00 -0.00000000000E+00 -0.21830746225E+04  0.21830746225E+04  0.25500000000E-02 0. -1.
    8880023    1    1    2    0    0 -0.21917846121E+03 -0.30388644428E+03 -0.36400711259E+03  0.84065305159E+03  0.65864270000E+03 0.  1.
    8880022    1    1    2    0    0  0.21917846121E+03  0.30388644428E+03 -0.15548425338E+04  0.16066465470E+04  0.15294330000E+03 0.  0.
<mgrwt>
<rscale>  0 0.64778301E+03</rscale>
<asrwt>0</asrwt>
<pdfrwt beam="1">  1        2 0.33585762E+00 0.75775746E+03</pdfrwt>
<pdfrwt beam="2">  1       -2 0.40649998E-01 0.75775746E+03</pdfrwt>
<totfact> 0.31304001E+01</totfact>
</mgrwt>
</event>
<event>
 4    2  0.6914693E-007  0.7549631E+03  0.7818608E-02  0.9818326E-01
         -2   -1    0    0    0  501 -0.00000000000E+00  0.00000000000E+00  0.47300763153E+03  0.47300763154E+03  0.25500000000E-02 0.  1.
          2   -1    0    0  501    0  0.00000000000E+00 -0.00000000000E+00 -0.13833237882E+04  0.13833237882E+04  0.25500000000E-02 0. -1.
    8880023    1    1    2    0    0  0.27079719688E+03  0.25065508871E+03  0.10783928959E+03  0.76262612988E+03  0.65864270000E+03 0.  1.
    8880022    1    1    2    0    0 -0.27079719688E+03 -0.25065508871E+03 -0.10181554463E+04  0.10937052899E+04  0.15294330000E+03 0.  0.
<mgrwt>
<rscale>  0 0.64388255E+03</rscale>
<asrwt>0</asrwt>
<pdfrwt beam="1">  1        2 0.21281904E+00 0.75496311E+03</pdfrwt>
<pdfrwt beam="2">  1       -2 0.72770405E-01 0.75496311E+03</pdfrwt>
<totfact> 0.25784268E+01</totfact>
</mgrwt>
</event>
<event>
 4    2  0.6914693E-007  0.7015245E+03  0.7818608E-02  0.9990935E-01
          2   -1    0    0  501    0  0.00000000000E+00  0.00000000000E+00  0.96176350853E+03  0.96176350853E+03  0.25500000000E-02 0. -1.
         -2   -1    0    0    0  501 -0.00000000000E+00 -0.00000000000E+00 -0.27263269352E+03  0.27263269353E+03  0.25500000000E-02 0.  1.
    8880023    1    1    2    0    0 -0.12633464679E+03  0.20582999294E+03  0.32967069531E+03  0.77512541087E+03  0.65864270000E+03 0. -1.
    8880022    1    1    2    0    0  0.12633464679E+03 -0.20582999294E+03  0.35946011970E+03  0.45927079119E+03  0.15294330000E+03 0.  0.
<mgrwt>
<rscale>  0 0.56049521E+03</rscale>
<asrwt>0</asrwt>
<pdfrwt beam="1">  1        2 0.14796362E+00 0.70152451E+03</pdfrwt>
<pdfrwt beam="2">  1       -2 0.41943491E-01 0.70152451E+03</pdfrwt>
<totfact> 0.14581118E+02</totfact>
</mgrwt>
</event>
<event>
 4    2  0.6914693E-007  0.1032776E+04  0.7818608E-02  0.9339879E-01
         -2   -1    0    0    0  501 -0.00000000000E+00  0.00000000000E+00  0.87020796439E+03  0.87020796440E+03  0.25500000000E-02 0.  1.
          2   -1    0    0  501    0  0.00000000000E+00 -0.00000000000E+00 -0.17806546166E+04  0.17806546166E+04  0.25500000000E-02 0. -1.
    8880023    1    1    2    0    0  0.27302733912E+03 -0.74717656719E+03  0.40224329222E+03  0.11083440905E+04  0.65864270000E+03 0.  0.
    8880022    1    1    2    0    0 -0.27302733912E+03  0.74717656719E+03 -0.13126899444E+04  0.15425184906E+04  0.15294330000E+03 0.  0.
<mgrwt>
<rscale>  0 0.97192988E+03</rscale>
<asrwt>0</asrwt>
<pdfrwt beam="1">  1        2 0.27394686E+00 0.10327763E+04</pdfrwt>
<pdfrwt beam="2">  1       -2 0.13387815E+00 0.10327763E+04</pdfrwt>
<totfact> 0.35351414E+00</totfact>
</mgrwt>
</event>
<event>
 4    2  0.6914693E-007  0.7810602E+03  0.7818608E-02  0.9753352E-01
         -2   -1    0    0    0  501 -0.00000000000E+00  0.00000000000E+00  0.28738984970E+03  0.28738984971E+03  0.25500000000E-02 0.  1.
          2   -1    0    0  501    0  0.00000000000E+00 -0.00000000000E+00 -0.25486872262E+04  0.25486872262E+04  0.25500000000E-02 0. -1.
    8880023    1    1    2    0    0  0.36205534957E+03  0.21251073701E+03 -0.22579852716E+04  0.23892577472E+04  0.65864270000E+03 0. -1.
    8880022    1    1    2    0    0 -0.36205534957E+03 -0.21251073701E+03 -0.33121049363E+01  0.44681932875E+03  0.15294330000E+03 0.  1.
<mgrwt>
<rscale>  0 0.67927151E+03</rscale>
<asrwt>0</asrwt>
<pdfrwt beam="1">  1        2 0.39210571E+00 0.78106024E+03</pdfrwt>
<pdfrwt beam="2">  1       -2 0.44213825E-01 0.78106024E+03</pdfrwt>
<totfact> 0.16500399E+01</totfact>
</mgrwt>
</event>
<event>
 4    2  0.6914693E-007  0.6780799E+03  0.7818608E-02  0.1010431E+00
         -2   -1    0    0    0  501 -0.00000000000E+00  0.00000000000E+00  0.14655685733E+03  0.14655685735E+03  0.25500000000E-02 0.  1.
          2   -1    0    0  501    0  0.00000000000E+00 -0.00000000000E+00 -0.15124937358E+04  0.15124937358E+04  0.25500000000E-02 0. -1.
    8880023    1    1    2    0    0 -0.12505147329E+03  0.10170646948E+03 -0.78637855880E+03  0.10383561628E+04  0.65864270000E+03 0.  1.
    8880022    1    1    2    0    0  0.12505147329E+03 -0.10170646948E+03 -0.57955831972E+03  0.62069443035E+03  0.15294330000E+03 0.  0.
<mgrwt>
<rscale>  0 0.51303574E+03</rscale>
<asrwt>0</asrwt>
<pdfrwt beam="1">  1        2 0.23269133E+00 0.67807985E+03</pdfrwt>
<pdfrwt beam="2">  1       -2 0.22547210E-01 0.67807985E+03</pdfrwt>
<totfact> 0.21991338E+02</totfact>
</mgrwt>
</event>
<event>
 4    2  0.6914693E-007  0.7087813E+03  0.7818608E-02  0.9962555E-01
         -2   -1    0    0    0  501 -0.00000000000E+00  0.00000000000E+00  0.49722941293E+03  0.49722941293E+03  0.25500000000E-02 0.  1.
          2   -1    0    0  501    0  0.00000000000E+00 -0.00000000000E+00 -0.62359202188E+03  0.62359202189E+03  0.25500000000E-02 0. -1.
    8880023    1    1    2    0    0 -0.11317822375E+03 -0.23611733731E+03 -0.30194824451E+03  0.77041784503E+03  0.65864270000E+03 0. -1.
    8880022    1    1    2    0    0  0.11317822375E+03  0.23611733731E+03  0.17558563555E+03  0.35040358979E+03  0.15294330000E+03 0.  0.
<mgrwt>
<rscale>  0 0.57323083E+03</rscale>
<asrwt>0</asrwt>
<pdfrwt beam="1">  1        2 0.95937234E-01 0.70878129E+03</pdfrwt>
<pdfrwt beam="2">  1       -2 0.76496833E-01 0.70878129E+03</pdfrwt>
<totfact> 0.73381052E+01</totfact>
</mgrwt>
</event>
<event>
 4    2  0.6914693E-007  0.7310775E+03  0.7818608E-02  0.9886744E-01
          2   -1    0    0  501    0  0.00000000000E+00  0.00000000000E+00  0.24331387858E+04  0.24331387858E+04  0.25500000000E-02 0. -1.
         -2   -1    0    0    0  501 -0.00000000000E+00 -0.00000000000E+00 -0.30641609342E+03  0.30641609343E+03  0.25500000000E-02 0.  1.
    8880023    1    1    2    0    0  0.29193977516E+03  0.12423898966E+03  0.16894206333E+03  0.75034377847E+03  0.65864270000E+03 0.  1.
    8880022    1    1    2    0    0 -0.29193977516E+03 -0.12423898966E+03  0.19577806290E+04  0.19892111007E+04  0.15294330000E+03 0.  0.
<mgrwt>
<rscale>  0 0.60908053E+03</rscale>
<asrwt>0</asrwt>
<pdfrwt beam="1">  1        2 0.37432905E+00 0.73107754E+03</pdfrwt>
<pdfrwt beam="2">  1       -2 0.47140936E-01 0.73107754E+03</pdfrwt>
<totfact> 0.17006670E+01</totfact>
</mgrwt>
</event>
<event>
 4    2  0.6914693E-007  0.8143492E+03  0.7818608E-02  0.9680588E-01
         -2   -1    0    0    0  501 -0.00000000000E+00  0.00000000000E+00  0.16465515150E+03  0.16465515152E+03  0.25500000000E-02 0.  1.
          2   -1    0    0  501    0  0.00000000000E+00 -0.00000000000E+00 -0.32793400027E+04  0.32793400027E+04  0.25500000000E-02 0. -1.
    8880023    1    1    2    0    0 -0.38937641225E+03 -0.27881973860E+03 -0.11066707912E+04  0.13740032327E+04  0.65864270000E+03 0.  1.
    8880022    1    1    2    0    0  0.38937641225E+03  0.27881973860E+03 -0.20080140600E+04  0.20699919215E+04  0.15294330000E+03 0.  0.
<mgrwt>
<rscale>  0 0.72184436E+03</rscale>
<asrwt>0</asrwt>
<pdfrwt beam="1">  1        2 0.50451380E+00 0.81434921E+03</pdfrwt>
<pdfrwt beam="2">  1       -2 0.25331564E-01 0.81434921E+03</pdfrwt>
<totfact> 0.17019299E+01</totfact>
</mgrwt>
</event>
<event>
 4    2  0.6914693E-007  0.1125328E+04  0.7818608E-02  0.9233367E-01
          2   -1    0    0  501    0  0.00000000000E+00  0.00000000000E+00  0.15764996346E+04  0.15764996346E+04  0.25500000000E-02 0. -1.
         -2   -1    0    0    0  501 -0.00000000000E+00 -0.00000000000E+00 -0.88107450868E+03  0.88107450868E+03  0.25500000000E-02 0.  1.
    8880023    1    1    2    0    0  0.86210447009E+03  0.29887826129E+03 -0.23045445430E+03  0.11486826342E+04  0.65864270000E+03 0.  0.
    8880022    1    1    2    0    0 -0.86210447009E+03 -0.29887826129E+03  0.92587958023E+03  0.13088915091E+04  0.15294330000E+03 0.  0.
<mgrwt>
<rscale>  0 0.10715562E+04</rscale>
<asrwt>0</asrwt>
<pdfrwt beam="1">  1        2 0.24253840E+00 0.11253277E+04</pdfrwt>
<pdfrwt beam="2">  1       -2 0.13554993E+00 0.11253277E+04</pdfrwt>
<totfact> 0.44002914E+00</totfact>
</mgrwt>
</event>
<event>
 4    2  0.6914693E-007  0.6772735E+03  0.7818608E-02  0.1010910E+00
          2   -1    0    0  501    0  0.00000000000E+00  0.00000000000E+00  0.12617414820E+04  0.12617414820E+04  0.25500000000E-02 0. -1.
         -2   -1    0    0    0  501 -0.00000000000E+00 -0.00000000000E+00 -0.43626260223E+03  0.43626260224E+03  0.25500000000E-02 0.  1.
    8880023    1    1    2    0    0  0.91227772249E+02 -0.12871146631E+03 -0.15368284258E+03  0.69449101532E+03  0.65864270000E+03 0.  1.
    8880022    1    1    2    0    0 -0.91227772249E+02  0.12871146631E+03  0.97916172230E+03  0.10035130689E+04  0.15294330000E+03 0.  0.
<mgrwt>
<rscale>  0 0.51114587E+03</rscale>
<asrwt>0</asrwt>
<pdfrwt beam="1">  1        2 0.19411407E+00 0.67727347E+03</pdfrwt>
<pdfrwt beam="2">  1       -2 0.67117325E-01 0.67727347E+03</pdfrwt>
<totfact> 0.36429484E+01</totfact>
</mgrwt>
</event>
<event>
 4    2  0.6914693E-007  0.6934519E+03  0.7818608E-02  0.1002553E+00
          2   -1    0    0  501    0  0.00000000000E+00  0.00000000000E+00  0.75672504908E+03  0.75672504908E+03  0.25500000000E-02 0. -1.
         -2   -1    0    0    0  501 -0.00000000000E+00 -0.00000000000E+00 -0.19497785143E+04  0.19497785143E+04  0.25500000000E-02 0.  1.
    8880023    1    1    2    0    0 -0.15392921185E+02  0.21639867192E+03 -0.18619364494E+04  0.19868776698E+04  0.65864270000E+03 0.  1.
    8880022    1    1    2    0    0  0.15392921185E+02 -0.21639867192E+03  0.66888298411E+03  0.71962589356E+03  0.15294330000E+03 0.  0.
<mgrwt>
<rscale>  0 0.54544725E+03</rscale>
<asrwt>0</asrwt>
<pdfrwt beam="1">  1        2 0.11641924E+00 0.69345190E+03</pdfrwt>
<pdfrwt beam="2">  1       -2 0.29996592E+00 0.69345190E+03</pdfrwt>
<totfact> 0.12430400E+00</totfact>
</mgrwt>
</event>
<event>
 4    2  0.6914693E-007  0.9345445E+03  0.7818608E-02  0.9472709E-01
          2   -1    0    0  501    0  0.00000000000E+00  0.00000000000E+00  0.82851977540E+03  0.82851977540E+03  0.25500000000E-02 0. -1.
         -2   -1    0    0    0  501 -0.00000000000E+00 -0.00000000000E+00 -0.14811200867E+04  0.14811200867E+04  0.25500000000E-02 0.  1.
    8880023    1    1    2    0    0  0.49618556930E+03  0.43973065905E+03 -0.11389464332E+04  0.14732862437E+04  0.65864270000E+03 0.  0.
    8880022    1    1    2    0    0 -0.49618556930E+03 -0.43973065905E+03  0.48634612196E+03  0.83635361842E+03  0.15294330000E+03 0.  0.
<mgrwt>
<rscale>  0 0.86326137E+03</rscale>
<asrwt>0</asrwt>
<pdfrwt beam="1">  1        2 0.12746458E+00 0.93454448E+03</pdfrwt>
<pdfrwt beam="2">  1       -2 0.22786463E+00 0.93454448E+03</pdfrwt>
<totfact> 0.29046581E+00</totfact>
</mgrwt>
</event>
<event>
 4    2  0.6914693E-007  0.6985151E+03  0.7818608E-02  0.1000342E+00
          2   -1    0    0  501    0  0.00000000000E+00  0.00000000000E+00  0.13602802177E+04  0.13602802177E+04  0.25500000000E-02 0. -1.
         -2   -1    0    0    0  501 -0.00000000000E+00 -0.00000000000E+00 -0.32647134058E+03  0.32647134059E+03  0.25500000000E-02 0.  1.
    8880023    1    1    2    0    0  0.22550894637E+03 -0.57086546564E+02  0.91867408762E+02  0.70453032990E+03  0.65864270000E+03 0.  1.
    8880022    1    1    2    0    0 -0.22550894637E+03  0.57086546564E+02  0.94194146833E+03  0.98222122838E+03  0.15294330000E+03 0.  0.
<mgrwt>
<rscale>  0 0.55500633E+03</rscale>
<asrwt>0</asrwt>
<pdfrwt beam="1">  1        2 0.20927388E+00 0.69851511E+03</pdfrwt>
<pdfrwt beam="2">  1       -2 0.50226360E-01 0.69851511E+03</pdfrwt>
<totfact> 0.58587331E+01</totfact>
</mgrwt>
</event>
<event>
 4    2  0.6914693E-007  0.7005478E+03  0.7818608E-02  0.9994936E-01
         -2   -1    0    0    0  501 -0.00000000000E+00  0.00000000000E+00  0.38736077207E+03  0.38736077208E+03  0.25500000000E-02 0.  1.
          2   -1    0    0  501    0  0.00000000000E+00 -0.00000000000E+00 -0.97138920961E+03  0.97138920961E+03  0.25500000000E-02 0. -1.
    8880023    1    1    2    0    0 -0.11216633710E+03 -0.21065541990E+03  0.99318439121E+01  0.70061818482E+03  0.65864270000E+03 0.  1.
    8880022    1    1    2    0    0  0.11216633710E+03  0.21065541990E+03 -0.59396028145E+03  0.65813179688E+03  0.15294330000E+03 0.  0.
<mgrwt>
<rscale>  0 0.55872827E+03</rscale>
<asrwt>0</asrwt>
<pdfrwt beam="1">  1        2 0.14944449E+00 0.70054779E+03</pdfrwt>
<pdfrwt beam="2">  1       -2 0.59593965E-01 0.70054779E+03</pdfrwt>
<totfact> 0.70350723E+01</totfact>
</mgrwt>
</event>
<event>
 4    2  0.6914693E-007  0.7235363E+03  0.7818608E-02  0.9910797E-01
         -2   -1    0    0    0  501 -0.00000000000E+00  0.00000000000E+00  0.19172145974E+03  0.19172145976E+03  0.25500000000E-02 0.  1.
          2   -1    0    0  501    0  0.00000000000E+00 -0.00000000000E+00 -0.25362998585E+04  0.25362998585E+04  0.25500000000E-02 0. -1.
    8880023    1    1    2    0    0  0.24963420067E+03 -0.16546107178E+03 -0.56788105066E+03  0.91977915522E+03  0.65864270000E+03 0.  1.
    8880022    1    1    2    0    0 -0.24963420067E+03  0.16546107178E+03 -0.17766973481E+04  0.18082421630E+04  0.15294330000E+03 0.  0.
<mgrwt>
<rscale>  0 0.59740861E+03</rscale>
<asrwt>0</asrwt>
<pdfrwt beam="1">  1        2 0.39019995E+00 0.72353632E+03</pdfrwt>
<pdfrwt beam="2">  1       -2 0.29495611E-01 0.72353632E+03</pdfrwt>
<totfact> 0.36740120E+01</totfact>
</mgrwt>
</event>
<event>
 4    2  0.6914693E-007  0.7979385E+03  0.7818608E-02  0.9715271E-01
          2   -1    0    0  501    0  0.00000000000E+00  0.00000000000E+00  0.42025638844E+04  0.42025638844E+04  0.25500000000E-02 0. -1.
         -2   -1    0    0    0  501 -0.00000000000E+00 -0.00000000000E+00 -0.15287670767E+03  0.15287670769E+03  0.25500000000E-02 0.  1.
    8880023    1    1    2    0    0  0.40785071775E+03 -0.19118937857E+03  0.36437085468E+04  0.37300560005E+04  0.65864270000E+03 0.  0.
    8880022    1    1    2    0    0 -0.40785071775E+03  0.19118937857E+03  0.40597862994E+03  0.62538459162E+03  0.15294330000E+03 0.  0.
<mgrwt>
<rscale>  0 0.70114777E+03</rscale>
<asrwt>0</asrwt>
<pdfrwt beam="1">  1        2 0.64654822E+00 0.79793846E+03</pdfrwt>
<pdfrwt beam="2">  1       -2 0.23519496E-01 0.79793846E+03</pdfrwt>
<totfact> 0.40852961E+00</totfact>
</mgrwt>
</event>
<event>
 4    2  0.6914693E-007  0.7871017E+03  0.7818608E-02  0.9739412E-01
          2   -1    0    0  501    0  0.00000000000E+00  0.00000000000E+00  0.16567654585E+04  0.16567654585E+04  0.25500000000E-02 0. -1.
         -2   -1    0    0    0  501 -0.00000000000E+00 -0.00000000000E+00 -0.35083351974E+03  0.35083351975E+03  0.25500000000E-02 0.  1.
    8880023    1    1    2    0    0  0.27170834699E+03  0.33450490188E+03  0.20186057330E+03  0.81257421355E+03  0.65864270000E+03 0.  1.
    8880022    1    1    2    0    0 -0.27170834699E+03 -0.33450490188E+03  0.11040713654E+04  0.11950247647E+04  0.15294330000E+03 0.  0.
<mgrwt>
<rscale>  0 0.68717945E+03</rscale>
<asrwt>0</asrwt>
<pdfrwt beam="1">  1        2 0.25488699E+00 0.78710175E+03</pdfrwt>
<pdfrwt beam="2">  1       -2 0.53974388E-01 0.78710175E+03</pdfrwt>
<totfact> 0.34226097E+01</totfact>
</mgrwt>
</event>
<event>
 4    2  0.6914693E-007  0.7475345E+03  0.7818608E-02  0.9838519E-01
          2   -1    0    0  501    0  0.00000000000E+00  0.00000000000E+00  0.24997802776E+04  0.24997802776E+04  0.25500000000E-02 0. -1.
         -2   -1    0    0    0  501 -0.00000000000E+00 -0.00000000000E+00 -0.24536127133E+03  0.24536127134E+03  0.25500000000E-02 0.  1.
    8880023    1    1    2    0    0  0.30581967748E+03  0.17740351014E+03  0.39351427945E+03  0.84478480984E+03  0.65864270000E+03 0.  1.
    8880022    1    1    2    0    0 -0.30581967748E+03 -0.17740351014E+03  0.18609047268E+04  0.19003567391E+04  0.15294330000E+03 0.  0.
<mgrwt>
<rscale>  0 0.63335730E+03</rscale>
<asrwt>0</asrwt>
<pdfrwt beam="1">  1        2 0.38458157E+00 0.74753454E+03</pdfrwt>
<pdfrwt beam="2">  1       -2 0.37747889E-01 0.74753454E+03</pdfrwt>
<totfact> 0.24098468E+01</totfact>
</mgrwt>
</event>
<event>
 4    2  0.6914693E-007  0.6673903E+03  0.7818608E-02  0.1017607E+00
          2   -1    0    0  501    0  0.00000000000E+00  0.00000000000E+00  0.48997872186E+03  0.48997872187E+03  0.25500000000E-02 0. -1.
         -2   -1    0    0    0  501 -0.00000000000E+00 -0.00000000000E+00 -0.21350900658E+04  0.21350900658E+04  0.25500000000E-02 0.  1.
    8880023    1    1    2    0    0  0.40708240652E+01 -0.10762451535E+03 -0.20624406385E+04  0.21677341169E+04  0.65864270000E+03 0.  1.
    8880022    1    1    2    0    0 -0.40708240652E+01  0.10762451535E+03  0.41732929460E+03  0.45733467074E+03  0.15294330000E+03 0.  0.
<mgrwt>
<rscale>  0 0.48560133E+03</rscale>
<asrwt>0</asrwt>
<pdfrwt beam="1">  1        2 0.75381343E-01 0.66739030E+03</pdfrwt>
<pdfrwt beam="2">  1       -2 0.32847539E+00 0.66739030E+03</pdfrwt>
<totfact> 0.14237478E+00</totfact>
</mgrwt>
</event>
<event>
 4    2  0.6914693E-007  0.8430303E+03  0.7818608E-02  0.9624493E-01
          2   -1    0    0  501    0  0.00000000000E+00  0.00000000000E+00  0.14428899038E+04  0.14428899038E+04  0.25500000000E-02 0. -1.
         -2   -1    0    0    0  501 -0.00000000000E+00 -0.00000000000E+00 -0.70414421102E+03  0.70414421102E+03  0.25500000000E-02 0.  1.
    8880023    1    1    2    0    0  0.15605358446E+03 -0.50253069986E+03 -0.36197318862E+03  0.91745551449E+03  0.65864270000E+03 0.  1.
    8880022    1    1    2    0    0 -0.15605358446E+03  0.50253069986E+03  0.11007188814E+04  0.12295786004E+04  0.15294330000E+03 0.  0.
<mgrwt>
<rscale>  0 0.75696089E+03</rscale>
<asrwt>0</asrwt>
<pdfrwt beam="1">  1        2 0.22198306E+00 0.84303027E+03</pdfrwt>
<pdfrwt beam="2">  1       -2 0.10832988E+00 0.84303027E+03</pdfrwt>
<totfact> 0.94339929E+00</totfact>
</mgrwt>
</event>
<event>
 4    2  0.6914693E-007  0.6835493E+03  0.7818608E-02  0.1007383E+00
          2   -1    0    0  501    0  0.00000000000E+00  0.00000000000E+00  0.10656253348E+04  0.10656253348E+04  0.25500000000E-02 0. -1.
         -2   -1    0    0    0  501 -0.00000000000E+00 -0.00000000000E+00 -0.32624013588E+03  0.32624013589E+03  0.25500000000E-02 0.  1.
    8880023    1    1    2    0    0 -0.25271000193E+01 -0.18281970939E+03  0.76973610830E+02  0.68786959186E+03  0.65864270000E+03 0.  1.
    8880022    1    1    2    0    0  0.25271000193E+01  0.18281970939E+03  0.66241158810E+03  0.70399587885E+03  0.15294330000E+03 0.  0.
<mgrwt>
<rscale>  0 0.52528025E+03</rscale>
<asrwt>0</asrwt>
<pdfrwt beam="1">  1        2 0.16394236E+00 0.68354929E+03</pdfrwt>
<pdfrwt beam="2">  1       -2 0.50190790E-01 0.68354929E+03</pdfrwt>
<totfact> 0.87661754E+01</totfact>
</mgrwt>
</event>
<event>
 4    2  0.6914693E-007  0.7370043E+03  0.7818608E-02  0.9868761E-01
          2   -1    0    0  501    0  0.00000000000E+00  0.00000000000E+00  0.63260674034E+03  0.63260674035E+03  0.25500000000E-02 0. -1.
         -2   -1    0    0    0  501 -0.00000000000E+00 -0.00000000000E+00 -0.77489629421E+03  0.77489629421E+03  0.25500000000E-02 0.  1.
    8880023    1    1    2    0    0  0.67490954793E+01  0.33063509243E+03 -0.50497332033E+03  0.89340549312E+03  0.65864270000E+03 0.  1.
    8880022    1    1    2    0    0 -0.67490954793E+01 -0.33063509243E+03  0.36268376646E+03  0.51409754143E+03  0.15294330000E+03 0.  0.
<mgrwt>
<rscale>  0 0.61799448E+03</rscale>
<asrwt>0</asrwt>
<pdfrwt beam="1">  1        2 0.97324114E-01 0.73700429E+03</pdfrwt>
<pdfrwt beam="2">  1       -2 0.11921481E+00 0.73700429E+03</pdfrwt>
<totfact> 0.25453144E+01</totfact>
</mgrwt>
</event>
<event>
 4    2  0.6914693E-007  0.7917719E+03  0.7818608E-02  0.9728878E-01
          2   -1    0    0  501    0  0.00000000000E+00  0.00000000000E+00  0.75131917202E+03  0.75131917203E+03  0.25500000000E-02 0. -1.
         -2   -1    0    0    0  501 -0.00000000000E+00 -0.00000000000E+00 -0.74430981774E+03  0.74430981774E+03  0.25500000000E-02 0.  1.
    8880023    1    1    2    0    0 -0.43639954675E+03  0.51458460027E+02 -0.39126359431E+03  0.88317039353E+03  0.65864270000E+03 0.  1.
    8880022    1    1    2    0    0  0.43639954675E+03 -0.51458460027E+02  0.39827294859E+03  0.61245859624E+03  0.15294330000E+03 0.  0.
<mgrwt>
<rscale>  0 0.69323158E+03</rscale>
<asrwt>0</asrwt>
<pdfrwt beam="1">  1        2 0.11558756E+00 0.79177190E+03</pdfrwt>
<pdfrwt beam="2">  1       -2 0.11450920E+00 0.79177190E+03</pdfrwt>
<totfact> 0.22521495E+01</totfact>
</mgrwt>
</event>
<event>
 4    2  0.6914693E-007  0.6634954E+03  0.7818608E-02  0.1020831E+00
          2   -1    0    0  501    0  0.00000000000E+00  0.00000000000E+00  0.95086028156E+03  0.95086028157E+03  0.25500000000E-02 0. -1.
         -2   -1    0    0    0  501 -0.00000000000E+00 -0.00000000000E+00 -0.36533453627E+03  0.36533453628E+03  0.25500000000E-02 0.  1.
    8880023    1    1    2    0    0 -0.62037464469E+02  0.50668334528E+02 -0.42514509541E+02  0.66485608737E+03  0.65864270000E+03 0.  1.
    8880022    1    1    2    0    0  0.62037464469E+02 -0.50668334528E+02  0.62804025483E+03  0.65133873048E+03  0.15294330000E+03 0.  0.
<mgrwt>
<rscale>  0 0.47388097E+03</rscale>
<asrwt>0</asrwt>
<pdfrwt beam="1">  1        2 0.14628620E+00 0.66349539E+03</pdfrwt>
<pdfrwt beam="2">  1       -2 0.56205314E-01 0.66349539E+03</pdfrwt>
<totfact> 0.82257440E+01</totfact>
</mgrwt>
</event>
<event>
 4    2  0.6914693E-007  0.1394192E+04  0.7818608E-02  0.8988209E-01
         -2   -1    0    0    0  501 -0.00000000000E+00  0.00000000000E+00  0.12715871956E+04  0.12715871956E+04  0.25500000000E-02 0.  1.
          2   -1    0    0  501    0  0.00000000000E+00 -0.00000000000E+00 -0.16062394806E+04  0.16062394806E+04  0.25500000000E-02 0. -1.
    8880023    1    1    2    0    0  0.11776899293E+04 -0.35072421697E+03  0.38400256938E+03  0.14461083035E+04  0.65864270000E+03 0.  0.
    8880022    1    1    2    0    0 -0.11776899293E+04  0.35072421697E+03 -0.71865485439E+03  0.14317183727E+04  0.15294330000E+03 0.  0.
<mgrwt>
<rscale>  0 0.13534655E+04</rscale>
<asrwt>0</asrwt>
<pdfrwt beam="1">  1        2 0.24711377E+00 0.13941920E+04</pdfrwt>
<pdfrwt beam="2">  1       -2 0.19562880E+00 0.13941920E+04</pdfrwt>
<totfact> 0.14952873E+00</totfact>
</mgrwt>
</event>
<event>
 4    2  0.6914693E-007  0.8800926E+03  0.7818608E-02  0.9558776E-01
         -2   -1    0    0    0  501 -0.00000000000E+00  0.00000000000E+00  0.58615853093E+03  0.58615853094E+03  0.25500000000E-02 0.  1.
          2   -1    0    0  501    0  0.00000000000E+00 -0.00000000000E+00 -0.21831360166E+04  0.21831360167E+04  0.25500000000E-02 0. -1.
    8880023    1    1    2    0    0  0.25107638672E+03 -0.52698521207E+03  0.17505383047E+03  0.89733316864E+03  0.65864270000E+03 0.  0.
    8880022    1    1    2    0    0 -0.25107638672E+03  0.52698521207E+03 -0.17720313162E+04  0.18719613790E+04  0.15294330000E+03 0.  0.
<mgrwt>
<rscale>  0 0.80085793E+03</rscale>
<asrwt>0</asrwt>
<pdfrwt beam="1">  1        2 0.33586708E+00 0.88009259E+03</pdfrwt>
<pdfrwt beam="2">  1       -2 0.90178236E-01 0.88009259E+03</pdfrwt>
<totfact> 0.56631377E+00</totfact>
</mgrwt>
</event>
<event>
 4    2  0.6914693E-007  0.8374090E+03  0.7818608E-02  0.9635085E-01
         -2   -1    0    0    0  501 -0.00000000000E+00  0.00000000000E+00  0.60985488755E+03  0.60985488756E+03  0.25500000000E-02 0.  1.
          2   -1    0    0  501    0  0.00000000000E+00 -0.00000000000E+00 -0.16782690312E+04  0.16782690312E+04  0.25500000000E-02 0. -1.
    8880023    1    1    2    0    0 -0.37397696927E+03  0.35719027546E+03  0.24150267921E+03  0.87153738689E+03  0.65864270000E+03 0.  0.
    8880022    1    1    2    0    0  0.37397696927E+03 -0.35719027546E+03 -0.13099168228E+04  0.14165865318E+04  0.15294330000E+03 0.  0.
<mgrwt>
<rscale>  0 0.75016901E+03</rscale>
<asrwt>0</asrwt>
<pdfrwt beam="1">  1        2 0.25819523E+00 0.83740902E+03</pdfrwt>
<pdfrwt beam="2">  1       -2 0.93823829E-01 0.83740902E+03</pdfrwt>
<totfact> 0.98328046E+00</totfact>
</mgrwt>
</event>
<event>
 4    2  0.6914693E-007  0.1168272E+04  0.7818608E-02  0.9188599E-01
         -2   -1    0    0    0  501 -0.00000000000E+00  0.00000000000E+00  0.79634931406E+03  0.79634931407E+03  0.25500000000E-02 0.  1.
          2   -1    0    0  501    0  0.00000000000E+00 -0.00000000000E+00 -0.14559270705E+04  0.14559270705E+04  0.25500000000E-02 0. -1.
    8880023    1    1    2    0    0 -0.68819388097E+02 -0.96245157010E+03 -0.26054949957E+03  0.11969734253E+04  0.65864270000E+03 0.  1.
    8880022    1    1    2    0    0  0.68819388097E+02  0.96245157010E+03 -0.39902825685E+03  0.10553029592E+04  0.15294330000E+03 0.  1.
<mgrwt>
<rscale>  0 0.11171888E+04</rscale>
<asrwt>0</asrwt>
<pdfrwt beam="1">  1        2 0.22398878E+00 0.11682719E+04</pdfrwt>
<pdfrwt beam="2">  1       -2 0.12251528E+00 0.11682719E+04</pdfrwt>
<totfact> 0.66270545E+00</totfact>
</mgrwt>
</event>
<event>
 4    2  0.6914693E-007  0.8157979E+03  0.7818608E-02  0.9677624E-01
          2   -1    0    0  501    0  0.00000000000E+00  0.00000000000E+00  0.81461156327E+03  0.81461156327E+03  0.25500000000E-02 0. -1.
         -2   -1    0    0    0  501 -0.00000000000E+00 -0.00000000000E+00 -0.11319572181E+04  0.11319572181E+04  0.25500000000E-02 0.  1.
    8880023    1    1    2    0    0 -0.41674671957E+03 -0.24091099522E+03 -0.87355603192E+03  0.11952515564E+04  0.65864270000E+03 0.  0.
    8880022    1    1    2    0    0  0.41674671957E+03  0.24091099522E+03  0.55621037711E+03  0.75131722495E+03  0.15294330000E+03 0.  0.
<mgrwt>
<rscale>  0 0.72364796E+03</rscale>
<asrwt>0</asrwt>
<pdfrwt beam="1">  1        2 0.12532486E+00 0.81579786E+03</pdfrwt>
<pdfrwt beam="2">  1       -2 0.17414726E+00 0.81579786E+03</pdfrwt>
<totfact> 0.67691643E+00</totfact>
</mgrwt>
</event>
<event>
 4    2  0.6914693E-007  0.9625783E+03  0.7818608E-02  0.9432243E-01
          2   -1    0    0  501    0  0.00000000000E+00  0.00000000000E+00  0.18527313467E+04  0.18527313467E+04  0.25500000000E-02 0. -1.
         -2   -1    0    0    0  501 -0.00000000000E+00 -0.00000000000E+00 -0.38147370382E+03  0.38147370383E+03  0.25500000000E-02 0.  1.
    8880023    1    1    2    0    0  0.22251869494E+03 -0.66575687377E+03  0.81879711912E+03  0.12637190009E+04  0.65864270000E+03 0. -1.
    8880022    1    1    2    0    0 -0.22251869494E+03  0.66575687377E+03  0.65246052379E+03  0.97048604971E+03  0.15294330000E+03 0.  1.
<mgrwt>
<rscale>  0 0.89469050E+03</rscale>
<asrwt>0</asrwt>
<pdfrwt beam="1">  1        2 0.28503560E+00 0.96257830E+03</pdfrwt>
<pdfrwt beam="2">  1       -2 0.58688261E-01 0.96257830E+03</pdfrwt>
<totfact> 0.22013427E+01</totfact>
</mgrwt>
</event>
<event>
 4    2  0.6914693E-007  0.6758864E+03  0.7818608E-02  0.1011753E+00
          2   -1    0    0  501    0  0.00000000000E+00  0.00000000000E+00  0.70315815051E+03  0.70315815051E+03  0.25500000000E-02 0. -1.
         -2   -1    0    0    0  501 -0.00000000000E+00 -0.00000000000E+00 -0.10761816788E+04  0.10761816788E+04  0.25500000000E-02 0.  1.
    8880023    1    1    2    0    0 -0.83735319299E+02  0.12649330611E+03 -0.94860793904E+03  0.11647658084E+04  0.65864270000E+03 0.  0.
    8880022    1    1    2    0    0  0.83735319299E+02 -0.12649330611E+03  0.57558441077E+03  0.61457402087E+03  0.15294330000E+03 0. -1.
<mgrwt>
<rscale>  0 0.50783715E+03</rscale>
<asrwt>0</asrwt>
<pdfrwt beam="1">  1        2 0.10817818E+00 0.67588636E+03</pdfrwt>
<pdfrwt beam="2">  1       -2 0.16556641E+00 0.67588636E+03</pdfrwt>
<totfact> 0.95816997E+00</totfact>
</mgrwt>
</event>
<event>
 4    2  0.6914693E-007  0.1172245E+04  0.7818608E-02  0.9184585E-01
         -2   -1    0    0    0  501 -0.00000000000E+00  0.00000000000E+00  0.60674411130E+03  0.60674411131E+03  0.25500000000E-02 0.  1.
          2   -1    0    0  501    0  0.00000000000E+00 -0.00000000000E+00 -0.27776988103E+04  0.27776988103E+04  0.25500000000E-02 0. -1.
    8880023    1    1    2    0    0 -0.93802578239E+03  0.24587990909E+03 -0.20920155220E+03  0.11907664733E+04  0.65864270000E+03 0.  0.
    8880022    1    1    2    0    0  0.93802578239E+03 -0.24587990909E+03 -0.19617531468E+04  0.21936764484E+04  0.15294330000E+03 0.  0.
<mgrwt>
<rscale>  0 0.11213959E+04</rscale>
<asrwt>0</asrwt>
<pdfrwt beam="1">  1        2 0.42733827E+00 0.11722455E+04</pdfrwt>
<pdfrwt beam="2">  1       -2 0.93345250E-01 0.11722455E+04</pdfrwt>
<totfact> 0.22963024E+00</totfact>
</mgrwt>
</event>
<event>
 4    2  0.6914693E-007  0.6617612E+03  0.7818608E-02  0.1022420E+00
         -2   -1    0    0    0  501 -0.00000000000E+00  0.00000000000E+00  0.26554975803E+03  0.26554975804E+03  0.25500000000E-02 0.  1.
          2   -1    0    0  501    0  0.00000000000E+00 -0.00000000000E+00 -0.21537317064E+04  0.21537317064E+04  0.25500000000E-02 0. -1.
    8880023    1    1    2    0    0  0.46994979196E+02 -0.43693670469E+02 -0.15694457068E+03  0.68011724683E+03  0.65864270000E+03 0.  1.
    8880022    1    1    2    0    0 -0.46994979196E+02  0.43693670469E+02 -0.17312373777E+04  0.17391642176E+04  0.15294330000E+03 0.  0.
<mgrwt>
<rscale>  0 0.46823185E+03</rscale>
<asrwt>0</asrwt>
<pdfrwt beam="1">  1        2 0.33134333E+00 0.66176119E+03</pdfrwt>
<pdfrwt beam="2">  1       -2 0.40853810E-01 0.66176119E+03</pdfrwt>
<totfact> 0.32613318E+01</totfact>
</mgrwt>
</event>
<event>
 4    2  0.6914693E-007  0.8582539E+03  0.7818608E-02  0.9596677E-01
          2   -1    0    0  501    0  0.00000000000E+00  0.00000000000E+00  0.22868796439E+04  0.22868796440E+04  0.25500000000E-02 0. -1.
         -2   -1    0    0    0  501 -0.00000000000E+00 -0.00000000000E+00 -0.75760588574E+03  0.75760588575E+03  0.25500000000E-02 0.  1.
    8880023    1    1    2    0    0  0.26370284345E+03 -0.48295994682E+03 -0.46076333180E+03  0.97411629391E+03  0.65864270000E+03 0.  1.
    8880022    1    1    2    0    0 -0.26370284345E+03  0.48295994682E+03  0.19900370900E+04  0.20703692358E+04  0.15294330000E+03 0.  0.
<mgrwt>
<rscale>  0 0.77516505E+03</rscale>
<asrwt>0</asrwt>
<pdfrwt beam="1">  1        2 0.35182764E+00 0.85825387E+03</pdfrwt>
<pdfrwt beam="2">  1       -2 0.11655475E+00 0.85825387E+03</pdfrwt>
<totfact> 0.26969006E+00</totfact>
</mgrwt>
</event>
<event>
 4    2  0.6914693E-007  0.7320481E+03  0.7818608E-02  0.9883747E-01
          2   -1    0    0  501    0  0.00000000000E+00  0.00000000000E+00  0.21429151328E+04  0.21429151328E+04  0.25500000000E-02 0. -1.
         -2   -1    0    0    0  501 -0.00000000000E+00 -0.00000000000E+00 -0.29437117567E+03  0.29437117568E+03  0.25500000000E-02 0.  1.
    8880023    1    1    2    0    0  0.17028631163E+03 -0.27034560962E+03  0.21097406608E+03  0.76184279178E+03  0.65864270000E+03 0.  1.
    8880022    1    1    2    0    0 -0.17028631163E+03  0.27034560962E+03  0.16375698910E+04  0.16754435167E+04  0.15294330000E+03 0.  0.
<mgrwt>
<rscale>  0 0.61055489E+03</rscale>
<asrwt>0</asrwt>
<pdfrwt beam="1">  1        2 0.32967925E+00 0.73204807E+03</pdfrwt>
<pdfrwt beam="2">  1       -2 0.45287874E-01 0.73204807E+03</pdfrwt>
<totfact> 0.26698350E+01</totfact>
</mgrwt>
</event>
<event>
 4    2  0.6914693E-007  0.7528616E+03  0.7818608E-02  0.9823951E-01
          2   -1    0    0  501    0  0.00000000000E+00  0.00000000000E+00  0.14841644339E+04  0.14841644339E+04  0.25500000000E-02 0. -1.
         -2   -1    0    0    0  501 -0.00000000000E+00 -0.00000000000E+00 -0.28319550105E+03  0.28319550107E+03  0.25500000000E-02 0.  1.
    8880023    1    1    2    0    0  0.17417856908E+03  0.32039384692E+03  0.35257771294E+03  0.83133124625E+03  0.65864270000E+03 0.  0.
    8880022    1    1    2    0    0 -0.17417856908E+03 -0.32039384692E+03  0.84839121989E+03  0.93602868870E+03  0.15294330000E+03 0.  0.
<mgrwt>
<rscale>  0 0.64092871E+03</rscale>
<asrwt>0</asrwt>
<pdfrwt beam="1">  1        2 0.22833299E+00 0.75286161E+03</pdfrwt>
<pdfrwt beam="2">  1       -2 0.43568539E-01 0.75286161E+03</pdfrwt>
<totfact> 0.66027692E+01</totfact>
</mgrwt>
</event>
<event>
 4    2  0.6914693E-007  0.6776092E+03  0.7818608E-02  0.1010710E+00
         -2   -1    0    0    0  501 -0.00000000000E+00  0.00000000000E+00  0.30361613403E+03  0.30361613404E+03  0.25500000000E-02 0.  1.
          2   -1    0    0  501    0  0.00000000000E+00 -0.00000000000E+00 -0.22004774522E+04  0.22004774522E+04  0.25500000000E-02 0. -1.
    8880023    1    1    2    0    0 -0.12063510422E+03 -0.10388058301E+03 -0.89725951588E+02  0.68352392537E+03  0.65864270000E+03 0.  1.
    8880022    1    1    2    0    0  0.12063510422E+03  0.10388058301E+03 -0.18071353666E+04  0.18205696609E+04  0.15294330000E+03 0.  0.
<mgrwt>
<rscale>  0 0.51193558E+03</rscale>
<asrwt>0</asrwt>
<pdfrwt beam="1">  1        2 0.33853498E+00 0.67760919E+03</pdfrwt>
<pdfrwt beam="2">  1       -2 0.46710176E-01 0.67760919E+03</pdfrwt>
<totfact> 0.23525273E+01</totfact>
</mgrwt>
</event>
<event>
 4    2  0.6914693E-007  0.6792458E+03  0.7818608E-02  0.1009754E+00
          2   -1    0    0  501    0  0.00000000000E+00  0.00000000000E+00  0.61944013736E+03  0.61944013736E+03  0.25500000000E-02 0. -1.
         -2   -1    0    0    0  501 -0.00000000000E+00 -0.00000000000E+00 -0.93167385099E+03  0.93167385100E+03  0.25500000000E-02 0.  1.
    8880023    1    1    2    0    0  0.96833098756E+02 -0.13486270820E+03 -0.77844575413E+03  0.10331275804E+04  0.65864270000E+03 0.  0.
    8880022    1    1    2    0    0 -0.96833098756E+02  0.13486270820E+03  0.46621204049E+03  0.51798640792E+03  0.15294330000E+03 0. -1.
<mgrwt>
<rscale>  0 0.51572702E+03</rscale>
<asrwt>0</asrwt>
<pdfrwt beam="1">  1        2 0.95298482E-01 0.67924576E+03</pdfrwt>
<pdfrwt beam="2">  1       -2 0.14333444E+00 0.67924576E+03</pdfrwt>
<totfact> 0.16458276E+01</totfact>
</mgrwt>
</event>
<event>
 4    2  0.6914693E-007  0.7160675E+03  0.7818608E-02  0.9936124E-01
          2   -1    0    0  501    0  0.00000000000E+00  0.00000000000E+00  0.21083752611E+04  0.21083752611E+04  0.25500000000E-02 0. -1.
         -2   -1    0    0    0  501 -0.00000000000E+00 -0.00000000000E+00 -0.27432562887E+03  0.27432562888E+03  0.25500000000E-02 0.  1.
    8880023    1    1    2    0    0 -0.31983973489E+02 -0.27914064973E+03  0.23751221589E+03  0.75443007353E+03  0.65864270000E+03 0.  1.
    8880022    1    1    2    0    0  0.31983973489E+02  0.27914064973E+03  0.15965374163E+04  0.16282708164E+04  0.15294330000E+03 0.  0.
<mgrwt>
<rscale>  0 0.58542065E+03</rscale>
<asrwt>0</asrwt>
<pdfrwt beam="1">  1        2 0.32436543E+00 0.71606751E+03</pdfrwt>
<pdfrwt beam="2">  1       -2 0.42203942E-01 0.71606751E+03</pdfrwt>
<totfact> 0.32142805E+01</totfact>
</mgrwt>
</event>
<event>
 4    2  0.6914693E-007  0.7146759E+03  0.7818608E-02  0.9941030E-01
         -2   -1    0    0    0  501 -0.00000000000E+00  0.00000000000E+00  0.56844485396E+03  0.56844485396E+03  0.25500000000E-02 0.  1.
          2   -1    0    0  501    0  0.00000000000E+00 -0.00000000000E+00 -0.12851105419E+04  0.12851105419E+04  0.25500000000E-02 0. -1.
    8880023    1    1    2    0    0  0.98581971850E+02 -0.25929346475E+03  0.31008771399E+03  0.77904820304E+03  0.65864270000E+03 0.  0.
    8880022    1    1    2    0    0 -0.98581971850E+02  0.25929346475E+03 -0.10267534019E+04  0.10745071928E+04  0.15294330000E+03 0.  0.
<mgrwt>
<rscale>  0 0.58313331E+03</rscale>
<asrwt>0</asrwt>
<pdfrwt beam="1">  1        2 0.19770931E+00 0.71467595E+03</pdfrwt>
<pdfrwt beam="2">  1       -2 0.87453055E-01 0.71467595E+03</pdfrwt>
<totfact> 0.19511783E+01</totfact>
</mgrwt>
</event>
<event>
 4    2  0.6914693E-007  0.7024985E+03  0.7818608E-02  0.9986990E-01
          2   -1    0    0  501    0  0.00000000000E+00  0.00000000000E+00  0.65474883693E+03  0.65474883693E+03  0.25500000000E-02 0. -1.
         -2   -1    0    0    0  501 -0.00000000000E+00 -0.00000000000E+00 -0.46543748134E+03  0.46543748134E+03  0.25500000000E-02 0.  1.
    8880023    1    1    2    0    0  0.24328875456E+03 -0.22461566294E+02 -0.10259274491E+03  0.70995029236E+03  0.65864270000E+03 0.  1.
    8880022    1    1    2    0    0 -0.24328875456E+03  0.22461566294E+02  0.29190410050E+03  0.41023602591E+03  0.15294330000E+03 0. -1.
<mgrwt>
<rscale>  0 0.56224392E+03</rscale>
<asrwt>0</asrwt>
<pdfrwt beam="1">  1        2 0.10073059E+00 0.70249850E+03</pdfrwt>
<pdfrwt beam="2">  1       -2 0.71605766E-01 0.70249850E+03</pdfrwt>
<totfact> 0.80015795E+01</totfact>
</mgrwt>
</event>
<event>
 4    2  0.6914693E-007  0.7425617E+03  0.7818608E-02  0.9852547E-01
         -2   -1    0    0    0  501 -0.00000000000E+00  0.00000000000E+00  0.11345589127E+03  0.11345589130E+03  0.25500000000E-02 0.  1.
          2   -1    0    0  501    0  0.00000000000E+00 -0.00000000000E+00 -0.28696414135E+04  0.28696414135E+04  0.25500000000E-02 0. -1.
    8880023    1    1    2    0    0  0.99120117271E+02 -0.32827257427E+03 -0.15293464195E+04  0.17000877500E+04  0.65864270000E+03 0.  1.
    8880022    1    1    2    0    0 -0.99120117271E+02  0.32827257427E+03 -0.12268391028E+04  0.12830095548E+04  0.15294330000E+03 0.  0.
<mgrwt>
<rscale>  0 0.62617229E+03</rscale>
<asrwt>0</asrwt>
<pdfrwt beam="1">  1        2 0.44148324E+00 0.74256171E+03</pdfrwt>
<pdfrwt beam="2">  1       -2 0.17454755E-01 0.74256171E+03</pdfrwt>
<totfact> 0.59655818E+01</totfact>
</mgrwt>
</event>
<event>
 4    2  0.6914693E-007  0.9468584E+03  0.7818608E-02  0.9454649E-01
          2   -1    0    0  501    0  0.00000000000E+00  0.00000000000E+00  0.22422085421E+04  0.22422085421E+04  0.25500000000E-02 0. -1.
         -2   -1    0    0    0  501 -0.00000000000E+00 -0.00000000000E+00 -0.34977437159E+03  0.34977437160E+03  0.25500000000E-02 0.  1.
    8880023    1    1    2    0    0  0.43564950290E+03 -0.52243667367E+03  0.59274649126E+03  0.11170896009E+04  0.65864270000E+03 0.  1.
    8880022    1    1    2    0    0 -0.43564950290E+03  0.52243667367E+03  0.12996876792E+04  0.14748933127E+04  0.15294330000E+03 0.  0.
<mgrwt>
<rscale>  0 0.87711583E+03</rscale>
<asrwt>0</asrwt>
<pdfrwt beam="1">  1        2 0.34495516E+00 0.94685837E+03</pdfrwt>
<pdfrwt beam="2">  1       -2 0.53811441E-01 0.94685837E+03</pdfrwt>
<totfact> 0.16119991E+01</totfact>
</mgrwt>
</event>
<event>
 4    2  0.7399591E-007  0.8097461E+03  0.7818608E-02  0.9690106E-01
         -2   -1    0    0    0  501 -0.00000000000E+00  0.00000000000E+00  0.90600708672E+03  0.90600708673E+03  0.25500000000E-02 0.  1.
          2   -1    0    0  501    0  0.00000000000E+00 -0.00000000000E+00 -0.22954886607E+04  0.22954886607E+04  0.25500000000E-02 0. -1.
    8880023    1    1    2    0    0  0.78310639839E+02  0.46448463843E+03  0.68999878621E+03  0.10638548148E+04  0.65864270000E+03 0.  1.
    8880022    1    1    2    0    0 -0.78310639839E+02 -0.46448463843E+03 -0.20794803602E+04  0.21376409327E+04  0.15294330000E+03 0.  0.
<mgrwt>
<rscale>  0 0.71608940E+03</rscale>
<asrwt>0</asrwt>
<pdfrwt beam="1">  1        2 0.35315210E+00 0.80974610E+03</pdfrwt>
<pdfrwt beam="2">  1       -2 0.13938571E+00 0.80974610E+03</pdfrwt>
<totfact> 0.17126725E+00</totfact>
</mgrwt>
</event>
<event>
 4    2  0.6914693E-007  0.9806399E+03  0.7818608E-02  0.9407337E-01
         -2   -1    0    0    0  501 -0.00000000000E+00  0.00000000000E+00  0.70157191467E+03  0.70157191467E+03  0.25500000000E-02 0.  1.
          2   -1    0    0  501    0  0.00000000000E+00 -0.00000000000E+00 -0.26423654476E+04  0.26423654476E+04  0.25500000000E-02 0. -1.
    8880023    1    1    2    0    0 -0.27018384016E+03  0.67442210983E+03  0.26560294251E+03  0.10159722531E+04  0.65864270000E+03 0.  1.
    8880022    1    1    2    0    0  0.27018384016E+03 -0.67442210983E+03 -0.22063964755E+04  0.23279651092E+04  0.15294330000E+03 0.  0.
<mgrwt>
<rscale>  0 0.91474363E+03</rscale>
<asrwt>0</asrwt>
<pdfrwt beam="1">  1        2 0.40651775E+00 0.98063994E+03</pdfrwt>
<pdfrwt beam="2">  1       -2 0.10793414E+00 0.98063994E+03</pdfrwt>
<totfact> 0.20035875E+00</totfact>
</mgrwt>
</event>
<event>
 4    2  0.6914693E-007  0.1058631E+04  0.7818608E-02  0.9308577E-01
         -2   -1    0    0    0  501 -0.00000000000E+00  0.00000000000E+00  0.10579350622E+04  0.10579350622E+04  0.25500000000E-02 0.  1.
          2   -1    0    0  501    0  0.00000000000E+00 -0.00000000000E+00 -0.99084679092E+03  0.99084679093E+03  0.25500000000E-02 0. -1.
    8880023    1    1    2    0    0  0.79930272298E+03 -0.21910048511E+03  0.41492426558E+03  0.11370409922E+04  0.65864270000E+03 0.  0.
    8880022    1    1    2    0    0 -0.79930272298E+03  0.21910048511E+03 -0.34783599430E+03  0.91174086093E+03  0.15294330000E+03 0.  0.
<mgrwt>
<rscale>  0 0.99997085E+03</rscale>
<asrwt>0</asrwt>
<pdfrwt beam="1">  1        2 0.15243797E+00 0.10586312E+04</pdfrwt>
<pdfrwt beam="2">  1       -2 0.16275924E+00 0.10586312E+04</pdfrwt>
<totfact> 0.60499362E+00</totfact>
</mgrwt>
</event>
<event>
 4    2  0.6914693E-007  0.7095869E+03  0.7818608E-02  0.9959538E-01
          2   -1    0    0  501    0  0.00000000000E+00  0.00000000000E+00  0.10308319779E+04  0.10308319779E+04  0.25500000000E-02 0. -1.
         -2   -1    0    0    0  501 -0.00000000000E+00 -0.00000000000E+00 -0.41985613763E+03  0.41985613764E+03  0.25500000000E-02 0.  1.
    8880023    1    1    2    0    0 -0.12749651188E+03 -0.23118812461E+03 -0.61484099190E+02  0.71224561088E+03  0.65864270000E+03 0.  1.
    8880022    1    1    2    0    0  0.12749651188E+03  0.23118812461E+03  0.67245993946E+03  0.73844250467E+03  0.15294330000E+03 0.  0.
<mgrwt>
<rscale>  0 0.57460572E+03</rscale>
<asrwt>0</asrwt>
<pdfrwt beam="1">  1        2 0.15858954E+00 0.70958686E+03</pdfrwt>
<pdfrwt beam="2">  1       -2 0.64593252E-01 0.70958686E+03</pdfrwt>
<totfact> 0.54292162E+01</totfact>
</mgrwt>
</event>
<event>
 4    2  0.6914693E-007  0.7019585E+03  0.7818608E-02  0.9989171E-01
         -2   -1    0    0    0  501 -0.00000000000E+00  0.00000000000E+00  0.36488882235E+03  0.36488882236E+03  0.25500000000E-02 0.  1.
          2   -1    0    0  501    0  0.00000000000E+00 -0.00000000000E+00 -0.78468168351E+03  0.78468168352E+03  0.25500000000E-02 0. -1.
    8880023    1    1    2    0    0 -0.95357630109E+02  0.22325437186E+03 -0.82568477523E+02  0.70679795693E+03  0.65864270000E+03 0.  0.
    8880022    1    1    2    0    0  0.95357630109E+02 -0.22325437186E+03 -0.33722438364E+03  0.44277254895E+03  0.15294330000E+03 0.  0.
<mgrwt>
<rscale>  0 0.56127610E+03</rscale>
<asrwt>0</asrwt>
<pdfrwt beam="1">  1        2 0.12072026E+00 0.70195854E+03</pdfrwt>
<pdfrwt beam="2">  1       -2 0.56136742E-01 0.70195854E+03</pdfrwt>
<totfact> 0.10689627E+02</totfact>
</mgrwt>
</event>
<event>
 4    2  0.6914693E-007  0.6628678E+03  0.7818608E-02  0.1021393E+00
          2   -1    0    0  501    0  0.00000000000E+00  0.00000000000E+00  0.84184252559E+03  0.84184252559E+03  0.25500000000E-02 0. -1.
         -2   -1    0    0    0  501 -0.00000000000E+00 -0.00000000000E+00 -0.53210951337E+03  0.53210951338E+03  0.25500000000E-02 0.  1.
    8880023    1    1    2    0    0 -0.44431072314E+02 -0.60078058711E+02 -0.30963433989E+03  0.73161952135E+03  0.65864270000E+03 0.  1.
    8880022    1    1    2    0    0  0.44431072314E+02  0.60078058711E+02  0.61936735210E+03  0.64233251762E+03  0.15294330000E+03 0.  0.
<mgrwt>
<rscale>  0 0.47187111E+03</rscale>
<asrwt>0</asrwt>
<pdfrwt beam="1">  1        2 0.12951423E+00 0.66286778E+03</pdfrwt>
<pdfrwt beam="2">  1       -2 0.81863002E-01 0.66286778E+03</pdfrwt>
<totfact> 0.43134848E+01</totfact>
</mgrwt>
</event>
<event>
 4    2  0.6914693E-007  0.7647148E+03  0.7818608E-02  0.9793051E-01
         -2   -1    0    0    0  501 -0.00000000000E+00  0.00000000000E+00  0.19048994303E+03  0.19048994305E+03  0.25500000000E-02 0.  1.
          2   -1    0    0  501    0  0.00000000000E+00 -0.00000000000E+00 -0.24287585390E+04  0.24287585390E+04  0.25500000000E-02 0. -1.
    8880023    1    1    2    0    0  0.11451144435E+03  0.37130265766E+03 -0.74097180230E+03  0.10648135764E+04  0.65864270000E+03 0.  0.
    8880022    1    1    2    0    0 -0.11451144435E+03 -0.37130265766E+03 -0.14972967937E+04  0.15544349056E+04  0.15294330000E+03 0.  1.
<mgrwt>
<rscale>  0 0.65736815E+03</rscale>
<asrwt>0</asrwt>
<pdfrwt beam="1">  1        2 0.37365514E+00 0.76471481E+03</pdfrwt>
<pdfrwt beam="2">  1       -2 0.29306147E-01 0.76471481E+03</pdfrwt>
<totfact> 0.42530090E+01</totfact>
</mgrwt>
</event>
<event>
 4    2  0.6914693E-007  0.8281507E+03  0.7818608E-02  0.9652941E-01
          2   -1    0    0  501    0  0.00000000000E+00  0.00000000000E+00  0.85706054695E+03  0.85706054695E+03  0.25500000000E-02 0. -1.
         -2   -1    0    0    0  501 -0.00000000000E+00 -0.00000000000E+00 -0.25661351613E+04  0.25661351613E+04  0.25500000000E-02 0.  1.
    8880023    1    1    2    0    0  0.45293657509E+03 -0.21649909473E+03 -0.24095735328E+04  0.25479164459E+04  0.65864270000E+03 0.  1.
    8880022    1    1    2    0    0 -0.45293657509E+03  0.21649909473E+03  0.70049891853E+03  0.87527926227E+03  0.15294330000E+03 0.  0.
<mgrwt>
<rscale>  0 0.73889120E+03</rscale>
<asrwt>0</asrwt>
<pdfrwt beam="1">  1        2 0.13185547E+00 0.82815071E+03</pdfrwt>
<pdfrwt beam="2">  1       -2 0.39479002E+00 0.82815071E+03</pdfrwt>
<totfact> 0.26422443E-01</totfact>
</mgrwt>
</event>
<event>
 4    2  0.6914693E-007  0.6880609E+03  0.7818608E-02  0.1005088E+00
         -2   -1    0    0    0  501 -0.00000000000E+00  0.00000000000E+00  0.81695027626E+02  0.81695027666E+02  0.25500000000E-02 0.  1.
          2   -1    0    0  501    0  0.00000000000E+00 -0.00000000000E+00 -0.29847007801E+04  0.29847007801E+04  0.25500000000E-02 0. -1.
    8880023    1    1    2    0    0  0.19124429322E+03  0.55165932614E+02 -0.16366522292E+04  0.17754037247E+04  0.65864270000E+03 0.  0.
    8880022    1    1    2    0    0 -0.19124429322E+03 -0.55165932614E+02 -0.12663535232E+04  0.12909920831E+04  0.15294330000E+03 0.  0.
<mgrwt>
<rscale>  0 0.53474382E+03</rscale>
<asrwt>0</asrwt>
<pdfrwt beam="1">  1        2 0.45918465E+00 0.68806095E+03</pdfrwt>
<pdfrwt beam="2">  1       -2 0.12568468E-01 0.68806095E+03</pdfrwt>
<totfact> 0.89219072E+01</totfact>
</mgrwt>
</event>
<event>
 4    2  0.6914693E-007  0.7246783E+03  0.7818608E-02  0.9907063E-01
          2   -1    0    0  501    0  0.00000000000E+00  0.00000000000E+00  0.88226874295E+03  0.88226874295E+03  0.25500000000E-02 0. -1.
         -2   -1    0    0    0  501 -0.00000000000E+00 -0.00000000000E+00 -0.36426865394E+03  0.36426865395E+03  0.25500000000E-02 0.  1.
    8880023    1    1    2    0    0 -0.25737431944E+03  0.15845151513E+03  0.13839644776E+03  0.73777517305E+03  0.65864270000E+03 0.  0.
    8880022    1    1    2    0    0  0.25737431944E+03 -0.15845151513E+03  0.37960364125E+03  0.50876222385E+03  0.15294330000E+03 0.  0.
<mgrwt>
<rscale>  0 0.59920211E+03</rscale>
<asrwt>0</asrwt>
<pdfrwt beam="1">  1        2 0.13573365E+00 0.72467829E+03</pdfrwt>
<pdfrwt beam="2">  1       -2 0.56041331E-01 0.72467829E+03</pdfrwt>
<totfact> 0.91479585E+01</totfact>
</mgrwt>
</event>
<event>
 4    2  0.6914693E-007  0.9364248E+03  0.7818608E-02  0.9469921E-01
         -2   -1    0    0    0  501 -0.00000000000E+00  0.00000000000E+00  0.58987200641E+03  0.58987200641E+03  0.25500000000E-02 0.  1.
          2   -1    0    0  501    0  0.00000000000E+00 -0.00000000000E+00 -0.22522710388E+04  0.22522710388E+04  0.25500000000E-02 0. -1.
    8880023    1    1    2    0    0  0.44535788392E+03 -0.49470959563E+03  0.10984749125E+03  0.94284564292E+03  0.65864270000E+03 0.  1.
    8880022    1    1    2    0    0 -0.44535788392E+03  0.49470959563E+03 -0.17722465236E+04  0.18992974023E+04  0.15294330000E+03 0.  0.
<mgrwt>
<rscale>  0 0.86538226E+03</rscale>
<asrwt>0</asrwt>
<pdfrwt beam="1">  1        2 0.34650323E+00 0.93642482E+03</pdfrwt>
<pdfrwt beam="2">  1       -2 0.90749540E-01 0.93642482E+03</pdfrwt>
<totfact> 0.50692408E+00</totfact>
</mgrwt>
</event>
<event>
 4    2  0.6914693E-007  0.8814652E+03  0.7818608E-02  0.9556466E-01
         -2   -1    0    0    0  501 -0.00000000000E+00  0.00000000000E+00  0.10032212615E+04  0.10032212615E+04  0.25500000000E-02 0.  1.
          2   -1    0    0  501    0  0.00000000000E+00 -0.00000000000E+00 -0.61326421623E+03  0.61326421624E+03  0.25500000000E-02 0. -1.
    8880023    1    1    2    0    0 -0.23890286834E+02  0.58532033401E+03  0.48111525187E+03  0.10042174720E+04  0.65864270000E+03 0.  0.
    8880022    1    1    2    0    0  0.23890286834E+02 -0.58532033401E+03 -0.91158206597E+02  0.61226800575E+03  0.15294330000E+03 0.  0.
<mgrwt>
<rscale>  0 0.80245805E+03</rscale>
<asrwt>0</asrwt>
<pdfrwt beam="1">  1        2 0.94348341E-01 0.88146517E+03</pdfrwt>
<pdfrwt beam="2">  1       -2 0.15434173E+00 0.88146517E+03</pdfrwt>
<totfact> 0.13445864E+01</totfact>
</mgrwt>
</event>
<event>
 4    2  0.6914693E-007  0.9129933E+03  0.7818608E-02  0.9505487E-01
          2   -1    0    0  501    0  0.00000000000E+00  0.00000000000E+00  0.27028686627E+04  0.27028686627E+04  0.25500000000E-02 0. -1.
         -2   -1    0    0    0  501 -0.00000000000E+00 -0.00000000000E+00 -0.37944162312E+03  0.37944162312E+03  0.25500000000E-02 0.  1.
    8880023    1    1    2    0    0  0.44932783278E+03  0.44480444987E+03  0.30647867162E+03  0.96306068467E+03  0.65864270000E+03 0.  0.
    8880022    1    1    2    0    0 -0.44932783278E+03 -0.44480444987E+03  0.20169483679E+04  0.21192496011E+04  0.15294330000E+03 0.  0.
<mgrwt>
<rscale>  0 0.83880489E+03</rscale>
<asrwt>0</asrwt>
<pdfrwt beam="1">  1        2 0.41582596E+00 0.91299327E+03</pdfrwt>
<pdfrwt beam="2">  1       -2 0.58375633E-01 0.91299327E+03</pdfrwt>
<totfact> 0.74637094E+00</totfact>
</mgrwt>
</event>
<event>
 4    2  0.6914693E-007  0.6921561E+03  0.7818608E-02  0.1003144E+00
         -2   -1    0    0    0  501 -0.00000000000E+00  0.00000000000E+00  0.19742358844E+03  0.19742358845E+03  0.25500000000E-02 0.  1.
          2   -1    0    0  501    0  0.00000000000E+00 -0.00000000000E+00 -0.32355062768E+04  0.32355062768E+04  0.25500000000E-02 0. -1.
    8880023    1    1    2    0    0 -0.38176143812E+02  0.20931407284E+03 -0.43674707146E+03  0.81843021067E+03  0.65864270000E+03 0.  1.
    8880022    1    1    2    0    0  0.38176143812E+02 -0.20931407284E+03 -0.26013356169E+04  0.26144996546E+04  0.15294330000E+03 0.  0.
<mgrwt>
<rscale>  0 0.54292788E+03</rscale>
<asrwt>0</asrwt>
<pdfrwt beam="1">  1        2 0.49777016E+00 0.69215606E+03</pdfrwt>
<pdfrwt beam="2">  1       -2 0.30372862E-01 0.69215606E+03</pdfrwt>
<totfact> 0.13305969E+01</totfact>
</mgrwt>
</event>
<event>
 4    2  0.6914693E-007  0.7478277E+03  0.7818608E-02  0.9837705E-01
          2   -1    0    0  501    0  0.00000000000E+00  0.00000000000E+00  0.28293719370E+04  0.28293719370E+04  0.25500000000E-02 0. -1.
         -2   -1    0    0    0  501 -0.00000000000E+00 -0.00000000000E+00 -0.18485552471E+03  0.18485552472E+03  0.25500000000E-02 0.  1.
    8880023    1    1    2    0    0  0.35390238910E+03 -0.13754248846E+02  0.67539956485E+03  0.10076759692E+04  0.65864270000E+03 0.  1.
    8880022    1    1    2    0    0 -0.35390238910E+03  0.13754248846E+02  0.19691168475E+04  0.20065514926E+04  0.15294330000E+03 0.  1.
<mgrwt>
<rscale>  0 0.63377726E+03</rscale>
<asrwt>0</asrwt>
<pdfrwt beam="1">  1        2 0.43528798E+00 0.74782771E+03</pdfrwt>
<pdfrwt beam="2">  1       -2 0.28439312E-01 0.74782771E+03</pdfrwt>
<totfact> 0.26461376E+01</totfact>
</mgrwt>
</event>
<event>
 4    2  0.6914693E-007  0.7056809E+03  0.7818608E-02  0.9974403E-01
          2   -1    0    0  501    0  0.00000000000E+00  0.00000000000E+00  0.26417520006E+04  0.26417520006E+04  0.25500000000E-02 0. -1.
         -2   -1    0    0    0  501 -0.00000000000E+00 -0.00000000000E+00 -0.41268100467E+03  0.41268100468E+03  0.25500000000E-02 0.  1.
    8880023    1    1    2    0    0 -0.17918207728E+03 -0.17907843205E+03 -0.94601752321E+02  0.71199367936E+03  0.65864270000E+03 0.  1.
    8880022    1    1    2    0    0  0.17918207728E+03  0.17907843205E+03  0.23236727483E+04  0.23424393260E+04  0.15294330000E+03 0.  0.
<mgrwt>
<rscale>  0 0.56786983E+03</rscale>
<asrwt>0</asrwt>
<pdfrwt beam="1">  1        2 0.40642338E+00 0.70568088E+03</pdfrwt>
<pdfrwt beam="2">  1       -2 0.63489387E-01 0.70568088E+03</pdfrwt>
<totfact> 0.70134511E+00</totfact>
</mgrwt>
</event>
<event>
 4    2  0.6914693E-007  0.8336890E+03  0.7818608E-02  0.9642197E-01
         -2   -1    0    0    0  501 -0.00000000000E+00  0.00000000000E+00  0.91529672531E+03  0.91529672531E+03  0.25500000000E-02 0.  1.
          2   -1    0    0  501    0  0.00000000000E+00 -0.00000000000E+00 -0.12758996002E+04  0.12758996002E+04  0.25500000000E-02 0. -1.
    8880023    1    1    2    0    0 -0.17189513407E+02  0.51081463456E+03  0.64417743296E+03  0.10535662493E+04  0.65864270000E+03 0.  1.
    8880022    1    1    2    0    0  0.17189513407E+02 -0.51081463456E+03 -0.10047803079E+04  0.11376300762E+04  0.15294330000E+03 0.  0.
<mgrwt>
<rscale>  0 0.74565163E+03</rscale>
<asrwt>0</asrwt>
<pdfrwt beam="1">  1        2 0.19629225E+00 0.83368896E+03</pdfrwt>
<pdfrwt beam="2">  1       -2 0.14081488E+00 0.83368896E+03</pdfrwt>
<totfact> 0.61063305E+00</totfact>
</mgrwt>
</event>
<event>
 4    2  0.6914693E-007  0.8059468E+03  0.7818608E-02  0.9698082E-01
         -2   -1    0    0    0  501 -0.00000000000E+00  0.00000000000E+00  0.54250040697E+03  0.54250040697E+03  0.25500000000E-02 0.  1.
          2   -1    0    0  501    0  0.00000000000E+00 -0.00000000000E+00 -0.11766775137E+04  0.11766775137E+04  0.25500000000E-02 0. -1.
    8880023    1    1    2    0    0  0.31685870704E+03 -0.33961830717E+03  0.12555811562E+03  0.81566848747E+03  0.65864270000E+03 0.  1.
    8880022    1    1    2    0    0 -0.31685870704E+03  0.33961830717E+03 -0.75973522234E+03  0.90350943319E+03  0.15294330000E+03 0.  1.
<mgrwt>
<rscale>  0 0.71131083E+03</rscale>
<asrwt>0</asrwt>
<pdfrwt beam="1">  1        2 0.18102731E+00 0.80594680E+03</pdfrwt>
<pdfrwt beam="2">  1       -2 0.83461601E-01 0.80594680E+03</pdfrwt>
<totfact> 0.24882496E+01</totfact>
</mgrwt>
</event>
<event>
 4    2  0.6914693E-007  0.1014110E+04  0.7818608E-02  0.9363326E-01
         -2   -1    0    0    0  501 -0.00000000000E+00  0.00000000000E+00  0.52186407944E+03  0.52186407945E+03  0.25500000000E-02 0.  1.
          2   -1    0    0  501    0  0.00000000000E+00 -0.00000000000E+00 -0.18613940327E+04  0.18613940327E+04  0.25500000000E-02 0. -1.
    8880023    1    1    2    0    0  0.54836081593E+03 -0.54213387790E+03 -0.25836997887E+03  0.10465056035E+04  0.65864270000E+03 0.  0.
    8880022    1    1    2    0    0 -0.54836081593E+03  0.54213387790E+03 -0.10811599744E+04  0.13367525086E+04  0.15294330000E+03 0.  0.
<mgrwt>
<rscale>  0 0.95156260E+03</rscale>
<asrwt>0</asrwt>
<pdfrwt beam="1">  1        2 0.28636831E+00 0.10141099E+04</pdfrwt>
<pdfrwt beam="2">  1       -2 0.80286783E-01 0.10141099E+04</pdfrwt>
<totfact> 0.10926841E+01</totfact>
</mgrwt>
</event>
<event>
 4    2  0.6914693E-007  0.7585800E+03  0.7818608E-02  0.9808798E-01
         -2   -1    0    0    0  501 -0.00000000000E+00  0.00000000000E+00  0.66896783346E+03  0.66896783346E+03  0.25500000000E-02 0.  1.
          2   -1    0    0  501    0  0.00000000000E+00 -0.00000000000E+00 -0.11764149593E+04  0.11764149593E+04  0.25500000000E-02 0. -1.
    8880023    1    1    2    0    0 -0.29104545093E+03  0.23859170257E+03  0.39533396149E+03  0.85541370249E+03  0.65864270000E+03 0.  1.
    8880022    1    1    2    0    0  0.29104545093E+03 -0.23859170257E+03 -0.90278108735E+03  0.98996909030E+03  0.15294330000E+03 0.  0.
<mgrwt>
<rscale>  0 0.64892545E+03</rscale>
<asrwt>0</asrwt>
<pdfrwt beam="1">  1        2 0.18098692E+00 0.75858003E+03</pdfrwt>
<pdfrwt beam="2">  1       -2 0.10291813E+00 0.75858003E+03</pdfrwt>
<totfact> 0.15364211E+01</totfact>
</mgrwt>
</event>
<event>
 4    2  0.6914693E-007  0.9064788E+03  0.7818608E-02  0.9515710E-01
         -2   -1    0    0    0  501 -0.00000000000E+00  0.00000000000E+00  0.49772198065E+03  0.49772198066E+03  0.25500000000E-02 0.  1.
          2   -1    0    0  501    0  0.00000000000E+00 -0.00000000000E+00 -0.13995239956E+04  0.13995239956E+04  0.25500000000E-02 0. -1.
    8880023    1    1    2    0    0 -0.51585335545E+03 -0.34898271499E+03 -0.86799930124E+03  0.12550404826E+04  0.65864270000E+03 0. -1.
    8880022    1    1    2    0    0  0.51585335545E+03  0.34898271499E+03 -0.33802713746E+02  0.64220549372E+03  0.15294330000E+03 0.  0.
<mgrwt>
<rscale>  0 0.83135428E+03</rscale>
<asrwt>0</asrwt>
<pdfrwt beam="1">  1        2 0.21531138E+00 0.90647881E+03</pdfrwt>
<pdfrwt beam="2">  1       -2 0.76572613E-01 0.90647881E+03</pdfrwt>
<totfact> 0.22196046E+01</totfact>
</mgrwt>
</event>
<event>
 4    2  0.6914693E-007  0.1048552E+04  0.7818608E-02  0.9320624E-01
          2   -1    0    0  501    0  0.00000000000E+00  0.00000000000E+00  0.20210978648E+04  0.20210978648E+04  0.25500000000E-02 0. -1.
         -2   -1    0    0    0  501 -0.00000000000E+00 -0.00000000000E+00 -0.93762882795E+03  0.93762882795E+03  0.25500000000E-02 0.  1.
    8880023    1    1    2    0    0 -0.29834378487E+03 -0.75936971415E+03 -0.50698331655E+03  0.11646860806E+04  0.65864270000E+03 0.  0.
    8880022    1    1    2    0    0  0.29834378487E+03  0.75936971415E+03  0.15904523534E+04  0.17940406122E+04  0.15294330000E+03 0.  0.
<mgrwt>
<rscale>  0 0.98906154E+03</rscale>
<asrwt>0</asrwt>
<pdfrwt beam="1">  1        2 0.31093813E+00 0.10485521E+04</pdfrwt>
<pdfrwt beam="2">  1       -2 0.14425059E+00 0.10485521E+04</pdfrwt>
<totfact> 0.21421673E+00</totfact>
</mgrwt>
</event>
<event>
 4    2  0.8396817E-007  0.8424193E+03  0.7818608E-02  0.9625635E-01
         -2   -1    0    0    0  501 -0.00000000000E+00  0.00000000000E+00  0.78430001439E+03  0.78430001440E+03  0.25500000000E-02 0.  1.
          2   -1    0    0  501    0  0.00000000000E+00 -0.00000000000E+00 -0.26901151946E+04  0.26901151946E+04  0.25500000000E-02 0. -1.
    8880023    1    1    2    0    0 -0.42217924636E+03 -0.31244948354E+03  0.51846638180E+03  0.98918026221E+03  0.65864270000E+03 0.  0.
    8880022    1    1    2    0    0  0.42217924636E+03  0.31244948354E+03 -0.24242815621E+04  0.24852349468E+04  0.15294330000E+03 0.  0.
<mgrwt>
<rscale>  0 0.75622457E+03</rscale>
<asrwt>0</asrwt>
<pdfrwt beam="1">  1        2 0.41386387E+00 0.84241926E+03</pdfrwt>
<pdfrwt beam="2">  1       -2 0.12066154E+00 0.84241926E+03</pdfrwt>
<totfact> 0.14636011E+00</totfact>
</mgrwt>
</event>
<event>
 4    2  0.6914693E-007  0.6867921E+03  0.7818608E-02  0.1005716E+00
         -2   -1    0    0    0  501 -0.00000000000E+00  0.00000000000E+00  0.32669615893E+03  0.32669615894E+03  0.25500000000E-02 0.  1.
          2   -1    0    0  501    0  0.00000000000E+00 -0.00000000000E+00 -0.15367851009E+04  0.15367851009E+04  0.25500000000E-02 0. -1.
    8880023    1    1    2    0    0  0.83918077854E+02  0.17558760233E+03 -0.62643509544E+02  0.68964314354E+03  0.65864270000E+03 0.  1.
    8880022    1    1    2    0    0 -0.83918077854E+02 -0.17558760233E+03 -0.11474454324E+04  0.11738381163E+04  0.15294330000E+03 0.  0.
<mgrwt>
<rscale>  0 0.53213333E+03</rscale>
<asrwt>0</asrwt>
<pdfrwt beam="1">  1        2 0.23642847E+00 0.68679215E+03</pdfrwt>
<pdfrwt beam="2">  1       -2 0.50260949E-01 0.68679215E+03</pdfrwt>
<totfact> 0.46662033E+01</totfact>
</mgrwt>
</event>
<event>
 4    2  0.6914693E-007  0.9286386E+03  0.7818608E-02  0.9481538E-01
         -2   -1    0    0    0  501 -0.00000000000E+00  0.00000000000E+00  0.44409250581E+03  0.44409250582E+03  0.25500000000E-02 0.  1.
          2   -1    0    0  501    0  0.00000000000E+00 -0.00000000000E+00 -0.19334277933E+04  0.19334277933E+04  0.25500000000E-02 0. -1.
    8880023    1    1    2    0    0 -0.61342770483E+03  0.22861751812E+03 -0.24056894478E+03  0.95929304287E+03  0.65864270000E+03 0.  1.
    8880022    1    1    2    0    0  0.61342770483E+03 -0.22861751812E+03 -0.12487663427E+04  0.14182272562E+04  0.15294330000E+03 0.  0.
<mgrwt>
<rscale>  0 0.85658705E+03</rscale>
<asrwt>0</asrwt>
<pdfrwt beam="1">  1        2 0.29745043E+00 0.92863864E+03</pdfrwt>
<pdfrwt beam="2">  1       -2 0.68321925E-01 0.92863864E+03</pdfrwt>
<totfact> 0.14403914E+01</totfact>
</mgrwt>
</event>
<event>
 4    2  0.6914693E-007  0.6621440E+03  0.7818608E-02  0.1022060E+00
         -2   -1    0    0    0  501 -0.00000000000E+00  0.00000000000E+00  0.22113104272E+03  0.22113104273E+03  0.25500000000E-02 0.  1.
          2   -1    0    0  501    0  0.00000000000E+00 -0.00000000000E+00 -0.12075439956E+04  0.12075439956E+04  0.25500000000E-02 0. -1.
    8880023    1    1    2    0    0  0.57341541982E+02  0.36557351432E+02 -0.30864553700E+03  0.73054552641E+03  0.65864270000E+03 0.  1.
    8880022    1    1    2    0    0 -0.57341541982E+02 -0.36557351432E+02 -0.67776741589E+03  0.69812951194E+03  0.15294330000E+03 0.  0.
<mgrwt>
<rscale>  0 0.46950518E+03</rscale>
<asrwt>0</asrwt>
<pdfrwt beam="1">  1        2 0.18577600E+00 0.66214402E+03</pdfrwt>
<pdfrwt beam="2">  1       -2 0.34020161E-01 0.66214402E+03</pdfrwt>
<totfact> 0.15458382E+02</totfact>
</mgrwt>
</event>
<event>
 4    2  0.6914693E-007  0.6776110E+03  0.7818608E-02  0.1010709E+00
          2   -1    0    0  501    0  0.00000000000E+00  0.00000000000E+00  0.53747810759E+03  0.53747810759E+03  0.25500000000E-02 0. -1.
         -2   -1    0    0    0  501 -0.00000000000E+00 -0.00000000000E+00 -0.41163234482E+03  0.41163234483E+03  0.25500000000E-02 0.  1.
    8880023    1    1    2    0    0 -0.11605012131E+03  0.10899019480E+03 -0.30967075601E+02  0.67831825809E+03  0.65864270000E+03 0.  1.
    8880022    1    1    2    0    0  0.11605012131E+03 -0.10899019480E+03  0.15681283837E+03  0.27079219433E+03  0.15294330000E+03 0.  0.
<mgrwt>
<rscale>  0 0.51193989E+03</rscale>
<asrwt>0</asrwt>
<pdfrwt beam="1">  1        2 0.82688939E-01 0.67761102E+03</pdfrwt>
<pdfrwt beam="2">  1       -2 0.63328053E-01 0.67761102E+03</pdfrwt>
<totfact> 0.13250289E+02</totfact>
</mgrwt>
</event>
<event>
 4    2  0.6914693E-007  0.1029513E+04  0.7818608E-02  0.9343925E-01
          2   -1    0    0  501    0  0.00000000000E+00  0.00000000000E+00  0.18112245668E+04  0.18112245668E+04  0.25500000000E-02 0. -1.
         -2   -1    0    0    0  501 -0.00000000000E+00 -0.00000000000E+00 -0.10155369179E+04  0.10155369179E+04  0.25500000000E-02 0.  1.
    8880023    1    1    2    0    0  0.27624117796E+03  0.74146951805E+03 -0.61708785273E+03  0.12002890730E+04  0.65864270000E+03 0.  1.
    8880022    1    1    2    0    0 -0.27624117796E+03 -0.74146951805E+03  0.14127755017E+04  0.16264724117E+04  0.15294330000E+03 0.  0.
<mgrwt>
<rscale>  0 0.96837671E+03</rscale>
<asrwt>0</asrwt>
<pdfrwt beam="1">  1        2 0.27864993E+00 0.10295127E+04</pdfrwt>
<pdfrwt beam="2">  1       -2 0.15623645E+00 0.10295127E+04</pdfrwt>
<totfact> 0.22662117E+00</totfact>
</mgrwt>
</event>
<event>
 4    2  0.6914693E-007  0.8442336E+03  0.7818608E-02  0.9622249E-01
          2   -1    0    0  501    0  0.00000000000E+00  0.00000000000E+00  0.93232684918E+03  0.93232684918E+03  0.25500000000E-02 0. -1.
         -2   -1    0    0    0  501 -0.00000000000E+00 -0.00000000000E+00 -0.78021613308E+03  0.78021613309E+03  0.25500000000E-02 0.  1.
    8880023    1    1    2    0    0  0.52812355546E+03 -0.23823229176E+01 -0.39925359046E+03  0.93388104224E+03  0.65864270000E+03 0.  1.
    8880022    1    1    2    0    0 -0.52812355546E+03  0.23823229176E+01  0.55136430655E+03  0.77866194003E+03  0.15294330000E+03 0.  0.
<mgrwt>
<rscale>  0 0.75840968E+03</rscale>
<asrwt>0</asrwt>
<pdfrwt beam="1">  1        2 0.14343490E+00 0.84423360E+03</pdfrwt>
<pdfrwt beam="2">  1       -2 0.12003325E+00 0.84423360E+03</pdfrwt>
<totfact> 0.14895200E+01</totfact>
</mgrwt>
</event>
<event>
 4    2  0.6914693E-007  0.7674771E+03  0.7818608E-02  0.9786121E-01
         -2   -1    0    0    0  501 -0.00000000000E+00  0.00000000000E+00  0.27583111013E+03  0.27583111014E+03  0.25500000000E-02 0.  1.
          2   -1    0    0  501    0  0.00000000000E+00 -0.00000000000E+00 -0.14728524230E+04  0.14728524230E+04  0.25500000000E-02 0. -1.
    8880023    1    1    2    0    0  0.39228765779E+03 -0.36349864658E+02 -0.44800519334E+03  0.88866741734E+03  0.65864270000E+03 0.  0.
    8880022    1    1    2    0    0 -0.39228765779E+03  0.36349864658E+02 -0.74901611952E+03  0.86001611579E+03  0.15294330000E+03 0.  0.
<mgrwt>
<rscale>  0 0.66112722E+03</rscale>
<asrwt>0</asrwt>
<pdfrwt beam="1">  1        2 0.22659268E+00 0.76747712E+03</pdfrwt>
<pdfrwt beam="2">  1       -2 0.42435556E-01 0.76747712E+03</pdfrwt>
<totfact> 0.70479591E+01</totfact>
</mgrwt>
</event>
<event>
 4    2  0.6914693E-007  0.6734134E+03  0.7818608E-02  0.1013326E+00
          2   -1    0    0  501    0  0.00000000000E+00  0.00000000000E+00  0.68338619077E+03  0.68338619077E+03  0.25500000000E-02 0. -1.
         -2   -1    0    0    0  501 -0.00000000000E+00 -0.00000000000E+00 -0.67284998297E+03  0.67284998298E+03  0.25500000000E-02 0.  1.
    8880023    1    1    2    0    0 -0.43158057392E+01 -0.14020265614E+03 -0.47775638323E+03  0.82567353049E+03  0.65864270000E+03 0.  1.
    8880022    1    1    2    0    0  0.43158057392E+01  0.14020265614E+03  0.48829259102E+03  0.53056264327E+03  0.15294330000E+03 0.  0.
<mgrwt>
<rscale>  0 0.50174087E+03</rscale>
<asrwt>0</asrwt>
<pdfrwt beam="1">  1        2 0.10513634E+00 0.67341341E+03</pdfrwt>
<pdfrwt beam="2">  1       -2 0.10351538E+00 0.67341341E+03</pdfrwt>
<totfact> 0.32769217E+01</totfact>
</mgrwt>
</event>
<event>
 4    2  0.6914693E-007  0.6729953E+03  0.7818608E-02  0.1013601E+00
         -2   -1    0    0    0  501 -0.00000000000E+00  0.00000000000E+00  0.11774909805E+04  0.11774909805E+04  0.25500000000E-02 0.  1.
          2   -1    0    0  501    0  0.00000000000E+00 -0.00000000000E+00 -0.71195564569E+03  0.71195564570E+03  0.25500000000E-02 0. -1.
    8880023    1    1    2    0    0  0.12740154217E+03  0.53678157565E+02  0.10625985964E+04  0.12577911118E+04  0.65864270000E+03 0.  1.
    8880022    1    1    2    0    0 -0.12740154217E+03 -0.53678157565E+02 -0.59706326158E+03  0.63165551442E+03  0.15294330000E+03 0.  0.
<mgrwt>
<rscale>  0 0.50068312E+03</rscale>
<asrwt>0</asrwt>
<pdfrwt beam="1">  1        2 0.10953164E+00 0.67299532E+03</pdfrwt>
<pdfrwt beam="2">  1       -2 0.18115246E+00 0.67299532E+03</pdfrwt>
<totfact> 0.73416587E+00</totfact>
</mgrwt>
</event>
<event>
 4    2  0.6914693E-007  0.8430399E+03  0.7818608E-02  0.9624475E-01
          2   -1    0    0  501    0  0.00000000000E+00  0.00000000000E+00  0.51409735247E+03  0.51409735247E+03  0.25500000000E-02 0. -1.
         -2   -1    0    0    0  501 -0.00000000000E+00 -0.00000000000E+00 -0.14432734057E+04  0.14432734057E+04  0.25500000000E-02 0.  1.
    8880023    1    1    2    0    0  0.28739945953E+03  0.44080336645E+03 -0.10976766088E+04  0.13840557074E+04  0.65864270000E+03 0.  0.
    8880022    1    1    2    0    0 -0.28739945953E+03 -0.44080336645E+03  0.16850055563E+03  0.57331505080E+03  0.15294330000E+03 0.  0.
<mgrwt>
<rscale>  0 0.75697249E+03</rscale>
<asrwt>0</asrwt>
<pdfrwt beam="1">  1        2 0.79091900E-01 0.84303989E+03</pdfrwt>
<pdfrwt beam="2">  1       -2 0.22204206E+00 0.84303989E+03</pdfrwt>
<totfact> 0.57903803E+00</totfact>
</mgrwt>
</event>
<event>
 4    2  0.6914693E-007  0.7020642E+03  0.7818608E-02  0.9988743E-01
         -2   -1    0    0    0  501 -0.00000000000E+00  0.00000000000E+00  0.25374048133E+03  0.25374048134E+03  0.25500000000E-02 0.  1.
          2   -1    0    0  501    0  0.00000000000E+00 -0.00000000000E+00 -0.17377241911E+04  0.17377241911E+04  0.25500000000E-02 0. -1.
    8880023    1    1    2    0    0 -0.21481113009E+03  0.11375488052E+03 -0.28355980884E+03  0.75716600948E+03  0.65864270000E+03 0.  1.
    8880022    1    1    2    0    0  0.21481113009E+03 -0.11375488052E+03 -0.12004239009E+04  0.12342986630E+04  0.15294330000E+03 0.  0.
<mgrwt>
<rscale>  0 0.56146586E+03</rscale>
<asrwt>0</asrwt>
<pdfrwt beam="1">  1        2 0.26734218E+00 0.70206424E+03</pdfrwt>
<pdfrwt beam="2">  1       -2 0.39036998E-01 0.70206424E+03</pdfrwt>
<totfact> 0.59701104E+01</totfact>
</mgrwt>
</event>
<event>
 4    2  0.6914693E-007  0.7299092E+03  0.7818608E-02  0.9890380E-01
         -2   -1    0    0    0  501 -0.00000000000E+00  0.00000000000E+00  0.52058267592E+03  0.52058267592E+03  0.25500000000E-02 0.  1.
          2   -1    0    0  501    0  0.00000000000E+00 -0.00000000000E+00 -0.12380995724E+04  0.12380995724E+04  0.25500000000E-02 0. -1.
    8880023    1    1    2    0    0 -0.18895277761E+03 -0.25150376548E+03  0.21648091859E+03  0.76133533386E+03  0.65864270000E+03 0.  1.
    8880022    1    1    2    0    0  0.18895277761E+03  0.25150376548E+03 -0.93399781505E+03  0.99734691444E+03  0.15294330000E+03 0.  0.
<mgrwt>
<rscale>  0 0.60729776E+03</rscale>
<asrwt>0</asrwt>
<pdfrwt beam="1">  1        2 0.19047686E+00 0.72990924E+03</pdfrwt>
<pdfrwt beam="2">  1       -2 0.80089642E-01 0.72990924E+03</pdfrwt>
<totfact> 0.25323812E+01</totfact>
</mgrwt>
</event>
<event>
 4    2  0.6914693E-007  0.6858714E+03  0.7818608E-02  0.1006180E+00
         -2   -1    0    0    0  501 -0.00000000000E+00  0.00000000000E+00  0.20557391795E+03  0.20557391796E+03  0.25500000000E-02 0.  1.
          2   -1    0    0  501    0  0.00000000000E+00 -0.00000000000E+00 -0.26670575043E+04  0.26670575043E+04  0.25500000000E-02 0. -1.
    8880023    1    1    2    0    0  0.55922800289E+02  0.18298098786E+03 -0.39459879053E+03  0.79128238528E+03  0.65864270000E+03 0.  1.
    8880022    1    1    2    0    0 -0.55922800289E+02 -0.18298098786E+03 -0.20668847959E+04  0.20813490370E+04  0.15294330000E+03 0.  0.
<mgrwt>
<rscale>  0 0.53021486E+03</rscale>
<asrwt>0</asrwt>
<pdfrwt beam="1">  1        2 0.41031651E+00 0.68587142E+03</pdfrwt>
<pdfrwt beam="2">  1       -2 0.31626759E-01 0.68587142E+03</pdfrwt>
<totfact> 0.27315584E+01</totfact>
</mgrwt>
</event>
<event>
 4    2  0.6914693E-007  0.9339556E+03  0.7818608E-02  0.9473584E-01
          2   -1    0    0  501    0  0.00000000000E+00  0.00000000000E+00  0.15428284594E+04  0.15428284594E+04  0.25500000000E-02 0. -1.
         -2   -1    0    0    0  501 -0.00000000000E+00 -0.00000000000E+00 -0.76161548864E+03  0.76161548865E+03  0.25500000000E-02 0.  1.
    8880023    1    1    2    0    0  0.53789744437E+03 -0.38617256076E+03 -0.33952359512E+03  0.99375519382E+03  0.65864270000E+03 0.  1.
    8880022    1    1    2    0    0 -0.53789744437E+03  0.38617256076E+03  0.11207365659E+04  0.13106887542E+04  0.15294330000E+03 0.  0.
<mgrwt>
<rscale>  0 0.86259679E+03</rscale>
<asrwt>0</asrwt>
<pdfrwt beam="1">  1        2 0.23735822E+00 0.93395563E+03</pdfrwt>
<pdfrwt beam="2">  1       -2 0.11717161E+00 0.93395563E+03</pdfrwt>
<totfact> 0.67754234E+00</totfact>
</mgrwt>
</event>
<event>
 4    2  0.6914693E-007  0.1175380E+04  0.7818608E-02  0.9181434E-01
          2   -1    0    0  501    0  0.00000000000E+00  0.00000000000E+00  0.18016149523E+04  0.18016149523E+04  0.25500000000E-02 0. -1.
         -2   -1    0    0    0  501 -0.00000000000E+00 -0.00000000000E+00 -0.13083881068E+04  0.13083881068E+04  0.25500000000E-02 0.  1.
    8880023    1    1    2    0    0 -0.95749334679E+03 -0.17582579647E+03 -0.84535421052E+03  0.14478059840E+04  0.65864270000E+03 0.  1.
    8880022    1    1    2    0    0  0.95749334679E+03  0.17582579647E+03  0.13385810560E+04  0.16621970751E+04  0.15294330000E+03 0.  0.
<mgrwt>
<rscale>  0 0.11247131E+04</rscale>
<asrwt>0</asrwt>
<pdfrwt beam="1">  1        2 0.27717153E+00 0.11753801E+04</pdfrwt>
<pdfrwt beam="2">  1       -2 0.20129048E+00 0.11753801E+04</pdfrwt>
<totfact> 0.10932413E+00</totfact>
</mgrwt>
</event>
<event>
 4    2  0.6914693E-007  0.6839482E+03  0.7818608E-02  0.1007173E+00
          2   -1    0    0  501    0  0.00000000000E+00  0.00000000000E+00  0.59548851803E+03  0.59548851804E+03  0.25500000000E-02 0. -1.
         -2   -1    0    0    0  501 -0.00000000000E+00 -0.00000000000E+00 -0.56721266414E+03  0.56721266414E+03  0.25500000000E-02 0.  1.
    8880023    1    1    2    0    0  0.18310539585E+03  0.21151349460E+02 -0.30779441528E+03  0.75001504913E+03  0.65864270000E+03 0.  1.
    8880022    1    1    2    0    0 -0.18310539585E+03 -0.21151349460E+02  0.33607026918E+03  0.41268613305E+03  0.15294330000E+03 0.  0.
<mgrwt>
<rscale>  0 0.52613819E+03</rscale>
<asrwt>0</asrwt>
<pdfrwt beam="1">  1        2 0.91613618E-01 0.68394822E+03</pdfrwt>
<pdfrwt beam="2">  1       -2 0.87263487E-01 0.68394822E+03</pdfrwt>
<totfact> 0.57750107E+01</totfact>
</mgrwt>
</event>
<event>
 4    2  0.6914693E-007  0.6985730E+03  0.7818608E-02  0.1000317E+00
          2   -1    0    0  501    0  0.00000000000E+00  0.00000000000E+00  0.75228903963E+03  0.75228903963E+03  0.25500000000E-02 0. -1.
         -2   -1    0    0    0  501 -0.00000000000E+00 -0.00000000000E+00 -0.32305331986E+03  0.32305331987E+03  0.25500000000E-02 0.  1.
    8880023    1    1    2    0    0 -0.22668626607E+03  0.52984940749E+02  0.37023936661E+03  0.79062093447E+03  0.65864270000E+03 0.  0.
    8880022    1    1    2    0    0  0.22668626607E+03 -0.52984940749E+02  0.58996353165E+02  0.28472142503E+03  0.15294330000E+03 0.  0.
<mgrwt>
<rscale>  0 0.55511324E+03</rscale>
<asrwt>0</asrwt>
<pdfrwt beam="1">  1        2 0.11573677E+00 0.69857303E+03</pdfrwt>
<pdfrwt beam="2">  1       -2 0.49700511E-01 0.69857303E+03</pdfrwt>
<totfact> 0.14508947E+02</totfact>
</mgrwt>
</event>
<event>
 4    2  0.6914693E-007  0.7980382E+03  0.7818608E-02  0.9715054E-01
          2   -1    0    0  501    0  0.00000000000E+00  0.00000000000E+00  0.58485523878E+03  0.58485523878E+03  0.25500000000E-02 0. -1.
         -2   -1    0    0    0  501 -0.00000000000E+00 -0.00000000000E+00 -0.23976424269E+04  0.23976424269E+04  0.25500000000E-02 0.  1.
    8880023    1    1    2    0    0 -0.43595282963E+03 -0.11401726423E+03 -0.22181781598E+04  0.23573670400E+04  0.65864270000E+03 0.  0.
    8880022    1    1    2    0    0  0.43595282963E+03  0.11401726423E+03  0.40539097172E+03  0.62513062569E+03  0.15294330000E+03 0.  0.
<mgrwt>
<rscale>  0 0.70127517E+03</rscale>
<asrwt>0</asrwt>
<pdfrwt beam="1">  1        2 0.89977730E-01 0.79803823E+03</pdfrwt>
<pdfrwt beam="2">  1       -2 0.36886806E+00 0.79803823E+03</pdfrwt>
<totfact> 0.63376892E-01</totfact>
</mgrwt>
</event>
<event>
 4    2  0.6914693E-007  0.7443060E+03  0.7818608E-02  0.9847577E-01
          2   -1    0    0  501    0  0.00000000000E+00  0.00000000000E+00  0.86932057299E+03  0.86932057300E+03  0.25500000000E-02 0. -1.
         -2   -1    0    0    0  501 -0.00000000000E+00 -0.00000000000E+00 -0.49997452454E+03  0.49997452454E+03  0.25500000000E-02 0.  1.
    8880023    1    1    2    0    0 -0.20674319652E+03 -0.27827778297E+03 -0.11628185851E+03  0.75333455429E+03  0.65864270000E+03 0.  1.
    8880022    1    1    2    0    0  0.20674319652E+03  0.27827778297E+03  0.48562790697E+03  0.61596054325E+03  0.15294330000E+03 0. -1.
<mgrwt>
<rscale>  0 0.62870618E+03</rscale>
<asrwt>0</asrwt>
<pdfrwt beam="1">  1        2 0.13374163E+00 0.74430604E+03</pdfrwt>
<pdfrwt beam="2">  1       -2 0.76919158E-01 0.74430604E+03</pdfrwt>
<totfact> 0.47138734E+01</totfact>
</mgrwt>
</event>
<event>
 4    2  0.6914693E-007  0.7740782E+03  0.7818608E-02  0.9769936E-01
         -2   -1    0    0    0  501 -0.00000000000E+00  0.00000000000E+00  0.16044219395E+03  0.16044219397E+03  0.25500000000E-02 0.  1.
          2   -1    0    0  501    0  0.00000000000E+00 -0.00000000000E+00 -0.35584247880E+04  0.35584247880E+04  0.25500000000E-02 0. -1.
    8880023    1    1    2    0    0 -0.25924900747E+03 -0.31333189258E+03 -0.91658950495E+03  0.11997222385E+04  0.65864270000E+03 0.  1.
    8880022    1    1    2    0    0  0.25924900747E+03  0.31333189258E+03 -0.24813930891E+04  0.25191447434E+04  0.15294330000E+03 0.  0.
<mgrwt>
<rscale>  0 0.67001224E+03</rscale>
<asrwt>0</asrwt>
<pdfrwt beam="1">  1        2 0.54744991E+00 0.77407824E+03</pdfrwt>
<pdfrwt beam="2">  1       -2 0.24683417E-01 0.77407824E+03</pdfrwt>
<totfact> 0.11673976E+01</totfact>
</mgrwt>
</event>
<event>
 4    2  0.6914693E-007  0.7756269E+03  0.7818608E-02  0.9766212E-01
          2   -1    0    0  501    0  0.00000000000E+00  0.00000000000E+00  0.18250192278E+04  0.18250192278E+04  0.25500000000E-02 0. -1.
         -2   -1    0    0    0  501 -0.00000000000E+00 -0.00000000000E+00 -0.20610954653E+03  0.20610954654E+03  0.25500000000E-02 0.  1.
    8880023    1    1    2    0    0 -0.40949885632E+03 -0.98764114624E+01  0.11760612420E+04  0.14087998822E+04  0.65864270000E+03 0.  0.
    8880022    1    1    2    0    0  0.40949885632E+03  0.98764114624E+01  0.44284843924E+03  0.62232889213E+03  0.15294330000E+03 0.  0.
<mgrwt>
<rscale>  0 0.67207776E+03</rscale>
<asrwt>0</asrwt>
<pdfrwt beam="1">  1        2 0.28077220E+00 0.77562688E+03</pdfrwt>
<pdfrwt beam="2">  1       -2 0.31709160E-01 0.77562688E+03</pdfrwt>
<totfact> 0.78887663E+01</totfact>
</mgrwt>
</event>
<event>
 4    2  0.6914693E-007  0.8773928E+03  0.7818608E-02  0.9563344E-01
          2   -1    0    0  501    0  0.00000000000E+00  0.00000000000E+00  0.19153694580E+04  0.19153694580E+04  0.25500000000E-02 0. -1.
         -2   -1    0    0    0  501 -0.00000000000E+00 -0.00000000000E+00 -0.35662866068E+03  0.35662866069E+03  0.25500000000E-02 0.  1.
    8880023    1    1    2    0    0 -0.39763336237E+02 -0.57829650230E+03  0.39351847647E+03  0.96160021062E+03  0.65864270000E+03 0.  1.
    8880022    1    1    2    0    0  0.39763336237E+02  0.57829650230E+03  0.11652223209E+04  0.13103979081E+04  0.15294330000E+03 0.  0.
<mgrwt>
<rscale>  0 0.79770582E+03</rscale>
<asrwt>0</asrwt>
<pdfrwt beam="1">  1        2 0.29467223E+00 0.87739283E+03</pdfrwt>
<pdfrwt beam="2">  1       -2 0.54865948E-01 0.87739283E+03</pdfrwt>
<totfact> 0.23632859E+01</totfact>
</mgrwt>
</event>
<event>
 4    2  0.6914693E-007  0.8647594E+03  0.7818608E-02  0.9585153E-01
         -2   -1    0    0    0  501 -0.00000000000E+00  0.00000000000E+00  0.51446010142E+03  0.51446010142E+03  0.25500000000E-02 0.  1.
          2   -1    0    0  501    0  0.00000000000E+00 -0.00000000000E+00 -0.21671511454E+04  0.21671511454E+04  0.25500000000E-02 0. -1.
    8880023    1    1    2    0    0  0.28647460678E+03  0.48159197132E+03  0.66142550041E+02  0.86728517245E+03  0.65864270000E+03 0.  1.
    8880022    1    1    2    0    0 -0.28647460678E+03 -0.48159197132E+03 -0.17188335940E+04  0.18143260744E+04  0.15294330000E+03 0.  0.
<mgrwt>
<rscale>  0 0.78286703E+03</rscale>
<asrwt>0</asrwt>
<pdfrwt beam="1">  1        2 0.33340786E+00 0.86475935E+03</pdfrwt>
<pdfrwt beam="2">  1       -2 0.79147709E-01 0.86475935E+03</pdfrwt>
<totfact> 0.77987165E+00</totfact>
</mgrwt>
</event>
<event>
 4    2  0.6914693E-007  0.9764689E+03  0.7818608E-02  0.9413012E-01
          2   -1    0    0  501    0  0.00000000000E+00  0.00000000000E+00  0.21958317154E+04  0.21958317154E+04  0.25500000000E-02 0. -1.
         -2   -1    0    0    0  501 -0.00000000000E+00 -0.00000000000E+00 -0.78087989542E+03  0.78087989543E+03  0.25500000000E-02 0.  1.
    8880023    1    1    2    0    0 -0.58774400026E+03  0.41741855299E+03 -0.37109370395E+03  0.10446061466E+04  0.65864270000E+03 0.  0.
    8880022    1    1    2    0    0  0.58774400026E+03 -0.41741855299E+03  0.17860455239E+04  0.19321054642E+04  0.15294330000E+03 0.  0.
<mgrwt>
<rscale>  0 0.91012506E+03</rscale>
<asrwt>0</asrwt>
<pdfrwt beam="1">  1        2 0.33782027E+00 0.97646888E+03</pdfrwt>
<pdfrwt beam="2">  1       -2 0.12013537E+00 0.97646888E+03</pdfrwt>
<totfact> 0.27630804E+00</totfact>
</mgrwt>
</event>
<event>
 4    2  0.6914693E-007  0.1117622E+04  0.7818608E-02  0.9241685E-01
         -2   -1    0    0    0  501 -0.00000000000E+00  0.00000000000E+00  0.41656138833E+03  0.41656138834E+03  0.25500000000E-02 0.  1.
          2   -1    0    0  501    0  0.00000000000E+00 -0.00000000000E+00 -0.26731014268E+04  0.26731014268E+04  0.25500000000E-02 0. -1.
    8880023    1    1    2    0    0 -0.88836474066E+03  0.16148326934E+03 -0.82050680627E+03  0.13864740835E+04  0.65864270000E+03 0.  1.
    8880022    1    1    2    0    0  0.88836474066E+03 -0.16148326934E+03 -0.14360332322E+04  0.17031887317E+04  0.15294330000E+03 0. -1.
<mgrwt>
<rscale>  0 0.10633335E+04</rscale>
<asrwt>0</asrwt>
<pdfrwt beam="1">  1        2 0.41124636E+00 0.11176220E+04</pdfrwt>
<pdfrwt beam="2">  1       -2 0.64086369E-01 0.11176220E+04</pdfrwt>
<totfact> 0.62021824E+00</totfact>
</mgrwt>
</event>
<event>
 4    2  0.6914693E-007  0.8219210E+03  0.7818608E-02  0.9665261E-01
         -2   -1    0    0    0  501 -0.00000000000E+00  0.00000000000E+00  0.23635930976E+03  0.23635930978E+03  0.25500000000E-02 0.  1.
          2   -1    0    0  501    0  0.00000000000E+00 -0.00000000000E+00 -0.23849991260E+04  0.23849991260E+04  0.25500000000E-02 0. -1.
    8880023    1    1    2    0    0 -0.11646128860E+03  0.47768255595E+03 -0.68551984695E+03  0.10702763768E+04  0.65864270000E+03 0.  0.
    8880022    1    1    2    0    0  0.11646128860E+03 -0.47768255595E+03 -0.14631199693E+04  0.15510820589E+04  0.15294330000E+03 0.  0.
<mgrwt>
<rscale>  0 0.73123341E+03</rscale>
<asrwt>0</asrwt>
<pdfrwt beam="1">  1        2 0.36692293E+00 0.82192096E+03</pdfrwt>
<pdfrwt beam="2">  1       -2 0.36362972E-01 0.82192096E+03</pdfrwt>
<totfact> 0.29752299E+01</totfact>
</mgrwt>
</event>
<event>
 4    2  0.6914693E-007  0.9392572E+03  0.7818608E-02  0.9465742E-01
          2   -1    0    0  501    0  0.00000000000E+00  0.00000000000E+00  0.19461932211E+04  0.19461932211E+04  0.25500000000E-02 0. -1.
         -2   -1    0    0    0  501 -0.00000000000E+00 -0.00000000000E+00 -0.44700304253E+03  0.44700304254E+03  0.25500000000E-02 0.  1.
    8880023    1    1    2    0    0  0.43179497750E+03  0.51180750312E+03  0.25705040932E+03  0.97379615015E+03  0.65864270000E+03 0.  1.
    8880022    1    1    2    0    0 -0.43179497750E+03 -0.51180750312E+03  0.12421397693E+04  0.14194001135E+04  0.15294330000E+03 0.  0.
<mgrwt>
<rscale>  0 0.86857327E+03</rscale>
<asrwt>0</asrwt>
<pdfrwt beam="1">  1        2 0.29941434E+00 0.93925717E+03</pdfrwt>
<pdfrwt beam="2">  1       -2 0.68769700E-01 0.93925717E+03</pdfrwt>
<totfact> 0.13956150E+01</totfact>
</mgrwt>
</event>
<event>
 4    2  0.6914693E-007  0.7250563E+03  0.7818608E-02  0.9905834E-01
          2   -1    0    0  501    0  0.00000000000E+00  0.00000000000E+00  0.11632254498E+04  0.11632254498E+04  0.25500000000E-02 0. -1.
         -2   -1    0    0    0  501 -0.00000000000E+00 -0.00000000000E+00 -0.34157588564E+03  0.34157588565E+03  0.25500000000E-02 0.  1.
    8880023    1    1    2    0    0  0.26687837541E+03 -0.14377873457E+03  0.13322129780E+03  0.73719367349E+03  0.65864270000E+03 0.  1.
    8880022    1    1    2    0    0 -0.26687837541E+03  0.14377873457E+03  0.68842826635E+03  0.76760766196E+03  0.15294330000E+03 0.  0.
<mgrwt>
<rscale>  0 0.59979359E+03</rscale>
<asrwt>0</asrwt>
<pdfrwt beam="1">  1        2 0.17895776E+00 0.72505627E+03</pdfrwt>
<pdfrwt beam="2">  1       -2 0.52550136E-01 0.72505627E+03</pdfrwt>
<totfact> 0.69364072E+01</totfact>
</mgrwt>
</event>
<event>
 4    2  0.6914693E-007  0.8433101E+03  0.7818608E-02  0.9623970E-01
         -2   -1    0    0    0  501 -0.00000000000E+00  0.00000000000E+00  0.31856825339E+03  0.31856825340E+03  0.25500000000E-02 0.  1.
          2   -1    0    0  501    0  0.00000000000E+00 -0.00000000000E+00 -0.25388600557E+04  0.25388600557E+04  0.25500000000E-02 0. -1.
    8880023    1    1    2    0    0  0.63274747089E+02  0.52283659302E+03 -0.35815120391E+03  0.91621192295E+03  0.65864270000E+03 0.  1.
    8880022    1    1    2    0    0 -0.63274747089E+02 -0.52283659302E+03 -0.18621405984E+04  0.19412163862E+04  0.15294330000E+03 0.  0.
<mgrwt>
<rscale>  0 0.75729802E+03</rscale>
<asrwt>0</asrwt>
<pdfrwt beam="1">  1        2 0.39059384E+00 0.84331015E+03</pdfrwt>
<pdfrwt beam="2">  1       -2 0.49010502E-01 0.84331015E+03</pdfrwt>
<totfact> 0.13465945E+01</totfact>
</mgrwt>
</event>
<event>
 4    2  0.6914693E-007  0.8750051E+03  0.7818608E-02  0.9567410E-01
          2   -1    0    0  501    0  0.00000000000E+00  0.00000000000E+00  0.88919695978E+03  0.88919695978E+03  0.25500000000E-02 0. -1.
         -2   -1    0    0    0  501 -0.00000000000E+00 -0.00000000000E+00 -0.79101367823E+03  0.79101367824E+03  0.25500000000E-02 0.  1.
    8880023    1    1    2    0    0 -0.47244407807E+03 -0.32957583299E+03 -0.34180614273E+03  0.93939623273E+03  0.65864270000E+03 0.  0.
    8880022    1    1    2    0    0  0.47244407807E+03  0.32957583299E+03  0.43998942427E+03  0.74081440529E+03  0.15294330000E+03 0.  0.
<mgrwt>
<rscale>  0 0.79491259E+03</rscale>
<asrwt>0</asrwt>
<pdfrwt beam="1">  1        2 0.13679953E+00 0.87500505E+03</pdfrwt>
<pdfrwt beam="2">  1       -2 0.12169441E+00 0.87500505E+03</pdfrwt>
<totfact> 0.15342151E+01</totfact>
</mgrwt>
</event>
<event>
 4    2  0.6914693E-007  0.8587479E+03  0.7818608E-02  0.9595795E-01
         -2   -1    0    0    0  501 -0.00000000000E+00  0.00000000000E+00  0.74342462535E+03  0.74342462535E+03  0.25500000000E-02 0.  1.
          2   -1    0    0  501    0  0.00000000000E+00 -0.00000000000E+00 -0.25771745398E+04  0.25771745398E+04  0.25500000000E-02 0. -1.
    8880023    1    1    2    0    0  0.55085994677E+03  0.13823530146E+02  0.44778786633E+03  0.96848435735E+03  0.65864270000E+03 0.  1.
    8880022    1    1    2    0    0 -0.55085994677E+03 -0.13823530146E+02 -0.22815377807E+04  0.23521148078E+04  0.15294330000E+03 0.  0.
<mgrwt>
<rscale>  0 0.77575150E+03</rscale>
<asrwt>0</asrwt>
<pdfrwt beam="1">  1        2 0.39648839E+00 0.85874791E+03</pdfrwt>
<pdfrwt beam="2">  1       -2 0.11437302E+00 0.85874791E+03</pdfrwt>
<totfact> 0.19355658E+00</totfact>
</mgrwt>
</event>
<event>
 4    2  0.6914693E-007  0.1177271E+04  0.7818608E-02  0.9179539E-01
          2   -1    0    0  501    0  0.00000000000E+00  0.00000000000E+00  0.85707232660E+03  0.85707232661E+03  0.25500000000E-02 0. -1.
         -2   -1    0    0    0  501 -0.00000000000E+00 -0.00000000000E+00 -0.20722056297E+04  0.20722056297E+04  0.25500000000E-02 0.  1.
    8880023    1    1    2    0    0 -0.95433885697E+03 -0.20345560176E+03 -0.14948147049E+04  0.19027448710E+04  0.65864270000E+03 0.  0.
    8880022    1    1    2    0    0  0.95433885697E+03  0.20345560176E+03  0.27968140177E+03  0.10265330854E+04  0.15294330000E+03 0.  0.
<mgrwt>
<rscale>  0 0.11267134E+04</rscale>
<asrwt>0</asrwt>
<pdfrwt beam="1">  1        2 0.13185728E+00 0.11772710E+04</pdfrwt>
<pdfrwt beam="2">  1       -2 0.31880087E+00 0.11772710E+04</pdfrwt>
<totfact> 0.75224537E-01</totfact>
</mgrwt>
</event>
<event>
 4    2  0.6914693E-007  0.1046442E+04  0.7818608E-02  0.9323170E-01
          2   -1    0    0  501    0  0.00000000000E+00  0.00000000000E+00  0.56589120286E+03  0.56589120287E+03  0.25500000000E-02 0. -1.
         -2   -1    0    0    0  501 -0.00000000000E+00 -0.00000000000E+00 -0.16902213486E+04  0.16902213486E+04  0.25500000000E-02 0.  1.
    8880023    1    1    2    0    0 -0.74489325028E+03  0.32613745037E+03 -0.30104581602E+03  0.10888849253E+04  0.65864270000E+03 0. -1.
    8880022    1    1    2    0    0  0.74489325028E+03 -0.32613745037E+03 -0.82328432976E+03  0.11672276263E+04  0.15294330000E+03 0.  0.
<mgrwt>
<rscale>  0 0.98677461E+03</rscale>
<asrwt>0</asrwt>
<pdfrwt beam="1">  1        2 0.87060185E-01 0.10464424E+04</pdfrwt>
<pdfrwt beam="2">  1       -2 0.26003405E+00 0.10464424E+04</pdfrwt>
<totfact> 0.29549886E+00</totfact>
</mgrwt>
</event>
<event>
 4    2  0.6914693E-007  0.6829827E+03  0.7818608E-02  0.1007684E+00
         -2   -1    0    0    0  501 -0.00000000000E+00  0.00000000000E+00  0.12755378426E+03  0.12755378428E+03  0.25500000000E-02 0.  1.
          2   -1    0    0  501    0  0.00000000000E+00 -0.00000000000E+00 -0.27307590336E+04  0.27307590336E+04  0.25500000000E-02 0. -1.
    8880023    1    1    2    0    0 -0.80572622527E+02 -0.16175041082E+03 -0.85570852612E+03  0.10948526982E+04  0.65864270000E+03 0.  1.
    8880022    1    1    2    0    0  0.80572622527E+02  0.16175041082E+03 -0.17474967233E+04  0.17634601197E+04  0.15294330000E+03 0.  0.
<mgrwt>
<rscale>  0 0.52405410E+03</rscale>
<asrwt>0</asrwt>
<pdfrwt beam="1">  1        2 0.42011673E+00 0.68298269E+03</pdfrwt>
<pdfrwt beam="2">  1       -2 0.19623661E-01 0.68298269E+03</pdfrwt>
<totfact> 0.59331778E+01</totfact>
</mgrwt>
</event>
<event>
 4    2  0.6914693E-007  0.7663267E+03  0.7818608E-02  0.9788995E-01
          2   -1    0    0  501    0  0.00000000000E+00  0.00000000000E+00  0.13179416417E+04  0.13179416417E+04  0.25500000000E-02 0. -1.
         -2   -1    0    0    0  501 -0.00000000000E+00 -0.00000000000E+00 -0.41919207120E+03  0.41919207121E+03  0.25500000000E-02 0.  1.
    8880023    1    1    2    0    0 -0.33104773275E+03 -0.20941286763E+03  0.24170499638E+02  0.76670774732E+03  0.65864270000E+03 0.  1.
    8880022    1    1    2    0    0  0.33104773275E+03  0.20941286763E+03  0.87457907086E+03  0.97042596559E+03  0.15294330000E+03 0.  0.
<mgrwt>
<rscale>  0 0.65956470E+03</rscale>
<asrwt>0</asrwt>
<pdfrwt beam="1">  1        2 0.20276025E+00 0.76632666E+03</pdfrwt>
<pdfrwt beam="2">  1       -2 0.64491089E-01 0.76632666E+03</pdfrwt>
<totfact> 0.36488108E+01</totfact>
</mgrwt>
</event>
<event>
 4    2  0.6914693E-007  0.9407493E+03  0.7818608E-02  0.9463551E-01
          2   -1    0    0  501    0  0.00000000000E+00  0.00000000000E+00  0.69809500861E+03  0.69809500861E+03  0.25500000000E-02 0. -1.
         -2   -1    0    0    0  501 -0.00000000000E+00 -0.00000000000E+00 -0.16865949320E+04  0.16865949320E+04  0.25500000000E-02 0.  1.
    8880023    1    1    2    0    0 -0.70172100269E+02 -0.66803809908E+03 -0.13193960803E+04  0.16204367462E+04  0.65864270000E+03 0.  0.
    8880022    1    1    2    0    0  0.70172100269E+02  0.66803809908E+03  0.33089615691E+03  0.76425319440E+03  0.15294330000E+03 0.  0.
<mgrwt>
<rscale>  0 0.87025259E+03</rscale>
<asrwt>0</asrwt>
<pdfrwt beam="1">  1        2 0.10739923E+00 0.94074929E+03</pdfrwt>
<pdfrwt beam="2">  1       -2 0.25947614E+00 0.94074929E+03</pdfrwt>
<totfact> 0.23256991E+00</totfact>
</mgrwt>
</event>
<event>
 4    2  0.6914693E-007  0.8065207E+03  0.7818608E-02  0.9696870E-01
          2   -1    0    0  501    0  0.00000000000E+00  0.00000000000E+00  0.61546306644E+03  0.61546306644E+03  0.25500000000E-02 0. -1.
         -2   -1    0    0    0  501 -0.00000000000E+00 -0.00000000000E+00 -0.11865013808E+04  0.11865013809E+04  0.25500000000E-02 0.  1.
    8880023    1    1    2    0    0  0.41464515282E+03 -0.21150616493E+03 -0.90254315607E+03  0.12103965529E+04  0.65864270000E+03 0.  0.
    8880022    1    1    2    0    0 -0.41464515282E+03  0.21150616493E+03  0.33150484166E+03  0.59156789435E+03  0.15294330000E+03 0.  0.
<mgrwt>
<rscale>  0 0.71203439E+03</rscale>
<asrwt>0</asrwt>
<pdfrwt beam="1">  1        2 0.94686625E-01 0.80652072E+03</pdfrwt>
<pdfrwt beam="2">  1       -2 0.18253867E+00 0.80652072E+03</pdfrwt>
<totfact> 0.84719322E+00</totfact>
</mgrwt>
</event>
<event>
 4    2  0.6914693E-007  0.7040414E+03  0.7818608E-02  0.9980831E-01
          2   -1    0    0  501    0  0.00000000000E+00  0.00000000000E+00  0.18957269286E+04  0.18957269287E+04  0.25500000000E-02 0. -1.
         -2   -1    0    0    0  501 -0.00000000000E+00 -0.00000000000E+00 -0.20259987427E+03  0.20259987429E+03  0.25500000000E-02 0.  1.
    8880023    1    1    2    0    0  0.87106292093E+02  0.23297338361E+03  0.48379147709E+03  0.85424147825E+03  0.65864270000E+03 0. -1.
    8880022    1    1    2    0    0 -0.87106292093E+02 -0.23297338361E+03  0.12093355773E+04  0.12440853247E+04  0.15294330000E+03 0.  0.
<mgrwt>
<rscale>  0 0.56498786E+03</rscale>
<asrwt>0</asrwt>
<pdfrwt beam="1">  1        2 0.29165029E+00 0.70404141E+03</pdfrwt>
<pdfrwt beam="2">  1       -2 0.31169213E-01 0.70404141E+03</pdfrwt>
<totfact> 0.75127788E+01</totfact>
</mgrwt>
</event>
<event>
 4    2  0.6914693E-007  0.8587752E+03  0.7818608E-02  0.9595746E-01
          2   -1    0    0  501    0  0.00000000000E+00  0.00000000000E+00  0.14600370349E+04  0.14600370349E+04  0.25500000000E-02 0. -1.
         -2   -1    0    0    0  501 -0.00000000000E+00 -0.00000000000E+00 -0.44402160007E+03  0.44402160008E+03  0.25500000000E-02 0.  1.
    8880023    1    1    2    0    0  0.12358574801E+03  0.53703930693E+03  0.15842798951E+03  0.87326644755E+03  0.65864270000E+03 0.  0.
    8880022    1    1    2    0    0 -0.12358574801E+03 -0.53703930693E+03  0.85758744533E+03  0.10307921874E+04  0.15294330000E+03 0.  0.
<mgrwt>
<rscale>  0 0.77578390E+03</rscale>
<asrwt>0</asrwt>
<pdfrwt beam="1">  1        2 0.22462108E+00 0.85877521E+03</pdfrwt>
<pdfrwt beam="2">  1       -2 0.68311015E-01 0.85877521E+03</pdfrwt>
<totfact> 0.26506255E+01</totfact>
</mgrwt>
</event>
<event>
 4    2  0.6914693E-007  0.8067012E+03  0.7818608E-02  0.9696490E-01
         -2   -1    0    0    0  501 -0.00000000000E+00  0.00000000000E+00  0.10497851418E+04  0.10497851418E+04  0.25500000000E-02 0.  1.
          2   -1    0    0  501    0  0.00000000000E+00 -0.00000000000E+00 -0.82000628135E+03  0.82000628135E+03  0.25500000000E-02 0. -1.
    8880023    1    1    2    0    0 -0.37049972492E+03  0.28228797338E+03  0.78741402021E+03  0.11272921500E+04  0.65864270000E+03 0.  0.
    8880022    1    1    2    0    0  0.37049972492E+03 -0.28228797338E+03 -0.55763515979E+03  0.74249927308E+03  0.15294330000E+03 0.  0.
<mgrwt>
<rscale>  0 0.71226174E+03</rscale>
<asrwt>0</asrwt>
<pdfrwt beam="1">  1        2 0.12615481E+00 0.80670115E+03</pdfrwt>
<pdfrwt beam="2">  1       -2 0.16150541E+00 0.80670115E+03</pdfrwt>
<totfact> 0.82703609E+00</totfact>
</mgrwt>
</event>
<event>
 4    2  0.6914693E-007  0.7499945E+03  0.7818608E-02  0.9831735E-01
          2   -1    0    0  501    0  0.00000000000E+00  0.00000000000E+00  0.74854843476E+03  0.74854843476E+03  0.25500000000E-02 0. -1.
         -2   -1    0    0    0  501 -0.00000000000E+00 -0.00000000000E+00 -0.43420882927E+03  0.43420882928E+03  0.25500000000E-02 0.  1.
    8880023    1    1    2    0    0  0.10976689540E+03 -0.34151546687E+03  0.21880010424E+03  0.78125877743E+03  0.65864270000E+03 0.  0.
    8880022    1    1    2    0    0 -0.10976689540E+03  0.34151546687E+03  0.95539501247E+02  0.40149848661E+03  0.15294330000E+03 0. -1.
<mgrwt>
<rscale>  0 0.63686909E+03</rscale>
<asrwt>0</asrwt>
<pdfrwt beam="1">  1        2 0.11516130E+00 0.74999453E+03</pdfrwt>
<pdfrwt beam="2">  1       -2 0.66801360E-01 0.74999453E+03</pdfrwt>
<totfact> 0.78347883E+01</totfact>
</mgrwt>
</event>
<event>
 4    2  0.6914693E-007  0.7795380E+03  0.7818608E-02  0.9756923E-01
         -2   -1    0    0    0  501 -0.00000000000E+00  0.00000000000E+00  0.32213121408E+03  0.32213121409E+03  0.25500000000E-02 0.  1.
          2   -1    0    0  501    0  0.00000000000E+00 -0.00000000000E+00 -0.15220159025E+04  0.15220159025E+04  0.25500000000E-02 0. -1.
    8880023    1    1    2    0    0 -0.19483119056E+03  0.36865992090E+03 -0.29015131435E+03  0.83178562237E+03  0.65864270000E+03 0.  1.
    8880022    1    1    2    0    0  0.19483119056E+03 -0.36865992090E+03 -0.90973337410E+03  0.10123614943E+04  0.15294330000E+03 0.  0.
<mgrwt>
<rscale>  0 0.67726421E+03</rscale>
<asrwt>0</asrwt>
<pdfrwt beam="1">  1        2 0.23415629E+00 0.77953803E+03</pdfrwt>
<pdfrwt beam="2">  1       -2 0.49558649E-01 0.77953803E+03</pdfrwt>
<totfact> 0.48438353E+01</totfact>
</mgrwt>
</event>
<event>
 4    2  0.6914693E-007  0.6711711E+03  0.7818608E-02  0.1014837E+00
          2   -1    0    0  501    0  0.00000000000E+00  0.00000000000E+00  0.11333572850E+04  0.11333572850E+04  0.25500000000E-02 0. -1.
         -2   -1    0    0    0  501 -0.00000000000E+00 -0.00000000000E+00 -0.20689927555E+03  0.20689927557E+03  0.25500000000E-02 0.  1.
    8880023    1    1    2    0    0  0.12893603014E+03 -0.59934182676E+01  0.41027775362E+03  0.78663744019E+03  0.65864270000E+03 0.  1.
    8880022    1    1    2    0    0 -0.12893603014E+03  0.59934182676E+01  0.51618025580E+03  0.55361912036E+03  0.15294330000E+03 0.  1.
<mgrwt>
<rscale>  0 0.49596731E+03</rscale>
<asrwt>0</asrwt>
<pdfrwt beam="1">  1        2 0.17436266E+00 0.67117109E+03</pdfrwt>
<pdfrwt beam="2">  1       -2 0.31830658E-01 0.67117109E+03</pdfrwt>
<totfact> 0.19379607E+02</totfact>
</mgrwt>
</event>
<event>
 4    2  0.6914693E-007  0.7738628E+03  0.7818608E-02  0.9770456E-01
          2   -1    0    0  501    0  0.00000000000E+00  0.00000000000E+00  0.16784076648E+04  0.16784076648E+04  0.25500000000E-02 0. -1.
         -2   -1    0    0    0  501 -0.00000000000E+00 -0.00000000000E+00 -0.28780932679E+03  0.28780932680E+03  0.25500000000E-02 0.  1.
    8880023    1    1    2    0    0 -0.34098307091E+03  0.22087085469E+03  0.37129680762E+03  0.85832681113E+03  0.65864270000E+03 0.  1.
    8880022    1    1    2    0    0  0.34098307091E+03 -0.22087085469E+03  0.10193015304E+04  0.11078901804E+04  0.15294330000E+03 0.  0.
<mgrwt>
<rscale>  0 0.66972430E+03</rscale>
<asrwt>0</asrwt>
<pdfrwt beam="1">  1        2 0.25821656E+00 0.77386278E+03</pdfrwt>
<pdfrwt beam="2">  1       -2 0.44278358E-01 0.77386278E+03</pdfrwt>
<totfact> 0.49831056E+01</totfact>
</mgrwt>
</event>
<event>
 4    2  0.6914693E-007  0.6849921E+03  0.7818608E-02  0.1006630E+00
         -2   -1    0    0    0  501 -0.00000000000E+00  0.00000000000E+00  0.94572534440E+02  0.94572534474E+02  0.25500000000E-02 0.  1.
          2   -1    0    0  501    0  0.00000000000E+00 -0.00000000000E+00 -0.32052423817E+04  0.32052423817E+04  0.25500000000E-02 0. -1.
    8880023    1    1    2    0    0  0.15975538966E+03 -0.99409471311E+02 -0.12674066045E+04  0.14406712792E+04  0.65864270000E+03 0.  1.
    8880022    1    1    2    0    0 -0.15975538966E+03  0.99409471311E+02 -0.18432632428E+04  0.18591436370E+04  0.15294330000E+03 0.  0.
<mgrwt>
<rscale>  0 0.52836297E+03</rscale>
<asrwt>0</asrwt>
<pdfrwt beam="1">  1        2 0.49311413E+00 0.68499214E+03</pdfrwt>
<pdfrwt beam="2">  1       -2 0.14549623E-01 0.68499214E+03</pdfrwt>
<totfact> 0.50971255E+01</totfact>
</mgrwt>
</event>
<event>
 4    2  0.6914693E-007  0.1178997E+04  0.7818608E-02  0.9177814E-01
          2   -1    0    0  501    0  0.00000000000E+00  0.00000000000E+00  0.27420239791E+04  0.27420239791E+04  0.25500000000E-02 0. -1.
         -2   -1    0    0    0  501 -0.00000000000E+00 -0.00000000000E+00 -0.82298418855E+03  0.82298418855E+03  0.25500000000E-02 0.  1.
    8880023    1    1    2    0    0 -0.78880872059E+03  0.57793142622E+03  0.22342737343E+04  0.25262646847E+04  0.65864270000E+03 0.  0.
    8880022    1    1    2    0    0  0.78880872059E+03 -0.57793142622E+03 -0.31523394374E+03  0.10387434830E+04  0.15294330000E+03 0.  0.
<mgrwt>
<rscale>  0 0.11285388E+04</rscale>
<asrwt>0</asrwt>
<pdfrwt beam="1">  1        2 0.42184984E+00 0.11789971E+04</pdfrwt>
<pdfrwt beam="2">  1       -2 0.12661295E+00 0.11789971E+04</pdfrwt>
<totfact> 0.11470752E+00</totfact>
</mgrwt>
</event>
<event>
 4    2  0.6914693E-007  0.7219481E+03  0.7818608E-02  0.9916049E-01
         -2   -1    0    0    0  501 -0.00000000000E+00  0.00000000000E+00  0.31549362850E+03  0.31549362851E+03  0.25500000000E-02 0.  1.
          2   -1    0    0  501    0  0.00000000000E+00 -0.00000000000E+00 -0.24694094694E+04  0.24694094694E+04  0.25500000000E-02 0. -1.
    8880023    1    1    2    0    0 -0.29240153891E+02 -0.29418330444E+03 -0.12970310149E+03  0.73350658075E+03  0.65864270000E+03 0.  0.
    8880022    1    1    2    0    0  0.29240153891E+02  0.29418330444E+03 -0.20242127394E+04  0.20513965171E+04  0.15294330000E+03 0. -1.
<mgrwt>
<rscale>  0 0.59489766E+03</rscale>
<asrwt>0</asrwt>
<pdfrwt beam="1">  1        2 0.37990914E+00 0.72194807E+03</pdfrwt>
<pdfrwt beam="2">  1       -2 0.48537483E-01 0.72194807E+03</pdfrwt>
<totfact> 0.15319597E+01</totfact>
</mgrwt>
</event>
<event>
 4    2  0.6914693E-007  0.8929629E+03  0.7818608E-02  0.9537424E-01
         -2   -1    0    0    0  501 -0.00000000000E+00  0.00000000000E+00  0.15606005565E+04  0.15606005565E+04  0.25500000000E-02 0.  1.
          2   -1    0    0  501    0  0.00000000000E+00 -0.00000000000E+00 -0.94785690468E+03  0.94785690468E+03  0.25500000000E-02 0. -1.
    8880023    1    1    2    0    0  0.55368485756E+03  0.23875841382E+03  0.13027684463E+04  0.15794265835E+04  0.65864270000E+03 0.  0.
    8880022    1    1    2    0    0 -0.55368485756E+03 -0.23875841382E+03 -0.69002479451E+03  0.92903087769E+03  0.15294330000E+03 0.  0.
<mgrwt>
<rscale>  0 0.81580037E+03</rscale>
<asrwt>0</asrwt>
<pdfrwt beam="1">  1        2 0.14582414E+00 0.89296288E+03</pdfrwt>
<pdfrwt beam="2">  1       -2 0.24009239E+00 0.89296288E+03</pdfrwt>
<totfact> 0.20341379E+00</totfact>
</mgrwt>
</event>
<event>
 4    2  0.6914693E-007  0.6828862E+03  0.7818608E-02  0.1007736E+00
         -2   -1    0    0    0  501 -0.00000000000E+00  0.00000000000E+00  0.48489408438E+03  0.48489408438E+03  0.25500000000E-02 0.  1.
          2   -1    0    0  501    0  0.00000000000E+00 -0.00000000000E+00 -0.45173249459E+03  0.45173249460E+03  0.25500000000E-02 0. -1.
    8880023    1    1    2    0    0 -0.16300775564E+03 -0.77147749962E+02  0.10173058966E+03  0.69042206139E+03  0.65864270000E+03 0.  0.
    8880022    1    1    2    0    0  0.16300775564E+03  0.77147749962E+02 -0.68568999882E+02  0.24620451759E+03  0.15294330000E+03 0. -1.
<mgrwt>
<rscale>  0 0.52384431E+03</rscale>
<asrwt>0</asrwt>
<pdfrwt beam="1">  1        2 0.69497307E-01 0.68288616E+03</pdfrwt>
<pdfrwt beam="2">  1       -2 0.74599090E-01 0.68288616E+03</pdfrwt>
<totfact> 0.11346626E+02</totfact>
</mgrwt>
</event>
<event>
 4    2  0.6914693E-007  0.6867596E+03  0.7818608E-02  0.1005732E+00
         -2   -1    0    0    0  501 -0.00000000000E+00  0.00000000000E+00  0.68397248914E+03  0.68397248915E+03  0.25500000000E-02 0.  1.
          2   -1    0    0  501    0  0.00000000000E+00 -0.00000000000E+00 -0.97601824140E+03  0.97601824141E+03  0.25500000000E-02 0. -1.
    8880023    1    1    2    0    0  0.19382245992E+03 -0.16167931955E+02  0.48745034063E+03  0.84216779138E+03  0.65864270000E+03 0.  1.
    8880022    1    1    2    0    0 -0.19382245992E+03  0.16167931955E+02 -0.77949609289E+03  0.81782293918E+03  0.15294330000E+03 0.  0.
<mgrwt>
<rscale>  0 0.53206587E+03</rscale>
<asrwt>0</asrwt>
<pdfrwt beam="1">  1        2 0.15015665E+00 0.68675960E+03</pdfrwt>
<pdfrwt beam="2">  1       -2 0.10522654E+00 0.68675960E+03</pdfrwt>
<totfact> 0.19535649E+01</totfact>
</mgrwt>
</event>
<event>
 4    2  0.6914693E-007  0.7837010E+03  0.7818608E-02  0.9747214E-01
         -2   -1    0    0    0  501 -0.00000000000E+00  0.00000000000E+00  0.80173303345E+03  0.80173303345E+03  0.25500000000E-02 0.  1.
          2   -1    0    0  501    0  0.00000000000E+00 -0.00000000000E+00 -0.50151109536E+03  0.50151109536E+03  0.25500000000E-02 0. -1.
    8880023    1    1    2    0    0 -0.31409703165E+03  0.28586732581E+03  0.33111945117E+03  0.85078044786E+03  0.65864270000E+03 0.  0.
    8880022    1    1    2    0    0  0.31409703165E+03 -0.28586732581E+03 -0.30897513077E+02  0.45246368095E+03  0.15294330000E+03 0.  0.
<mgrwt>
<rscale>  0 0.68273945E+03</rscale>
<asrwt>0</asrwt>
<pdfrwt beam="1">  1        2 0.77155554E-01 0.78370101E+03</pdfrwt>
<pdfrwt beam="2">  1       -2 0.12334354E+00 0.78370101E+03</pdfrwt>
<totfact> 0.30719873E+01</totfact>
</mgrwt>
</event>
<event>
 4    2  0.6914693E-007  0.1002651E+04  0.7818608E-02  0.9378097E-01
         -2   -1    0    0    0  501 -0.00000000000E+00  0.00000000000E+00  0.57396987733E+03  0.57396987733E+03  0.25500000000E-02 0.  1.
          2   -1    0    0  501    0  0.00000000000E+00 -0.00000000000E+00 -0.14140372634E+04  0.14140372634E+04  0.25500000000E-02 0. -1.
    8880023    1    1    2    0    0  0.37952096876E+03  0.65380648884E+03 -0.30048207810E+03  0.10467085440E+04  0.65864270000E+03 0.  0.
    8880022    1    1    2    0    0 -0.37952096876E+03 -0.65380648884E+03 -0.53958530795E+03  0.94129859670E+03  0.15294330000E+03 0.  0.
<mgrwt>
<rscale>  0 0.93900313E+03</rscale>
<asrwt>0</asrwt>
<pdfrwt beam="1">  1        2 0.21754419E+00 0.10026511E+04</pdfrwt>
<pdfrwt beam="2">  1       -2 0.88303058E-01 0.10026511E+04</pdfrwt>
<totfact> 0.15617596E+01</totfact>
</mgrwt>
</event>
<event>
 4    2  0.6914693E-007  0.7960307E+03  0.7818608E-02  0.9719445E-01
         -2   -1    0    0    0  501 -0.00000000000E+00  0.00000000000E+00  0.10160495470E+04  0.10160495470E+04  0.25500000000E-02 0.  1.
          2   -1    0    0  501    0  0.00000000000E+00 -0.00000000000E+00 -0.66644651365E+03  0.66644651366E+03  0.25500000000E-02 0. -1.
    8880023    1    1    2    0    0 -0.38362029156E+03 -0.22954335606E+03  0.72679556554E+03  0.10779131137E+04  0.65864270000E+03 0.  0.
    8880022    1    1    2    0    0  0.38362029156E+03  0.22954335606E+03 -0.37719253217E+03  0.60458294695E+03  0.15294330000E+03 0.  0.
<mgrwt>
<rscale>  0 0.69870750E+03</rscale>
<asrwt>0</asrwt>
<pdfrwt beam="1">  1        2 0.10253023E+00 0.79603071E+03</pdfrwt>
<pdfrwt beam="2">  1       -2 0.15631532E+00 0.79603071E+03</pdfrwt>
<totfact> 0.11820956E+01</totfact>
</mgrwt>
</event>
<event>
 4    2  0.6914693E-007  0.9180821E+03  0.7818608E-02  0.9497606E-01
          2   -1    0    0  501    0  0.00000000000E+00  0.00000000000E+00  0.11870795843E+04  0.11870795843E+04  0.25500000000E-02 0. -1.
         -2   -1    0    0    0  501 -0.00000000000E+00 -0.00000000000E+00 -0.12941668756E+04  0.12941668756E+04  0.25500000000E-02 0.  1.
    8880023    1    1    2    0    0  0.58886892392E+03 -0.24959543146E+03 -0.10095671453E+04  0.13645880390E+04  0.65864270000E+03 0.  0.
    8880022    1    1    2    0    0 -0.58886892392E+03  0.24959543146E+03  0.90247985401E+03  0.11166584209E+04  0.15294330000E+03 0.  0.
<mgrwt>
<rscale>  0 0.84460547E+03</rscale>
<asrwt>0</asrwt>
<pdfrwt beam="1">  1        2 0.18262763E+00 0.91808207E+03</pdfrwt>
<pdfrwt beam="2">  1       -2 0.19910260E+00 0.91808207E+03</pdfrwt>
<totfact> 0.26055264E+00</totfact>
</mgrwt>
</event>
<event>
 4    2  0.6914693E-007  0.1115529E+04  0.7818608E-02  0.9243960E-01
         -2   -1    0    0    0  501 -0.00000000000E+00  0.00000000000E+00  0.57189776112E+03  0.57189776113E+03  0.25500000000E-02 0.  1.
          2   -1    0    0  501    0  0.00000000000E+00 -0.00000000000E+00 -0.31533666244E+04  0.31533666244E+04  0.25500000000E-02 0. -1.
    8880023    1    1    2    0    0  0.76592753054E+03  0.47323442443E+03 -0.14703641851E+03  0.11251780824E+04  0.65864270000E+03 0.  1.
    8880022    1    1    2    0    0 -0.76592753054E+03 -0.47323442443E+03 -0.24344324448E+04  0.26000863031E+04  0.15294330000E+03 0.  0.
<mgrwt>
<rscale>  0 0.10610986E+04</rscale>
<asrwt>0</asrwt>
<pdfrwt beam="1">  1        2 0.48513332E+00 0.11155295E+04</pdfrwt>
<pdfrwt beam="2">  1       -2 0.87984273E-01 0.11155295E+04</pdfrwt>
<totfact> 0.15585816E+00</totfact>
</mgrwt>
</event>
<event>
 4    2  0.6914693E-007  0.9662363E+03  0.7818608E-02  0.9427129E-01
          2   -1    0    0  501    0  0.00000000000E+00  0.00000000000E+00  0.21324042540E+04  0.21324042540E+04  0.25500000000E-02 0. -1.
         -2   -1    0    0    0  501 -0.00000000000E+00 -0.00000000000E+00 -0.50780418416E+03  0.50780418417E+03  0.25500000000E-02 0.  1.
    8880023    1    1    2    0    0  0.10856962819E+02  0.70688362551E+03  0.12372014384E+03  0.97412484514E+03  0.65864270000E+03 0. -1.
    8880022    1    1    2    0    0 -0.10856962819E+02 -0.70688362551E+03  0.15008799260E+04  0.16660835930E+04  0.15294330000E+03 0.  0.
<mgrwt>
<rscale>  0 0.89876333E+03</rscale>
<asrwt>0</asrwt>
<pdfrwt beam="1">  1        2 0.32806220E+00 0.96623628E+03</pdfrwt>
<pdfrwt beam="2">  1       -2 0.78123720E-01 0.96623628E+03</pdfrwt>
<totfact> 0.82840554E+00</totfact>
</mgrwt>
</event>
<event>
 4    2  0.6914693E-007  0.1414560E+04  0.7818608E-02  0.8972451E-01
         -2   -1    0    0    0  501 -0.00000000000E+00  0.00000000000E+00  0.13884015348E+04  0.13884015348E+04  0.25500000000E-02 0.  1.
          2   -1    0    0  501    0  0.00000000000E+00 -0.00000000000E+00 -0.15179425060E+04  0.15179425060E+04  0.25500000000E-02 0. -1.
    8880023    1    1    2    0    0 -0.11044887970E+04 -0.58929864214E+03  0.49543235322E+03  0.14988101331E+04  0.65864270000E+03 0.  0.
    8880022    1    1    2    0    0  0.11044887970E+04  0.58929864214E+03 -0.62497332442E+03  0.14075339078E+04  0.15294330000E+03 0.  0.
<mgrwt>
<rscale>  0 0.13745473E+04</rscale>
<asrwt>0</asrwt>
<pdfrwt beam="1">  1        2 0.23352962E+00 0.14145595E+04</pdfrwt>
<pdfrwt beam="2">  1       -2 0.21360024E+00 0.14145595E+04</pdfrwt>
<totfact> 0.12774743E+00</totfact>
</mgrwt>
</event>
<event>
 4    2  0.6914693E-007  0.7773075E+03  0.7818608E-02  0.9762200E-01
         -2   -1    0    0    0  501 -0.00000000000E+00  0.00000000000E+00  0.12486572838E+04  0.12486572838E+04  0.25500000000E-02 0.  1.
          2   -1    0    0  501    0  0.00000000000E+00 -0.00000000000E+00 -0.11082563296E+04  0.11082563296E+04  0.25500000000E-02 0. -1.
    8880023    1    1    2    0    0  0.34484327628E+03 -0.22689188870E+03  0.10733917495E+04  0.13252836936E+04  0.65864270000E+03 0.  1.
    8880022    1    1    2    0    0 -0.34484327628E+03  0.22689188870E+03 -0.93299079525E+03  0.10316299198E+04  0.15294330000E+03 0.  0.
<mgrwt>
<rscale>  0 0.67431164E+03</rscale>
<asrwt>0</asrwt>
<pdfrwt beam="1">  1        2 0.17050097E+00 0.77730755E+03</pdfrwt>
<pdfrwt beam="2">  1       -2 0.19210112E+00 0.77730755E+03</pdfrwt>
<totfact> 0.32967311E+00</totfact>
</mgrwt>
</event>
<event>
 4    2  0.6914693E-007  0.6700301E+03  0.7818608E-02  0.1015641E+00
          2   -1    0    0  501    0  0.00000000000E+00  0.00000000000E+00  0.19821593236E+04  0.19821593236E+04  0.25500000000E-02 0. -1.
         -2   -1    0    0    0  501 -0.00000000000E+00 -0.00000000000E+00 -0.12786167664E+03  0.12786167666E+03  0.25500000000E-02 0.  1.
    8880023    1    1    2    0    0 -0.73935244796E+02 -0.98304335288E+02  0.82807826217E+03  0.10652013788E+04  0.65864270000E+03 0.  1.
    8880022    1    1    2    0    0  0.73935244796E+02  0.98304335288E+02  0.10262193848E+04  0.10448196215E+04  0.15294330000E+03 0.  0.
<mgrwt>
<rscale>  0 0.49292868E+03</rscale>
<asrwt>0</asrwt>
<pdfrwt beam="1">  1        2 0.30494759E+00 0.67003013E+03</pdfrwt>
<pdfrwt beam="2">  1       -2 0.19671027E-01 0.67003013E+03</pdfrwt>
<totfact> 0.15505872E+02</totfact>
</mgrwt>
</event>
<event>
 4    2  0.6914693E-007  0.9404779E+03  0.7818608E-02  0.9463949E-01
         -2   -1    0    0    0  501 -0.00000000000E+00  0.00000000000E+00  0.26537893386E+03  0.26537893387E+03  0.25500000000E-02 0.  1.
          2   -1    0    0  501    0  0.00000000000E+00 -0.00000000000E+00 -0.29356403643E+04  0.29356403643E+04  0.25500000000E-02 0. -1.
    8880023    1    1    2    0    0 -0.64903238566E+03 -0.17159696825E+03 -0.90065980109E+03  0.13021854095E+04  0.65864270000E+03 0.  0.
    8880022    1    1    2    0    0  0.64903238566E+03  0.17159696825E+03 -0.17696016294E+04  0.18988338887E+04  0.15294330000E+03 0.  0.
<mgrwt>
<rscale>  0 0.86994729E+03</rscale>
<asrwt>0</asrwt>
<pdfrwt beam="1">  1        2 0.45163696E+00 0.94047794E+03</pdfrwt>
<pdfrwt beam="2">  1       -2 0.40827530E-01 0.94047794E+03</pdfrwt>
<totfact> 0.11171296E+01</totfact>
</mgrwt>
</event>
<event>
 4    2  0.6914693E-007  0.6791740E+03  0.7818608E-02  0.1009795E+00
          2   -1    0    0  501    0  0.00000000000E+00  0.00000000000E+00  0.44194172530E+03  0.44194172530E+03  0.25500000000E-02 0. -1.
         -2   -1    0    0    0  501 -0.00000000000E+00 -0.00000000000E+00 -0.66105819360E+03  0.66105819360E+03  0.25500000000E-02 0.  1.
    8880023    1    1    2    0    0 -0.15190803420E+03  0.66264664356E+02 -0.42204222169E+03  0.79962297350E+03  0.65864270000E+03 0.  1.
    8880022    1    1    2    0    0  0.15190803420E+03 -0.66264664356E+02  0.20292575340E+03  0.30337694540E+03  0.15294330000E+03 0.  0.
<mgrwt>
<rscale>  0 0.51556264E+03</rscale>
<asrwt>0</asrwt>
<pdfrwt beam="1">  1        2 0.67991035E-01 0.67917396E+03</pdfrwt>
<pdfrwt beam="2">  1       -2 0.10170126E+00 0.67917396E+03</pdfrwt>
<totfact> 0.57235585E+01</totfact>
</mgrwt>
</event>
<event>
 4    2  0.6914693E-007  0.8801841E+03  0.7818608E-02  0.9558622E-01
          2   -1    0    0  501    0  0.00000000000E+00  0.00000000000E+00  0.27968656436E+04  0.27968656436E+04  0.25500000000E-02 0. -1.
         -2   -1    0    0    0  501 -0.00000000000E+00 -0.00000000000E+00 -0.33535854171E+03  0.33535854172E+03  0.25500000000E-02 0.  1.
    8880023    1    1    2    0    0  0.32252176869E+03 -0.48671708346E+03  0.36899446672E+03  0.95440082426E+03  0.65864270000E+03 0.  0.
    8880022    1    1    2    0    0 -0.32252176869E+03  0.48671708346E+03  0.20925126352E+04  0.21778233611E+04  0.15294330000E+03 0.  0.
<mgrwt>
<rscale>  0 0.80096464E+03</rscale>
<asrwt>0</asrwt>
<pdfrwt beam="1">  1        2 0.43028702E+00 0.88018408E+03</pdfrwt>
<pdfrwt beam="2">  1       -2 0.51593622E-01 0.88018408E+03</pdfrwt>
<totfact> 0.85338731E+00</totfact>
</mgrwt>
</event>
<event>
 4    2  0.6914693E-007  0.1472675E+04  0.7818608E-02  0.8929176E-01
         -2   -1    0    0    0  501 -0.00000000000E+00  0.00000000000E+00  0.26079159882E+04  0.26079159882E+04  0.25500000000E-02 0.  1.
          2   -1    0    0  501    0  0.00000000000E+00 -0.00000000000E+00 -0.13077296217E+04  0.13077296217E+04  0.25500000000E-02 0. -1.
    8880023    1    1    2    0    0  0.67491499076E+03  0.11311279929E+04 -0.60692764256E+03  0.15928377665E+04  0.65864270000E+03 0.  0.
    8880022    1    1    2    0    0 -0.67491499076E+03 -0.11311279929E+04  0.19071140091E+04  0.23228078434E+04  0.15294330000E+03 0.  0.
<mgrwt>
<rscale>  0 0.14345589E+04</rscale>
<asrwt>0</asrwt>
<pdfrwt beam="1">  1        2 0.20118917E+00 0.14726748E+04</pdfrwt>
<pdfrwt beam="2">  1       -2 0.40121784E+00 0.14726748E+04</pdfrwt>
<totfact> 0.11302894E-01</totfact>
</mgrwt>
</event>
<event>
 4    2  0.6914693E-007  0.6942238E+03  0.7818608E-02  0.1002206E+00
          2   -1    0    0  501    0  0.00000000000E+00  0.00000000000E+00  0.18513166994E+04  0.18513166994E+04  0.25500000000E-02 0. -1.
         -2   -1    0    0    0  501 -0.00000000000E+00 -0.00000000000E+00 -0.18358077993E+03  0.18358077995E+03  0.25500000000E-02 0.  1.
    8880023    1    1    2    0    0 -0.19875385962E+03 -0.92916167877E+02  0.55022756471E+03  0.88583129895E+03  0.65864270000E+03 0.  1.
    8880022    1    1    2    0    0  0.19875385962E+03  0.92916167877E+02  0.11175083548E+04  0.11490661804E+04  0.15294330000E+03 0.  0.
<mgrwt>
<rscale>  0 0.54693318E+03</rscale>
<asrwt>0</asrwt>
<pdfrwt beam="1">  1        2 0.28481795E+00 0.69422382E+03</pdfrwt>
<pdfrwt beam="2">  1       -2 0.28243197E-01 0.69422382E+03</pdfrwt>
<totfact> 0.95426541E+01</totfact>
</mgrwt>
</event>
<event>
 4    2  0.6914693E-007  0.7021620E+03  0.7818608E-02  0.9988348E-01
         -2   -1    0    0    0  501 -0.00000000000E+00  0.00000000000E+00  0.10536889802E+04  0.10536889802E+04  0.25500000000E-02 0.  1.
          2   -1    0    0  501    0  0.00000000000E+00 -0.00000000000E+00 -0.66984028870E+03  0.66984028871E+03  0.25500000000E-02 0. -1.
    8880023    1    1    2    0    0 -0.16902294061E+03  0.17507878327E+03  0.89472442541E+03  0.11373492597E+04  0.65864270000E+03 0.  0.
    8880022    1    1    2    0    0  0.16902294061E+03 -0.17507878327E+03 -0.51087573387E+03  0.58618000928E+03  0.15294330000E+03 0.  0.
<mgrwt>
<rscale>  0 0.56164132E+03</rscale>
<asrwt>0</asrwt>
<pdfrwt beam="1">  1        2 0.10305235E+00 0.70216205E+03</pdfrwt>
<pdfrwt beam="2">  1       -2 0.16210600E+00 0.70216205E+03</pdfrwt>
<totfact> 0.10752011E+01</totfact>
</mgrwt>
</event>
<event>
 4    2  0.6914693E-007  0.7206899E+03  0.7818608E-02  0.9920258E-01
          2   -1    0    0  501    0  0.00000000000E+00  0.00000000000E+00  0.15260923417E+04  0.15260923417E+04  0.25500000000E-02 0. -1.
         -2   -1    0    0    0  501 -0.00000000000E+00 -0.00000000000E+00 -0.21548550239E+03  0.21548550241E+03  0.25500000000E-02 0.  1.
    8880023    1    1    2    0    0  0.24481802834E+03 -0.16014951080E+03  0.53168596894E+03  0.89559137370E+03  0.65864270000E+03 0.  0.
    8880022    1    1    2    0    0 -0.24481802834E+03  0.16014951080E+03  0.77892087033E+03  0.84598647038E+03  0.15294330000E+03 0.  0.
<mgrwt>
<rscale>  0 0.59289444E+03</rscale>
<asrwt>0</asrwt>
<pdfrwt beam="1">  1        2 0.23478343E+00 0.72068990E+03</pdfrwt>
<pdfrwt beam="2">  1       -2 0.33151616E-01 0.72068990E+03</pdfrwt>
<totfact> 0.10642554E+02</totfact>
</mgrwt>
</event>
<event>
 4    2  0.6914693E-007  0.9740738E+03  0.7818608E-02  0.9416292E-01
          2   -1    0    0  501    0  0.00000000000E+00  0.00000000000E+00  0.10390535236E+04  0.10390535236E+04  0.25500000000E-02 0. -1.
         -2   -1    0    0    0  501 -0.00000000000E+00 -0.00000000000E+00 -0.11170795228E+04  0.11170795228E+04  0.25500000000E-02 0.  1.
    8880023    1    1    2    0    0  0.59820694836E+03  0.39643160576E+03 -0.69570271443E+03  0.11970054487E+04  0.65864270000E+03 0.  0.
    8880022    1    1    2    0    0 -0.59820694836E+03 -0.39643160576E+03  0.61767671523E+03  0.95912759770E+03  0.15294330000E+03 0.  0.
<mgrwt>
<rscale>  0 0.90746974E+03</rscale>
<asrwt>0</asrwt>
<pdfrwt beam="1">  1        2 0.15985439E+00 0.97407380E+03</pdfrwt>
<pdfrwt beam="2">  1       -2 0.17185839E+00 0.97407380E+03</pdfrwt>
<totfact> 0.48871673E+00</totfact>
</mgrwt>
</event>
<event>
 4    2  0.6914693E-007  0.6816546E+03  0.7818608E-02  0.1008403E+00
          2   -1    0    0  501    0  0.00000000000E+00  0.00000000000E+00  0.40665593104E+03  0.40665593105E+03  0.25500000000E-02 0. -1.
         -2   -1    0    0    0  501 -0.00000000000E+00 -0.00000000000E+00 -0.13776547086E+04  0.13776547086E+04  0.25500000000E-02 0.  1.
    8880023    1    1    2    0    0  0.45934600730E+02 -0.16950740692E+03 -0.12482406225E+04  0.14222368321E+04  0.65864270000E+03 0.  1.
    8880022    1    1    2    0    0 -0.45934600730E+02  0.16950740692E+03  0.27724184494E+03  0.36207380759E+03  0.15294330000E+03 0.  0.
<mgrwt>
<rscale>  0 0.52114385E+03</rscale>
<asrwt>0</asrwt>
<pdfrwt beam="1">  1        2 0.62562452E-01 0.68165457E+03</pdfrwt>
<pdfrwt beam="2">  1       -2 0.21194688E+00 0.68165457E+03</pdfrwt>
<totfact> 0.89307605E+00</totfact>
</mgrwt>
</event>
<event>
 4    2  0.6914693E-007  0.7220515E+03  0.7818608E-02  0.9915704E-01
          2   -1    0    0  501    0  0.00000000000E+00  0.00000000000E+00  0.22125205679E+04  0.22125205679E+04  0.25500000000E-02 0. -1.
         -2   -1    0    0    0  501 -0.00000000000E+00 -0.00000000000E+00 -0.27970571222E+03  0.27970571223E+03  0.25500000000E-02 0.  1.
    8880023    1    1    2    0    0 -0.16292003799E+03 -0.24699244348E+03  0.23096949352E+03  0.75809321268E+03  0.65864270000E+03 0.  1.
    8880022    1    1    2    0    0  0.16292003799E+03  0.24699244348E+03  0.17018453621E+04  0.17341330674E+04  0.15294330000E+03 0.  0.
<mgrwt>
<rscale>  0 0.59506183E+03</rscale>
<asrwt>0</asrwt>
<pdfrwt beam="1">  1        2 0.34038777E+00 0.72205153E+03</pdfrwt>
<pdfrwt beam="2">  1       -2 0.43031649E-01 0.72205153E+03</pdfrwt>
<totfact> 0.27095092E+01</totfact>
</mgrwt>
</event>
<event>
 4    2  0.6914693E-007  0.8258731E+03  0.7818608E-02  0.9657416E-01
         -2   -1    0    0    0  501 -0.00000000000E+00  0.00000000000E+00  0.56327027682E+03  0.56327027682E+03  0.25500000000E-02 0.  1.
          2   -1    0    0  501    0  0.00000000000E+00 -0.00000000000E+00 -0.12576205148E+04  0.12576205148E+04  0.25500000000E-02 0. -1.
    8880023    1    1    2    0    0 -0.34744902001E+03 -0.35712102308E+03  0.13948090712E+03  0.83756872933E+03  0.65864270000E+03 0.  0.
    8880022    1    1    2    0    0  0.34744902001E+03  0.35712102308E+03 -0.83383114509E+03  0.98332206229E+03  0.15294330000E+03 0.  0.
<mgrwt>
<rscale>  0 0.73609828E+03</rscale>
<asrwt>0</asrwt>
<pdfrwt beam="1">  1        2 0.19348008E+00 0.82587315E+03</pdfrwt>
<pdfrwt beam="2">  1       -2 0.86656966E-01 0.82587315E+03</pdfrwt>
<totfact> 0.20416969E+01</totfact>
</mgrwt>
</event>
<event>
 4    2  0.6914693E-007  0.1452346E+04  0.7818608E-02  0.8944040E-01
         -2   -1    0    0    0  501 -0.00000000000E+00  0.00000000000E+00  0.61001084017E+03  0.61001084017E+03  0.25500000000E-02 0.  1.
          2   -1    0    0  501    0  0.00000000000E+00 -0.00000000000E+00 -0.32945467342E+04  0.32945467342E+04  0.25500000000E-02 0. -1.
    8880023    1    1    2    0    0 -0.10690580484E+04 -0.72980452845E+03 -0.18692943700E+04  0.23671863907E+04  0.65864270000E+03 0.  0.
    8880022    1    1    2    0    0  0.10690580484E+04  0.72980452845E+03 -0.81524152404E+03  0.15373711836E+04  0.15294330000E+03 0.  0.
<mgrwt>
<rscale>  0 0.14135896E+04</rscale>
<asrwt>0</asrwt>
<pdfrwt beam="1">  1        2 0.50685333E+00 0.14523464E+04</pdfrwt>
<pdfrwt beam="2">  1       -2 0.93847824E-01 0.14523464E+04</pdfrwt>
<totfact> 0.10404130E+00</totfact>
</mgrwt>
</event>
<event>
 4    2  0.6914693E-007  0.8271943E+03  0.7818608E-02  0.9654816E-01
         -2   -1    0    0    0  501 -0.00000000000E+00  0.00000000000E+00  0.48509391701E+03  0.48509391702E+03  0.25500000000E-02 0.  1.
          2   -1    0    0  501    0  0.00000000000E+00 -0.00000000000E+00 -0.13717808313E+04  0.13717808313E+04  0.25500000000E-02 0. -1.
    8880023    1    1    2    0    0 -0.49999126769E+03  0.21188820617E+02  0.11063076984E+00  0.82719432565E+03  0.65864270000E+03 0.  1.
    8880022    1    1    2    0    0  0.49999126769E+03 -0.21188820617E+02 -0.88679754508E+03  0.10296804227E+04  0.15294330000E+03 0.  0.
<mgrwt>
<rscale>  0 0.73771932E+03</rscale>
<asrwt>0</asrwt>
<pdfrwt beam="1">  1        2 0.21104320E+00 0.82719432E+03</pdfrwt>
<pdfrwt beam="2">  1       -2 0.74629834E-01 0.82719432E+03</pdfrwt>
<totfact> 0.24565718E+01</totfact>
</mgrwt>
</event>
<event>
 4    2  0.6914693E-007  0.1025636E+04  0.7818608E-02  0.9348761E-01
          2   -1    0    0  501    0  0.00000000000E+00  0.00000000000E+00  0.33339125784E+04  0.33339125784E+04  0.25500000000E-02 0. -1.
         -2   -1    0    0    0  501 -0.00000000000E+00 -0.00000000000E+00 -0.28897321622E+03  0.28897321623E+03  0.25500000000E-02 0.  1.
    8880023    1    1    2    0    0  0.74475919184E+03 -0.25189758918E+03  0.10253238732E+04  0.14502475307E+04  0.65864270000E+03 0.  0.
    8880022    1    1    2    0    0 -0.74475919184E+03  0.25189758918E+03  0.20196154890E+04  0.21726382638E+04  0.15294330000E+03 0.  0.
<mgrwt>
<rscale>  0 0.96415164E+03</rscale>
<asrwt>0</asrwt>
<pdfrwt beam="1">  1        2 0.51290965E+00 0.10256358E+04</pdfrwt>
<pdfrwt beam="2">  1       -2 0.44457416E-01 0.10256358E+04</pdfrwt>
<totfact> 0.52153290E+00</totfact>
</mgrwt>
</event>
<event>
 4    2  0.6914693E-007  0.7067269E+03  0.7818608E-02  0.9970362E-01
          2   -1    0    0  501    0  0.00000000000E+00  0.00000000000E+00  0.34211322324E+04  0.34211322324E+04  0.25500000000E-02 0. -1.
         -2   -1    0    0    0  501 -0.00000000000E+00 -0.00000000000E+00 -0.15086122398E+03  0.15086122401E+03  0.25500000000E-02 0.  1.
    8880023    1    1    2    0    0 -0.25271930668E+03 -0.42256901726E+02  0.73657807086E+03  0.10207889863E+04  0.65864270000E+03 0.  1.
    8880022    1    1    2    0    0  0.25271930668E+03  0.42256901726E+02  0.25336929376E+04  0.25512044702E+04  0.15294330000E+03 0.  0.
<mgrwt>
<rscale>  0 0.56969119E+03</rscale>
<asrwt>0</asrwt>
<pdfrwt beam="1">  1        2 0.52632805E+00 0.70672689E+03</pdfrwt>
<pdfrwt beam="2">  1       -2 0.23209419E-01 0.70672689E+03</pdfrwt>
<totfact> 0.16368184E+01</totfact>
</mgrwt>
</event>
<event>
 4    2  0.6914693E-007  0.6976843E+03  0.7818608E-02  0.1000695E+00
         -2   -1    0    0    0  501 -0.00000000000E+00  0.00000000000E+00  0.15629626407E+03  0.15629626409E+03  0.25500000000E-02 0.  1.
          2   -1    0    0  501    0  0.00000000000E+00 -0.00000000000E+00 -0.17229930079E+04  0.17229930079E+04  0.25500000000E-02 0. -1.
    8880023    1    1    2    0    0 -0.13883665708E+03  0.18351435406E+03 -0.78518366482E+03  0.10503698060E+04  0.65864270000E+03 0.  0.
    8880022    1    1    2    0    0  0.13883665708E+03 -0.18351435406E+03 -0.78151307905E+03  0.82891946607E+03  0.15294330000E+03 0.  0.
<mgrwt>
<rscale>  0 0.55346686E+03</rscale>
<asrwt>0</asrwt>
<pdfrwt beam="1">  1        2 0.26507583E+00 0.69768427E+03</pdfrwt>
<pdfrwt beam="2">  1       -2 0.24045580E-01 0.69768427E+03</pdfrwt>
<totfact> 0.14999684E+02</totfact>
</mgrwt>
</event>
<event>
 4    2  0.6914693E-007  0.6868895E+03  0.7818608E-02  0.1005667E+00
          2   -1    0    0  501    0  0.00000000000E+00  0.00000000000E+00  0.43836271159E+03  0.43836271160E+03  0.25500000000E-02 0. -1.
         -2   -1    0    0    0  501 -0.00000000000E+00 -0.00000000000E+00 -0.72913166521E+03  0.72913166522E+03  0.25500000000E-02 0.  1.
    8880023    1    1    2    0    0 -0.22735262384E+00 -0.19495356513E+03 -0.49477325909E+03  0.84653276866E+03  0.65864270000E+03 0.  1.
    8880022    1    1    2    0    0  0.22735262384E+00  0.19495356513E+03  0.20400430546E+03  0.32096160815E+03  0.15294330000E+03 0.  0.
<mgrwt>
<rscale>  0 0.53233492E+03</rscale>
<asrwt>0</asrwt>
<pdfrwt beam="1">  1        2 0.67440417E-01 0.68688947E+03</pdfrwt>
<pdfrwt beam="2">  1       -2 0.11217410E+00 0.68688947E+03</pdfrwt>
<totfact> 0.45614146E+01</totfact>
</mgrwt>
</event>
<event>
 4    2  0.6914693E-007  0.8609976E+03  0.7818608E-02  0.9591791E-01
         -2   -1    0    0    0  501 -0.00000000000E+00  0.00000000000E+00  0.35967950203E+03  0.35967950204E+03  0.25500000000E-02 0.  1.
          2   -1    0    0  501    0  0.00000000000E+00 -0.00000000000E+00 -0.21750394910E+04  0.21750394910E+04  0.25500000000E-02 0. -1.
    8880023    1    1    2    0    0 -0.35085496009E+02 -0.55342171578E+03 -0.29656910864E+03  0.91064264670E+03  0.65864270000E+03 0.  0.
    8880022    1    1    2    0    0  0.35085496009E+02  0.55342171578E+03 -0.15187908803E+04  0.16240763463E+04  0.15294330000E+03 0.  0.
<mgrwt>
<rscale>  0 0.77841868E+03</rscale>
<asrwt>0</asrwt>
<pdfrwt beam="1">  1        2 0.33462145E+00 0.86099756E+03</pdfrwt>
<pdfrwt beam="2">  1       -2 0.55335309E-01 0.86099756E+03</pdfrwt>
<totfact> 0.16747689E+01</totfact>
</mgrwt>
</event>
<event>
 4    2  0.6914693E-007  0.6749807E+03  0.7818608E-02  0.1012318E+00
          2   -1    0    0  501    0  0.00000000000E+00  0.00000000000E+00  0.13752787799E+04  0.13752787799E+04  0.25500000000E-02 0. -1.
         -2   -1    0    0    0  501 -0.00000000000E+00 -0.00000000000E+00 -0.43279323287E+03  0.43279323287E+03  0.25500000000E-02 0.  1.
    8880023    1    1    2    0    0  0.64432459325E+01 -0.14746942963E+03 -0.15304306550E+03  0.69211352700E+03  0.65864270000E+03 0.  1.
    8880022    1    1    2    0    0 -0.64432459325E+01  0.14746942963E+03  0.10955286125E+04  0.11159584857E+04  0.15294330000E+03 0.  0.
<mgrwt>
<rscale>  0 0.50563518E+03</rscale>
<asrwt>0</asrwt>
<pdfrwt beam="1">  1        2 0.21158135E+00 0.67498071E+03</pdfrwt>
<pdfrwt beam="2">  1       -2 0.66583574E-01 0.67498071E+03</pdfrwt>
<totfact> 0.31919482E+01</totfact>
</mgrwt>
</event>
<event>
 4    2  0.6914693E-007  0.8936792E+03  0.7818608E-02  0.9536256E-01
         -2   -1    0    0    0  501 -0.00000000000E+00  0.00000000000E+00  0.47450154379E+03  0.47450154380E+03  0.25500000000E-02 0.  1.
          2   -1    0    0  501    0  0.00000000000E+00 -0.00000000000E+00 -0.17869083577E+04  0.17869083577E+04  0.25500000000E-02 0. -1.
    8880023    1    1    2    0    0 -0.58846733484E+03  0.13622977745E+03 -0.10128045209E+03  0.89939996257E+03  0.65864270000E+03 0.  0.
    8880022    1    1    2    0    0  0.58846733484E+03 -0.13622977745E+03 -0.12111263618E+04  0.13620099389E+04  0.15294330000E+03 0.  0.
<mgrwt>
<rscale>  0 0.81662814E+03</rscale>
<asrwt>0</asrwt>
<pdfrwt beam="1">  1        2 0.27490897E+00 0.89367923E+03</pdfrwt>
<pdfrwt beam="2">  1       -2 0.73000239E-01 0.89367923E+03</pdfrwt>
<totfact> 0.15048171E+01</totfact>
</mgrwt>
</event>
<event>
 4    2  0.6914693E-007  0.8208552E+03  0.7818608E-02  0.9667394E-01
         -2   -1    0    0    0  501 -0.00000000000E+00  0.00000000000E+00  0.23877896236E+04  0.23877896236E+04  0.25500000000E-02 0.  1.
          2   -1    0    0  501    0  0.00000000000E+00 -0.00000000000E+00 -0.21981352223E+03  0.21981352225E+03  0.25500000000E-02 0. -1.
    8880023    1    1    2    0    0 -0.32494256147E+03 -0.36661347806E+03  0.17931033665E+04  0.19720605974E+04  0.65864270000E+03 0.  1.
    8880022    1    1    2    0    0  0.32494256147E+03  0.36661347806E+03  0.37487273486E+03  0.63554254846E+03  0.15294330000E+03 0.  0.
<mgrwt>
<rscale>  0 0.72991747E+03</rscale>
<asrwt>0</asrwt>
<pdfrwt beam="1">  1        2 0.33817462E-01 0.82085523E+03</pdfrwt>
<pdfrwt beam="2">  1       -2 0.36735228E+00 0.82085523E+03</pdfrwt>
<totfact> 0.19596426E+00</totfact>
</mgrwt>
</event>
<event>
 4    2  0.6914693E-007  0.7890786E+03  0.7818608E-02  0.9734928E-01
          2   -1    0    0  501    0  0.00000000000E+00  0.00000000000E+00  0.22234421189E+04  0.22234421189E+04  0.25500000000E-02 0. -1.
         -2   -1    0    0    0  501 -0.00000000000E+00 -0.00000000000E+00 -0.26515371767E+03  0.26515371768E+03  0.25500000000E-02 0.  1.
    8880023    1    1    2    0    0  0.31464394422E+03  0.29972330165E+03  0.44321666787E+03  0.90503375082E+03  0.65864270000E+03 0.  1.
    8880022    1    1    2    0    0 -0.31464394422E+03 -0.29972330165E+03  0.15150717333E+04  0.15835620857E+04  0.15294330000E+03 0.  0.
<mgrwt>
<rscale>  0 0.68974755E+03</rscale>
<asrwt>0</asrwt>
<pdfrwt beam="1">  1        2 0.34206803E+00 0.78907862E+03</pdfrwt>
<pdfrwt beam="2">  1       -2 0.40792878E-01 0.78907862E+03</pdfrwt>
<totfact> 0.29413965E+01</totfact>
</mgrwt>
</event>
<event>
 4    2  0.6914693E-007  0.9563207E+03  0.7818608E-02  0.9441078E-01
          2   -1    0    0  501    0  0.00000000000E+00  0.00000000000E+00  0.77323262203E+03  0.77323262203E+03  0.25500000000E-02 0. -1.
         -2   -1    0    0    0  501 -0.00000000000E+00 -0.00000000000E+00 -0.10395536126E+04  0.10395536126E+04  0.25500000000E-02 0.  1.
    8880023    1    1    2    0    0  0.69307309001E+03 -0.19719352717E+02 -0.48174033893E+03  0.10708048942E+04  0.65864270000E+03 0.  0.
    8880022    1    1    2    0    0 -0.69307309001E+03  0.19719352717E+02  0.21541934834E+03  0.74198134048E+03  0.15294330000E+03 0.  0.
<mgrwt>
<rscale>  0 0.88770893E+03</rscale>
<asrwt>0</asrwt>
<pdfrwt beam="1">  1        2 0.11895887E+00 0.95632074E+03</pdfrwt>
<pdfrwt beam="2">  1       -2 0.15993132E+00 0.95632074E+03</pdfrwt>
<totfact> 0.90488989E+00</totfact>
</mgrwt>
</event>
<event>
 4    2  0.6914693E-007  0.7177571E+03  0.7818608E-02  0.9930249E-01
          2   -1    0    0  501    0  0.00000000000E+00  0.00000000000E+00  0.14195460183E+04  0.14195460183E+04  0.25500000000E-02 0. -1.
         -2   -1    0    0    0  501 -0.00000000000E+00 -0.00000000000E+00 -0.40716047261E+03  0.40716047262E+03  0.25500000000E-02 0.  1.
    8880023    1    1    2    0    0  0.26073046588E+03 -0.11569230587E+03 -0.46693857089E+02  0.71927436214E+03  0.65864270000E+03 0.  1.
    8880022    1    1    2    0    0 -0.26073046588E+03  0.11569230587E+03  0.10590794028E+04  0.11074321288E+04  0.15294330000E+03 0.  0.
<mgrwt>
<rscale>  0 0.58817408E+03</rscale>
<asrwt>0</asrwt>
<pdfrwt beam="1">  1        2 0.21839170E+00 0.71775713E+03</pdfrwt>
<pdfrwt beam="2">  1       -2 0.62640073E-01 0.71775713E+03</pdfrwt>
<totfact> 0.34174310E+01</totfact>
</mgrwt>
</event>
<event>
 4    2  0.6914693E-007  0.8521684E+03  0.7818608E-02  0.9607649E-01
         -2   -1    0    0    0  501 -0.00000000000E+00  0.00000000000E+00  0.22602528620E+03  0.22602528622E+03  0.25500000000E-02 0.  1.
          2   -1    0    0  501    0  0.00000000000E+00 -0.00000000000E+00 -0.33901444464E+04  0.33901444464E+04  0.25500000000E-02 0. -1.
    8880023    1    1    2    0    0  0.52993888086E+03 -0.10745051961E+03 -0.74268125471E+03  0.11303833350E+04  0.65864270000E+03 0.  0.
    8880022    1    1    2    0    0 -0.52993888086E+03  0.10745051961E+03 -0.24214379054E+04  0.24857863976E+04  0.15294330000E+03 0.  0.
<mgrwt>
<rscale>  0 0.76791980E+03</rscale>
<asrwt>0</asrwt>
<pdfrwt beam="1">  1        2 0.52156065E+00 0.85216843E+03</pdfrwt>
<pdfrwt beam="2">  1       -2 0.34773123E-01 0.85216843E+03</pdfrwt>
<totfact> 0.79410359E+00</totfact>
</mgrwt>
</event>
<event>
 4    2  0.6914693E-007  0.6995030E+03  0.7818608E-02  0.9999269E-01
         -2   -1    0    0    0  501 -0.00000000000E+00  0.00000000000E+00  0.17003932823E+03  0.17003932825E+03  0.25500000000E-02 0.  1.
          2   -1    0    0  501    0  0.00000000000E+00 -0.00000000000E+00 -0.27461766410E+04  0.27461766410E+04  0.25500000000E-02 0. -1.
    8880023    1    1    2    0    0 -0.66891715092E+02  0.22587545363E+03 -0.60402200148E+03  0.92420073936E+03  0.65864270000E+03 0.  0.
    8880022    1    1    2    0    0  0.66891715092E+02 -0.22587545363E+03 -0.19721153112E+04  0.19920152299E+04  0.15294330000E+03 0. -1.
<mgrwt>
<rscale>  0 0.55682290E+03</rscale>
<asrwt>0</asrwt>
<pdfrwt beam="1">  1        2 0.42248868E+00 0.69950299E+03</pdfrwt>
<pdfrwt beam="2">  1       -2 0.26159899E-01 0.69950299E+03</pdfrwt>
<totfact> 0.34771960E+01</totfact>
</mgrwt>
</event>
<event>
 4    2  0.6914693E-007  0.6728314E+03  0.7818608E-02  0.1013709E+00
         -2   -1    0    0    0  501 -0.00000000000E+00  0.00000000000E+00  0.14849588660E+03  0.14849588662E+03  0.25500000000E-02 0.  1.
          2   -1    0    0  501    0  0.00000000000E+00 -0.00000000000E+00 -0.25395234592E+04  0.25395234592E+04  0.25500000000E-02 0. -1.
    8880023    1    1    2    0    0  0.82470208012E+02 -0.10995691047E+03 -0.65212218023E+03  0.93699807981E+03  0.65864270000E+03 0.  0.
    8880022    1    1    2    0    0 -0.82470208012E+02  0.10995691047E+03 -0.17389053923E+04  0.17510212660E+04  0.15294330000E+03 0.  0.
<mgrwt>
<rscale>  0 0.50026608E+03</rscale>
<asrwt>0</asrwt>
<pdfrwt beam="1">  1        2 0.39069589E+00 0.67283138E+03</pdfrwt>
<pdfrwt beam="2">  1       -2 0.22845523E-01 0.67283138E+03</pdfrwt>
<totfact> 0.58574673E+01</totfact>
</mgrwt>
</event>
<event>
 4    2  0.6914693E-007  0.7292545E+03  0.7818608E-02  0.9892432E-01
          2   -1    0    0  501    0  0.00000000000E+00  0.00000000000E+00  0.12064605117E+04  0.12064605117E+04  0.25500000000E-02 0. -1.
         -2   -1    0    0    0  501 -0.00000000000E+00 -0.00000000000E+00 -0.10946498884E+04  0.10946498884E+04  0.25500000000E-02 0.  1.
    8880023    1    1    2    0    0 -0.81436421523E+02 -0.30227466522E+03 -0.94194487196E+03  0.11912481740E+04  0.65864270000E+03 0.  1.
    8880022    1    1    2    0    0  0.81436421523E+02  0.30227466522E+03  0.10537554953E+04  0.11098622261E+04  0.15294330000E+03 0.  0.
<mgrwt>
<rscale>  0 0.60629468E+03</rscale>
<asrwt>0</asrwt>
<pdfrwt beam="1">  1        2 0.18560931E+00 0.72925446E+03</pdfrwt>
<pdfrwt beam="2">  1       -2 0.16840767E+00 0.72925446E+03</pdfrwt>
<totfact> 0.42148300E+00</totfact>
</mgrwt>
</event>
<event>
 4    2  0.6914693E-007  0.7882370E+03  0.7818608E-02  0.9736832E-01
         -2   -1    0    0    0  501 -0.00000000000E+00  0.00000000000E+00  0.46910198167E+03  0.46910198167E+03  0.25500000000E-02 0.  1.
          2   -1    0    0  501    0  0.00000000000E+00 -0.00000000000E+00 -0.15451683430E+04  0.15451683430E+04  0.25500000000E-02 0. -1.
    8880023    1    1    2    0    0 -0.11862991185E+03  0.41645439816E+03 -0.12867688794E+04  0.15090035378E+04  0.65864270000E+03 0. -1.
    8880022    1    1    2    0    0  0.11862991185E+03 -0.41645439816E+03  0.21070251813E+03  0.50526678685E+03  0.15294330000E+03 0.  0.
<mgrwt>
<rscale>  0 0.68865533E+03</rscale>
<asrwt>0</asrwt>
<pdfrwt beam="1">  1        2 0.23771820E+00 0.78823697E+03</pdfrwt>
<pdfrwt beam="2">  1       -2 0.72169536E-01 0.78823697E+03</pdfrwt>
<totfact> 0.21228429E+01</totfact>
</mgrwt>
</event>
<event>
 4    2  0.6914693E-007  0.9728644E+03  0.7818608E-02  0.9417953E-01
          2   -1    0    0  501    0  0.00000000000E+00  0.00000000000E+00  0.18977373959E+04  0.18977373959E+04  0.25500000000E-02 0. -1.
         -2   -1    0    0    0  501 -0.00000000000E+00 -0.00000000000E+00 -0.44670375925E+03  0.44670375925E+03  0.25500000000E-02 0.  1.
    8880023    1    1    2    0    0  0.23613310123E+03  0.67594089584E+03  0.37434154423E+03  0.10423995079E+04  0.65864270000E+03 0.  1.
    8880022    1    1    2    0    0 -0.23613310123E+03 -0.67594089584E+03  0.10766920924E+04  0.13020416472E+04  0.15294330000E+03 0.  0.
<mgrwt>
<rscale>  0 0.90612800E+03</rscale>
<asrwt>0</asrwt>
<pdfrwt beam="1">  1        2 0.29195960E+00 0.97286440E+03</pdfrwt>
<pdfrwt beam="2">  1       -2 0.68723655E-01 0.97286440E+03</pdfrwt>
<totfact> 0.14805109E+01</totfact>
</mgrwt>
</event>
<event>
 4    2  0.6914693E-007  0.8248922E+03  0.7818608E-02  0.9659354E-01
         -2   -1    0    0    0  501 -0.00000000000E+00  0.00000000000E+00  0.19666785948E+04  0.19666785948E+04  0.25500000000E-02 0.  1.
          2   -1    0    0  501    0  0.00000000000E+00 -0.00000000000E+00 -0.80080728279E+03  0.80080728280E+03  0.25500000000E-02 0. -1.
    8880023    1    1    2    0    0  0.43852472042E+02  0.49468557084E+03 -0.53886881087E+03  0.98530536125E+03  0.65864270000E+03 0. -1.
    8880022    1    1    2    0    0 -0.43852472042E+02 -0.49468557084E+03  0.17047401229E+04  0.17821805163E+04  0.15294330000E+03 0.  0.
<mgrwt>
<rscale>  0 0.73489295E+03</rscale>
<asrwt>0</asrwt>
<pdfrwt beam="1">  1        2 0.12320112E+00 0.82489215E+03</pdfrwt>
<pdfrwt beam="2">  1       -2 0.30256593E+00 0.82489215E+03</pdfrwt>
<totfact> 0.10875430E+00</totfact>
</mgrwt>
</event>
<event>
 4    2  0.6914693E-007  0.7862868E+03  0.7818608E-02  0.9741271E-01
         -2   -1    0    0    0  501 -0.00000000000E+00  0.00000000000E+00  0.18671685452E+03  0.18671685454E+03  0.25500000000E-02 0.  1.
          2   -1    0    0  501    0  0.00000000000E+00 -0.00000000000E+00 -0.21360451152E+04  0.21360451152E+04  0.25500000000E-02 0. -1.
    8880023    1    1    2    0    0  0.13082996589E+02 -0.42926162333E+03 -0.10223334238E+04  0.12897335158E+04  0.65864270000E+03 0.  0.
    8880022    1    1    2    0    0 -0.13082996589E+02  0.42926162333E+03 -0.92699483685E+03  0.10330284539E+04  0.15294330000E+03 0.  0.
<mgrwt>
<rscale>  0 0.68611803E+03</rscale>
<asrwt>0</asrwt>
<pdfrwt beam="1">  1        2 0.32862231E+00 0.78628679E+03</pdfrwt>
<pdfrwt beam="2">  1       -2 0.28725671E-01 0.78628679E+03</pdfrwt>
<totfact> 0.64009161E+01</totfact>
</mgrwt>
</event>
<event>
 4    2  0.6914693E-007  0.7568871E+03  0.7818608E-02  0.9813234E-01
          2   -1    0    0  501    0  0.00000000000E+00  0.00000000000E+00  0.50748859675E+03  0.50748859676E+03  0.25500000000E-02 0. -1.
         -2   -1    0    0    0  501 -0.00000000000E+00 -0.00000000000E+00 -0.69922958989E+03  0.69922958989E+03  0.25500000000E-02 0.  1.
    8880023    1    1    2    0    0  0.14274857071E+03  0.34451515853E+03 -0.25507014330E+03  0.79871073185E+03  0.65864270000E+03 0.  1.
    8880022    1    1    2    0    0 -0.14274857071E+03 -0.34451515853E+03  0.63329150166E+02  0.40800745480E+03  0.15294330000E+03 0.  0.
<mgrwt>
<rscale>  0 0.64657135E+03</rscale>
<asrwt>0</asrwt>
<pdfrwt beam="1">  1        2 0.78075169E-01 0.75688708E+03</pdfrwt>
<pdfrwt beam="2">  1       -2 0.10757378E+00 0.75688708E+03</pdfrwt>
<totfact> 0.42447885E+01</totfact>
</mgrwt>
</event>
<event>
 4    2  0.6914693E-007  0.9284822E+03  0.7818608E-02  0.9481774E-01
         -2   -1    0    0    0  501 -0.00000000000E+00  0.00000000000E+00  0.34398245170E+03  0.34398245171E+03  0.25500000000E-02 0.  1.
          2   -1    0    0  501    0  0.00000000000E+00 -0.00000000000E+00 -0.20559704236E+04  0.20559704236E+04  0.25500000000E-02 0. -1.
    8880023    1    1    2    0    0  0.65218984360E+03 -0.54012512180E+02 -0.13446292779E+04  0.16340462187E+04  0.65864270000E+03 0. -1.
    8880022    1    1    2    0    0 -0.65218984360E+03  0.54012512180E+02 -0.36735869396E+03  0.76590665659E+03  0.15294330000E+03 0.  1.
<mgrwt>
<rscale>  0 0.85640995E+03</rscale>
<asrwt>0</asrwt>
<pdfrwt beam="1">  1        2 0.31630313E+00 0.92848218E+03</pdfrwt>
<pdfrwt beam="2">  1       -2 0.52920378E-01 0.92848218E+03</pdfrwt>
<totfact> 0.21200949E+01</totfact>
</mgrwt>
</event>
<event>
 4    2  0.6914693E-007  0.7596011E+03  0.7818608E-02  0.9806141E-01
          2   -1    0    0  501    0  0.00000000000E+00  0.00000000000E+00  0.32140208148E+04  0.32140208149E+04  0.25500000000E-02 0. -1.
         -2   -1    0    0    0  501 -0.00000000000E+00 -0.00000000000E+00 -0.34322273714E+03  0.34322273715E+03  0.25500000000E-02 0.  1.
    8880023    1    1    2    0    0  0.36945340588E+02 -0.37658811670E+03  0.11128252120E+03  0.76770930281E+03  0.65864270000E+03 0.  0.
    8880022    1    1    2    0    0 -0.36945340588E+02  0.37658811670E+03  0.27595155565E+04  0.27895342492E+04  0.15294330000E+03 0.  0.
<mgrwt>
<rscale>  0 0.65034001E+03</rscale>
<asrwt>0</asrwt>
<pdfrwt beam="1">  1        2 0.49446473E+00 0.75960106E+03</pdfrwt>
<pdfrwt beam="2">  1       -2 0.52803499E-01 0.75960106E+03</pdfrwt>
<totfact> 0.46035134E+00</totfact>
</mgrwt>
</event>
<event>
 4    2  0.6914693E-007  0.7162178E+03  0.7818608E-02  0.9935598E-01
         -2   -1    0    0    0  501 -0.00000000000E+00  0.00000000000E+00  0.61886814589E+03  0.61886814589E+03  0.25500000000E-02 0.  1.
          2   -1    0    0  501    0  0.00000000000E+00 -0.00000000000E+00 -0.64206961282E+03  0.64206961283E+03  0.25500000000E-02 0. -1.
    8880023    1    1    2    0    0  0.27443754040E+03  0.61982089209E+02  0.32618440230E+03  0.78699695904E+03  0.65864270000E+03 0.  1.
    8880022    1    1    2    0    0 -0.27443754040E+03 -0.61982089209E+02 -0.34938586924E+03  0.47394079968E+03  0.15294330000E+03 0.  0.
<mgrwt>
<rscale>  0 0.58566662E+03</rscale>
<asrwt>0</asrwt>
<pdfrwt beam="1">  1        2 0.98779941E-01 0.71621781E+03</pdfrwt>
<pdfrwt beam="2">  1       -2 0.95210484E-01 0.71621781E+03</pdfrwt>
<totfact> 0.42976087E+01</totfact>
</mgrwt>
</event>
<event>
 4    2  0.6914693E-007  0.7435159E+03  0.7818608E-02  0.9849821E-01
          2   -1    0    0  501    0  0.00000000000E+00  0.00000000000E+00  0.14380847136E+04  0.14380847136E+04  0.25500000000E-02 0. -1.
         -2   -1    0    0    0  501 -0.00000000000E+00 -0.00000000000E+00 -0.34219109123E+03  0.34219109124E+03  0.25500000000E-02 0.  1.
    8880023    1    1    2    0    0  0.31881823456E+03 -0.13175995426E+03  0.14537935920E+03  0.75759561547E+03  0.65864270000E+03 0.  0.
    8880022    1    1    2    0    0 -0.31881823456E+03  0.13175995426E+03  0.95051426317E+03  0.10226801894E+04  0.15294330000E+03 0.  0.
<mgrwt>
<rscale>  0 0.62756032E+03</rscale>
<asrwt>0</asrwt>
<pdfrwt beam="1">  1        2 0.22124380E+00 0.74351594E+03</pdfrwt>
<pdfrwt beam="2">  1       -2 0.52644783E-01 0.74351594E+03</pdfrwt>
<totfact> 0.47868469E+01</totfact>
</mgrwt>
</event>
<event>
 4    2  0.6914693E-007  0.1136344E+04  0.7818608E-02  0.9221631E-01
         -2   -1    0    0    0  501 -0.00000000000E+00  0.00000000000E+00  0.76217063920E+03  0.76217063921E+03  0.25500000000E-02 0.  1.
          2   -1    0    0  501    0  0.00000000000E+00 -0.00000000000E+00 -0.16514994399E+04  0.16514994399E+04  0.25500000000E-02 0. -1.
    8880023    1    1    2    0    0  0.87543489552E+03 -0.30179511154E+03 -0.23247162571E+02  0.11365813576E+04  0.65864270000E+03 0.  0.
    8880022    1    1    2    0    0 -0.87543489552E+03  0.30179511154E+03 -0.86608163811E+03  0.12770887215E+04  0.15294330000E+03 0.  0.
<mgrwt>
<rscale>  0 0.10832919E+04</rscale>
<asrwt>0</asrwt>
<pdfrwt beam="1">  1        2 0.25407684E+00 0.11363436E+04</pdfrwt>
<pdfrwt beam="2">  1       -2 0.11725702E+00 0.11363436E+04</pdfrwt>
<totfact> 0.57582583E+00</totfact>
</mgrwt>
</event>
<event>
 4    2  0.6914693E-007  0.7488023E+03  0.7818608E-02  0.9835011E-01
         -2   -1    0    0    0  501 -0.00000000000E+00  0.00000000000E+00  0.70847491683E+03  0.70847491683E+03  0.25500000000E-02 0.  1.
          2   -1    0    0  501    0  0.00000000000E+00 -0.00000000000E+00 -0.22401860983E+04  0.22401860983E+04  0.25500000000E-02 0. -1.
    8880023    1    1    2    0    0 -0.34794189125E+03  0.76361445765E+02  0.48688584985E+03  0.89317560823E+03  0.65864270000E+03 0.  1.
    8880022    1    1    2    0    0  0.34794189125E+03 -0.76361445765E+02 -0.20185970313E+04  0.20554854069E+04  0.15294330000E+03 0.  0.
<mgrwt>
<rscale>  0 0.63517044E+03</rscale>
<asrwt>0</asrwt>
<pdfrwt beam="1">  1        2 0.34464401E+00 0.74880227E+03</pdfrwt>
<pdfrwt beam="2">  1       -2 0.10899614E+00 0.74880227E+03</pdfrwt>
<totfact> 0.34339191E+00</totfact>
</mgrwt>
</event>
<event>
 4    2  0.6914693E-007  0.8791410E+03  0.7818608E-02  0.9560383E-01
          2   -1    0    0  501    0  0.00000000000E+00  0.00000000000E+00  0.34251761692E+03  0.34251761693E+03  0.25500000000E-02 0. -1.
         -2   -1    0    0    0  501 -0.00000000000E+00 -0.00000000000E+00 -0.19220180812E+04  0.19220180812E+04  0.25500000000E-02 0.  1.
    8880023    1    1    2    0    0  0.56320488996E+03  0.14791515679E+03 -0.13685428336E+04  0.16265910167E+04  0.65864270000E+03 0.  0.
    8880022    1    1    2    0    0 -0.56320488996E+03 -0.14791515679E+03 -0.21095763065E+03  0.63794468148E+03  0.15294330000E+03 0.  0.
<mgrwt>
<rscale>  0 0.79974760E+03</rscale>
<asrwt>0</asrwt>
<pdfrwt beam="1">  1        2 0.52695019E-01 0.87914097E+03</pdfrwt>
<pdfrwt beam="2">  1       -2 0.29569508E+00 0.87914097E+03</pdfrwt>
<totfact> 0.32672919E+00</totfact>
</mgrwt>
</event>
<event>
 4    2  0.6914693E-007  0.8250555E+03  0.7818608E-02  0.9659031E-01
         -2   -1    0    0    0  501 -0.00000000000E+00  0.00000000000E+00  0.15037519424E+04  0.15037519424E+04  0.25500000000E-02 0.  1.
          2   -1    0    0  501    0  0.00000000000E+00 -0.00000000000E+00 -0.36244132176E+03  0.36244132177E+03  0.25500000000E-02 0. -1.
    8880023    1    1    2    0    0 -0.16341481863E+03 -0.46925675386E+03  0.10547905762E+04  0.13391413928E+04  0.65864270000E+03 0.  1.
    8880022    1    1    2    0    0  0.16341481863E+03  0.46925675386E+03  0.86520044402E+02  0.52705187134E+03  0.15294330000E+03 0.  0.
<mgrwt>
<rscale>  0 0.73509370E+03</rscale>
<asrwt>0</asrwt>
<pdfrwt beam="1">  1        2 0.55760203E-01 0.82505546E+03</pdfrwt>
<pdfrwt beam="2">  1       -2 0.23134645E+00 0.82505546E+03</pdfrwt>
<totfact> 0.75688621E+00</totfact>
</mgrwt>
</event>
<event>
 4    2  0.6914693E-007  0.6627157E+03  0.7818608E-02  0.1021532E+00
          2   -1    0    0  501    0  0.00000000000E+00  0.00000000000E+00  0.66900693763E+03  0.66900693763E+03  0.25500000000E-02 0. -1.
         -2   -1    0    0    0  501 -0.00000000000E+00 -0.00000000000E+00 -0.26487190309E+03  0.26487190310E+03  0.25500000000E-02 0.  1.
    8880023    1    1    2    0    0 -0.57111552921E+02  0.46045938838E+02  0.26219171792E+03  0.71269675260E+03  0.65864270000E+03 0.  1.
    8880022    1    1    2    0    0  0.57111552921E+02 -0.46045938838E+02  0.14194331662E+03  0.22118208813E+03  0.15294330000E+03 0. -1.
<mgrwt>
<rscale>  0 0.47137849E+03</rscale>
<asrwt>0</asrwt>
<pdfrwt beam="1">  1        2 0.10292414E+00 0.66271575E+03</pdfrwt>
<pdfrwt beam="2">  1       -2 0.40749523E-01 0.66271575E+03</pdfrwt>
<totfact> 0.25041109E+02</totfact>
</mgrwt>
</event>
<event>
 4    2  0.6914693E-007  0.8403444E+03  0.7818608E-02  0.9629531E-01
         -2   -1    0    0    0  501 -0.00000000000E+00  0.00000000000E+00  0.39359326752E+03  0.39359326753E+03  0.25500000000E-02 0.  1.
          2   -1    0    0  501    0  0.00000000000E+00 -0.00000000000E+00 -0.13852323555E+04  0.13852323555E+04  0.25500000000E-02 0. -1.
    8880023    1    1    2    0    0  0.21897329874E+03  0.47372897663E+03 -0.28545701890E+03  0.88750457169E+03  0.65864270000E+03 0.  1.
    8880022    1    1    2    0    0 -0.21897329874E+03 -0.47372897663E+03 -0.70618206903E+03  0.89132105130E+03  0.15294330000E+03 0.  1.
<mgrwt>
<rscale>  0 0.75372066E+03</rscale>
<asrwt>0</asrwt>
<pdfrwt beam="1">  1        2 0.21311267E+00 0.84034437E+03</pdfrwt>
<pdfrwt beam="2">  1       -2 0.60552811E-01 0.84034437E+03</pdfrwt>
<totfact> 0.37919707E+01</totfact>
</mgrwt>
</event>
<event>
 4    2  0.6914693E-007  0.7079784E+03  0.7818608E-02  0.9965586E-01
         -2   -1    0    0    0  501 -0.00000000000E+00  0.00000000000E+00  0.86798283263E+03  0.86798283264E+03  0.25500000000E-02 0.  1.
          2   -1    0    0  501    0  0.00000000000E+00 -0.00000000000E+00 -0.50990260431E+03  0.50990260432E+03  0.25500000000E-02 0. -1.
    8880023    1    1    2    0    0  0.13002418105E+03  0.22475961849E+03  0.64796626974E+03  0.95973624853E+03  0.65864270000E+03 0.  1.
    8880022    1    1    2    0    0 -0.13002418105E+03 -0.22475961849E+03 -0.28988604141E+03  0.41814918843E+03  0.15294330000E+03 0.  0.
<mgrwt>
<rscale>  0 0.57185324E+03</rscale>
<asrwt>0</asrwt>
<pdfrwt beam="1">  1        2 0.78446555E-01 0.70797838E+03</pdfrwt>
<pdfrwt beam="2">  1       -2 0.13353582E+00 0.70797838E+03</pdfrwt>
<totfact> 0.24814593E+01</totfact>
</mgrwt>
</event>
<event>
 4    2  0.6914693E-007  0.9943117E+03  0.7818608E-02  0.9389038E-01
          2   -1    0    0  501    0  0.00000000000E+00  0.00000000000E+00  0.30987755997E+04  0.30987755997E+04  0.25500000000E-02 0. -1.
         -2   -1    0    0    0  501 -0.00000000000E+00 -0.00000000000E+00 -0.46012421493E+03  0.46012421494E+03  0.25500000000E-02 0.  1.
    8880023    1    1    2    0    0  0.71248955868E+03 -0.21726521709E+03  0.21302816718E+03  0.10168759767E+04  0.65864270000E+03 0.  1.
    8880022    1    1    2    0    0 -0.71248955868E+03  0.21726521709E+03  0.24256232176E+04  0.25420238379E+04  0.15294330000E+03 0.  0.
<mgrwt>
<rscale>  0 0.92983345E+03</rscale>
<asrwt>0</asrwt>
<pdfrwt beam="1">  1        2 0.47673469E+00 0.99431170E+03</pdfrwt>
<pdfrwt beam="2">  1       -2 0.70788343E-01 0.99431170E+03</pdfrwt>
<totfact> 0.28040345E+00</totfact>
</mgrwt>
</event>
<event>
 4    2  0.6914693E-007  0.8383501E+03  0.7818608E-02  0.9633299E-01
          2   -1    0    0  501    0  0.00000000000E+00  0.00000000000E+00  0.99096440286E+03  0.99096440286E+03  0.25500000000E-02 0. -1.
         -2   -1    0    0    0  501 -0.00000000000E+00 -0.00000000000E+00 -0.72427343036E+03  0.72427343037E+03  0.25500000000E-02 0.  1.
    8880023    1    1    2    0    0  0.51472465603E+02 -0.51611160868E+03 -0.33809365296E+03  0.90395693026E+03  0.65864270000E+03 0.  1.
    8880022    1    1    2    0    0 -0.51472465603E+02  0.51611160868E+03  0.60478462545E+03  0.81128090297E+03  0.15294330000E+03 0.  0.
<mgrwt>
<rscale>  0 0.75130883E+03</rscale>
<asrwt>0</asrwt>
<pdfrwt beam="1">  1        2 0.15245606E+00 0.83835005E+03</pdfrwt>
<pdfrwt beam="2">  1       -2 0.11142668E+00 0.83835005E+03</pdfrwt>
<totfact> 0.16378026E+01</totfact>
</mgrwt>
</event>
<event>
 4    2  0.6914693E-007  0.7999299E+03  0.7818608E-02  0.9710948E-01
          2   -1    0    0  501    0  0.00000000000E+00  0.00000000000E+00  0.19830366700E+04  0.19830366700E+04  0.25500000000E-02 0. -1.
         -2   -1    0    0    0  501 -0.00000000000E+00 -0.00000000000E+00 -0.22182467656E+03  0.22182467658E+03  0.25500000000E-02 0.  1.
    8880023    1    1    2    0    0 -0.80749679446E+02 -0.44671823469E+03  0.80226307874E+03  0.11329227448E+04  0.65864270000E+03 0.  0.
    8880022    1    1    2    0    0  0.80749679446E+02  0.44671823469E+03  0.95894891468E+03  0.10719386017E+04  0.15294330000E+03 0.  0.
<mgrwt>
<rscale>  0 0.70368703E+03</rscale>
<asrwt>0</asrwt>
<pdfrwt beam="1">  1        2 0.30508258E+00 0.79992993E+03</pdfrwt>
<pdfrwt beam="2">  1       -2 0.34126872E-01 0.79992993E+03</pdfrwt>
<totfact> 0.56161783E+01</totfact>
</mgrwt>
</event>
<event>
 4    2  0.6914693E-007  0.8729305E+03  0.7818608E-02  0.9570964E-01
          2   -1    0    0  501    0  0.00000000000E+00  0.00000000000E+00  0.16184418032E+04  0.16184418032E+04  0.25500000000E-02 0. -1.
         -2   -1    0    0    0  501 -0.00000000000E+00 -0.00000000000E+00 -0.39592045176E+03  0.39592045177E+03  0.25500000000E-02 0.  1.
    8880023    1    1    2    0    0 -0.18450720737E+03  0.54236015326E+03  0.31045080849E+03  0.92649196228E+03  0.65864270000E+03 0.  0.
    8880022    1    1    2    0    0  0.18450720737E+03 -0.54236015326E+03  0.91207054298E+03  0.10878702927E+04  0.15294330000E+03 0.  0.
<mgrwt>
<rscale>  0 0.79248158E+03</rscale>
<asrwt>0</asrwt>
<pdfrwt beam="1">  1        2 0.24899104E+00 0.87293050E+03</pdfrwt>
<pdfrwt beam="2">  1       -2 0.60910840E-01 0.87293050E+03</pdfrwt>
<totfact> 0.27634692E+01</totfact>
</mgrwt>
</event>
<event>
 4    2  0.6914693E-007  0.7852560E+03  0.7818608E-02  0.9743632E-01
          2   -1    0    0  501    0  0.00000000000E+00  0.00000000000E+00  0.19093123746E+04  0.19093123746E+04  0.25500000000E-02 0. -1.
         -2   -1    0    0    0  501 -0.00000000000E+00 -0.00000000000E+00 -0.45096069303E+03  0.45096069303E+03  0.25500000000E-02 0.  1.
    8880023    1    1    2    0    0  0.32658553172E+03 -0.27596847151E+03 -0.48237222347E+02  0.78673613282E+03  0.65864270000E+03 0.  1.
    8880022    1    1    2    0    0 -0.32658553172E+03  0.27596847151E+03  0.15065889039E+04  0.15735369348E+04  0.15294330000E+03 0.  0.
<mgrwt>
<rscale>  0 0.68477313E+03</rscale>
<asrwt>0</asrwt>
<pdfrwt beam="1">  1        2 0.29374036E+00 0.78525595E+03</pdfrwt>
<pdfrwt beam="2">  1       -2 0.69378569E-01 0.78525595E+03</pdfrwt>
<totfact> 0.14617169E+01</totfact>
</mgrwt>
</event>
<event>
 4    2  0.6914693E-007  0.6951393E+03  0.7818608E-02  0.1001800E+00
          2   -1    0    0  501    0  0.00000000000E+00  0.00000000000E+00  0.43005700773E+03  0.43005700774E+03  0.25500000000E-02 0. -1.
         -2   -1    0    0    0  501 -0.00000000000E+00 -0.00000000000E+00 -0.59749915083E+03  0.59749915083E+03  0.25500000000E-02 0.  1.
    8880023    1    1    2    0    0  0.17777809374E+03  0.13342951317E+03  0.25898018025E+02  0.69562159196E+03  0.65864270000E+03 0. -1.
    8880022    1    1    2    0    0 -0.17777809374E+03 -0.13342951317E+03 -0.19334016112E+03  0.33193456662E+03  0.15294330000E+03 0.  0.
<mgrwt>
<rscale>  0 0.54868163E+03</rscale>
<asrwt>0</asrwt>
<pdfrwt beam="1">  1        2 0.66162616E-01 0.69513933E+03</pdfrwt>
<pdfrwt beam="2">  1       -2 0.91922947E-01 0.69513933E+03</pdfrwt>
<totfact> 0.74753686E+01</totfact>
</mgrwt>
</event>
<event>
 4    2  0.6914693E-007  0.7885647E+03  0.7818608E-02  0.9736090E-01
          2   -1    0    0  501    0  0.00000000000E+00  0.00000000000E+00  0.59890289283E+03  0.59890289283E+03  0.25500000000E-02 0. -1.
         -2   -1    0    0    0  501 -0.00000000000E+00 -0.00000000000E+00 -0.26128173266E+04  0.26128173266E+04  0.25500000000E-02 0.  1.
    8880023    1    1    2    0    0 -0.34993869473E+03  0.25606042187E+03 -0.24525796456E+04  0.25762339090E+04  0.65864270000E+03 0.  1.
    8880022    1    1    2    0    0  0.34993869473E+03 -0.25606042187E+03  0.43866521179E+03  0.63548631045E+03  0.15294330000E+03 0.  0.
<mgrwt>
<rscale>  0 0.68908078E+03</rscale>
<asrwt>0</asrwt>
<pdfrwt beam="1">  1        2 0.92138908E-01 0.78856467E+03</pdfrwt>
<pdfrwt beam="2">  1       -2 0.40197189E+00 0.78856467E+03</pdfrwt>
<totfact> 0.37845712E-01</totfact>
</mgrwt>
</event>
<event>
 4    2  0.6914693E-007  0.7714685E+03  0.7818608E-02  0.9776273E-01
         -2   -1    0    0    0  501 -0.00000000000E+00  0.00000000000E+00  0.13783139317E+03  0.13783139320E+03  0.25500000000E-02 0.  1.
          2   -1    0    0  501    0  0.00000000000E+00 -0.00000000000E+00 -0.48806291198E+04  0.48806291198E+04  0.25500000000E-02 0. -1.
    8880023    1    1    2    0    0 -0.14704938383E+03  0.37380470563E+03 -0.10619018155E+04  0.13125544375E+04  0.65864270000E+03 0.  1.
    8880022    1    1    2    0    0  0.14704938383E+03 -0.37380470563E+03 -0.36808959111E+04  0.37059060755E+04  0.15294330000E+03 0.  0.
<mgrwt>
<rscale>  0 0.66651555E+03</rscale>
<asrwt>0</asrwt>
<pdfrwt beam="1">  1        2 0.75086588E+00 0.77146853E+03</pdfrwt>
<pdfrwt beam="2">  1       -2 0.21204834E-01 0.77146853E+03</pdfrwt>
<totfact> 0.10687415E+00</totfact>
</mgrwt>
</event>
<event>
 4    2  0.6914693E-007  0.8046507E+03  0.7818608E-02  0.9700829E-01
         -2   -1    0    0    0  501 -0.00000000000E+00  0.00000000000E+00  0.55683303445E+03  0.55683303445E+03  0.25500000000E-02 0.  1.
          2   -1    0    0  501    0  0.00000000000E+00 -0.00000000000E+00 -0.10062553903E+04  0.10062553903E+04  0.25500000000E-02 0. -1.
    8880023    1    1    2    0    0  0.24546190073E+03  0.39166432407E+03  0.12038416551E+03  0.81360619530E+03  0.65864270000E+03 0.  1.
    8880022    1    1    2    0    0 -0.24546190073E+03 -0.39166432407E+03 -0.56980652133E+03  0.74948222942E+03  0.15294330000E+03 0.  0.
<mgrwt>
<rscale>  0 0.70967447E+03</rscale>
<asrwt>0</asrwt>
<pdfrwt beam="1">  1        2 0.15480852E+00 0.80465067E+03</pdfrwt>
<pdfrwt beam="2">  1       -2 0.85666621E-01 0.80465067E+03</pdfrwt>
<totfact> 0.29864873E+01</totfact>
</mgrwt>
</event>
<event>
 4    2  0.6914693E-007  0.1007110E+04  0.7818608E-02  0.9372314E-01
          2   -1    0    0  501    0  0.00000000000E+00  0.00000000000E+00  0.26298945855E+04  0.26298945855E+04  0.25500000000E-02 0. -1.
         -2   -1    0    0    0  501 -0.00000000000E+00 -0.00000000000E+00 -0.57797414090E+03  0.57797414091E+03  0.25500000000E-02 0.  1.
    8880023    1    1    2    0    0 -0.76187388331E+03  0.29220153197E+01 -0.70545921748E+01  0.10071347108E+04  0.65864270000E+03 0.  1.
    8880022    1    1    2    0    0  0.76187388331E+03 -0.29220153197E+01  0.20589750368E+04  0.22007340156E+04  0.15294330000E+03 0.  0.
<mgrwt>
<rscale>  0 0.94389568E+03</rscale>
<asrwt>0</asrwt>
<pdfrwt beam="1">  1        2 0.40459917E+00 0.10071100E+04</pdfrwt>
<pdfrwt beam="2">  1       -2 0.88919098E-01 0.10071100E+04</pdfrwt>
<totfact> 0.32108189E+00</totfact>
</mgrwt>
</event>
<event>
 4    2  0.6914693E-007  0.7364365E+03  0.7818608E-02  0.9870451E-01
         -2   -1    0    0    0  501 -0.00000000000E+00  0.00000000000E+00  0.38454384995E+03  0.38454384996E+03  0.25500000000E-02 0.  1.
          2   -1    0    0  501    0  0.00000000000E+00 -0.00000000000E+00 -0.94838657649E+03  0.94838657649E+03  0.25500000000E-02 0. -1.
    8880023    1    1    2    0    0  0.95130478909E+02 -0.31540254630E+03 -0.99068814461E+02  0.74307025946E+03  0.65864270000E+03 0.  0.
    8880022    1    1    2    0    0 -0.95130478909E+02  0.31540254630E+03 -0.46477391208E+03  0.58986016699E+03  0.15294330000E+03 0.  0.
<mgrwt>
<rscale>  0 0.61714956E+03</rscale>
<asrwt>0</asrwt>
<pdfrwt beam="1">  1        2 0.14590563E+00 0.73643654E+03</pdfrwt>
<pdfrwt beam="2">  1       -2 0.59160593E-01 0.73643654E+03</pdfrwt>
<totfact> 0.73725964E+01</totfact>
</mgrwt>
</event>
<event>
 4    2  0.6914693E-007  0.9927307E+03  0.7818608E-02  0.9391131E-01
         -2   -1    0    0    0  501 -0.00000000000E+00  0.00000000000E+00  0.79446051194E+03  0.79446051195E+03  0.25500000000E-02 0.  1.
          2   -1    0    0  501    0  0.00000000000E+00 -0.00000000000E+00 -0.13843536733E+04  0.13843536733E+04  0.25500000000E-02 0. -1.
    8880023    1    1    2    0    0 -0.65230097605E+03  0.35525685915E+03  0.27344936336E+03  0.10297032388E+04  0.65864270000E+03 0.  1.
    8880022    1    1    2    0    0  0.65230097605E+03 -0.35525685915E+03 -0.86334252469E+03  0.11491109465E+04  0.15294330000E+03 0.  0.
<mgrwt>
<rscale>  0 0.92809214E+03</rscale>
<asrwt>0</asrwt>
<pdfrwt beam="1">  1        2 0.21297749E+00 0.99273068E+03</pdfrwt>
<pdfrwt beam="2">  1       -2 0.12222469E+00 0.99273068E+03</pdfrwt>
<totfact> 0.74479074E+00</totfact>
</mgrwt>
</event>
<event>
 4    2  0.6914693E-007  0.6757237E+03  0.7818608E-02  0.1011854E+00
          2   -1    0    0  501    0  0.00000000000E+00  0.00000000000E+00  0.42589707651E+03  0.42589707652E+03  0.25500000000E-02 0. -1.
         -2   -1    0    0    0  501 -0.00000000000E+00 -0.00000000000E+00 -0.53699635986E+03  0.53699635986E+03  0.25500000000E-02 0.  1.
    8880023    1    1    2    0    0 -0.15070663231E+03  0.89330518703E+01 -0.23428496516E+03  0.71518664669E+03  0.65864270000E+03 0.  1.
    8880022    1    1    2    0    0  0.15070663231E+03 -0.89330518703E+01  0.12318568182E+03  0.24770678969E+03  0.15294330000E+03 0. -1.
<mgrwt>
<rscale>  0 0.50744413E+03</rscale>
<asrwt>0</asrwt>
<pdfrwt beam="1">  1        2 0.65522627E-01 0.67572368E+03</pdfrwt>
<pdfrwt beam="2">  1       -2 0.82614825E-01 0.67572368E+03</pdfrwt>
<totfact> 0.96596229E+01</totfact>
</mgrwt>
</event>
<event>
 4    2  0.6914693E-007  0.9947736E+03  0.7818608E-02  0.9388428E-01
         -2   -1    0    0    0  501 -0.00000000000E+00  0.00000000000E+00  0.36795628306E+03  0.36795628307E+03  0.25500000000E-02 0.  1.
          2   -1    0    0  501    0  0.00000000000E+00 -0.00000000000E+00 -0.31341280792E+04  0.31341280792E+04  0.25500000000E-02 0. -1.
    8880023    1    1    2    0    0 -0.28503332801E+03 -0.68885429024E+03 -0.50365689341E+03  0.11150088357E+04  0.65864270000E+03 0.  0.
    8880022    1    1    2    0    0  0.28503332801E+03  0.68885429024E+03 -0.22625149027E+04  0.23870755265E+04  0.15294330000E+03 0.  0.
<mgrwt>
<rscale>  0 0.93034196E+03</rscale>
<asrwt>0</asrwt>
<pdfrwt beam="1">  1        2 0.48217353E+00 0.99477356E+03</pdfrwt>
<pdfrwt beam="2">  1       -2 0.56608661E-01 0.99477356E+03</pdfrwt>
<totfact> 0.43023164E+00</totfact>
</mgrwt>
</event>
<event>
 4    2  0.6914693E-007  0.6641983E+03  0.7818608E-02  0.1020216E+00
         -2   -1    0    0    0  501 -0.00000000000E+00  0.00000000000E+00  0.84288811153E+03  0.84288811154E+03  0.25500000000E-02 0.  1.
          2   -1    0    0  501    0  0.00000000000E+00 -0.00000000000E+00 -0.12425898024E+04  0.12425898024E+04  0.25500000000E-02 0. -1.
    8880023    1    1    2    0    0  0.44927211168E+02 -0.73012011772E+02  0.70403798641E+03  0.96789922034E+03  0.65864270000E+03 0.  0.
    8880022    1    1    2    0    0 -0.44927211168E+02  0.73012011772E+02 -0.11037396772E+04  0.11175786935E+04  0.15294330000E+03 0. -1.
<mgrwt>
<rscale>  0 0.47608866E+03</rscale>
<asrwt>0</asrwt>
<pdfrwt beam="1">  1        2 0.19116766E+00 0.66419832E+03</pdfrwt>
<pdfrwt beam="2">  1       -2 0.12967509E+00 0.66419832E+03</pdfrwt>
<totfact> 0.80687886E+00</totfact>
</mgrwt>
</event>
<event>
 4    2  0.6914693E-007  0.8879378E+03  0.7818608E-02  0.9545679E-01
          2   -1    0    0  501    0  0.00000000000E+00  0.00000000000E+00  0.16309516620E+04  0.16309516620E+04  0.25500000000E-02 0. -1.
         -2   -1    0    0    0  501 -0.00000000000E+00 -0.00000000000E+00 -0.59843168874E+03  0.59843168875E+03  0.25500000000E-02 0.  1.
    8880023    1    1    2    0    0 -0.57285585845E+03  0.16266396775E+03 -0.14625299201E+03  0.89990196405E+03  0.65864270000E+03 0.  0.
    8880022    1    1    2    0    0  0.57285585845E+03 -0.16266396775E+03  0.11787729653E+04  0.13294813867E+04  0.15294330000E+03 0.  0.
<mgrwt>
<rscale>  0 0.80998236E+03</rscale>
<asrwt>0</asrwt>
<pdfrwt beam="1">  1        2 0.25091564E+00 0.88793784E+03</pdfrwt>
<pdfrwt beam="2">  1       -2 0.92066413E-01 0.88793784E+03</pdfrwt>
<totfact> 0.10845312E+01</totfact>
</mgrwt>
</event>
<event>
 4    2  0.6914693E-007  0.7446938E+03  0.7818608E-02  0.9846479E-01
         -2   -1    0    0    0  501 -0.00000000000E+00  0.00000000000E+00  0.48225659388E+03  0.48225659389E+03  0.25500000000E-02 0.  1.
          2   -1    0    0  501    0  0.00000000000E+00 -0.00000000000E+00 -0.19036372165E+04  0.19036372165E+04  0.25500000000E-02 0. -1.
    8880023    1    1    2    0    0 -0.14014337019E+03  0.31799137869E+03  0.15821054329E+03  0.76131430001E+03  0.65864270000E+03 0.  0.
    8880022    1    1    2    0    0  0.14014337019E+03 -0.31799137869E+03 -0.15795911659E+04  0.16245795103E+04  0.15294330000E+03 0.  0.
<mgrwt>
<rscale>  0 0.62926745E+03</rscale>
<asrwt>0</asrwt>
<pdfrwt beam="1">  1        2 0.29286726E+00 0.74469382E+03</pdfrwt>
<pdfrwt beam="2">  1       -2 0.74193323E-01 0.74469382E+03</pdfrwt>
<totfact> 0.12777205E+01</totfact>
</mgrwt>
</event>
<event>
 4    2  0.6914693E-007  0.7581457E+03  0.7818608E-02  0.9809932E-01
          2   -1    0    0  501    0  0.00000000000E+00  0.00000000000E+00  0.45103620818E+04  0.45103620818E+04  0.25500000000E-02 0. -1.
         -2   -1    0    0    0  501 -0.00000000000E+00 -0.00000000000E+00 -0.11647886664E+03  0.11647886667E+03  0.25500000000E-02 0.  1.
    8880023    1    1    2    0    0  0.19082343793E+03 -0.32335906276E+03  0.12876721246E+04  0.14942839003E+04  0.65864270000E+03 0.  0.
    8880022    1    1    2    0    0 -0.19082343793E+03  0.32335906276E+03  0.31062110906E+04  0.31325570482E+04  0.15294330000E+03 0.  0.
<mgrwt>
<rscale>  0 0.64832251E+03</rscale>
<asrwt>0</asrwt>
<pdfrwt beam="1">  1        2 0.69390199E+00 0.75814568E+03</pdfrwt>
<pdfrwt beam="2">  1       -2 0.17919822E-01 0.75814568E+03</pdfrwt>
<totfact> 0.35133561E+00</totfact>
</mgrwt>
</event>
<event>
 4    2  0.6914693E-007  0.9796005E+03  0.7818608E-02  0.9408747E-01
         -2   -1    0    0    0  501 -0.00000000000E+00  0.00000000000E+00  0.51832354293E+03  0.51832354294E+03  0.25500000000E-02 0.  1.
          2   -1    0    0  501    0  0.00000000000E+00 -0.00000000000E+00 -0.14531748071E+04  0.14531748071E+04  0.25500000000E-02 0. -1.
    8880023    1    1    2    0    0 -0.70578472223E+03 -0.16635776181E+03 -0.40267791336E+03  0.10591348768E+04  0.65864270000E+03 0.  0.
    8880022    1    1    2    0    0  0.70578472223E+03  0.16635776181E+03 -0.53217335085E+03  0.91236347330E+03  0.15294330000E+03 0.  1.
<mgrwt>
<rscale>  0 0.91359337E+03</rscale>
<asrwt>0</asrwt>
<pdfrwt beam="1">  1        2 0.22356535E+00 0.97960052E+03</pdfrwt>
<pdfrwt beam="2">  1       -2 0.79742084E-01 0.97960052E+03</pdfrwt>
<totfact> 0.18764295E+01</totfact>
</mgrwt>
</event>
<event>
 4    2  0.6914693E-007  0.8166704E+03  0.7818608E-02  0.9675847E-01
          2   -1    0    0  501    0  0.00000000000E+00  0.00000000000E+00  0.23352035631E+04  0.23352035631E+04  0.25500000000E-02 0. -1.
         -2   -1    0    0    0  501 -0.00000000000E+00 -0.00000000000E+00 -0.31647312797E+03  0.31647312798E+03  0.25500000000E-02 0.  1.
    8880023    1    1    2    0    0 -0.20751424782E+03  0.43597960079E+03  0.31677332181E+03  0.87595429049E+03  0.65864270000E+03 0.  1.
    8880022    1    1    2    0    0  0.20751424782E+03 -0.43597960079E+03  0.17019571133E+04  0.17757224006E+04  0.15294330000E+03 0.  0.
<mgrwt>
<rscale>  0 0.72473264E+03</rscale>
<asrwt>0</asrwt>
<pdfrwt beam="1">  1        2 0.35926209E+00 0.81667042E+03</pdfrwt>
<pdfrwt beam="2">  1       -2 0.48688174E-01 0.81667042E+03</pdfrwt>
<totfact> 0.17853549E+01</totfact>
</mgrwt>
</event>
<event>
 4    2  0.6914693E-007  0.7709199E+03  0.7818608E-02  0.9777615E-01
         -2   -1    0    0    0  501 -0.00000000000E+00  0.00000000000E+00  0.78460890466E+03  0.78460890467E+03  0.25500000000E-02 0.  1.
          2   -1    0    0  501    0  0.00000000000E+00 -0.00000000000E+00 -0.80687874684E+03  0.80687874685E+03  0.25500000000E-02 0. -1.
    8880023    1    1    2    0    0 -0.27302997143E+03  0.29319256688E+03  0.49760558491E+03  0.91756676649E+03  0.65864270000E+03 0.  1.
    8880022    1    1    2    0    0  0.27302997143E+03 -0.29319256688E+03 -0.51987542709E+03  0.67392088503E+03  0.15294330000E+03 0.  0.
<mgrwt>
<rscale>  0 0.66577782E+03</rscale>
<asrwt>0</asrwt>
<pdfrwt beam="1">  1        2 0.12413519E+00 0.77091987E+03</pdfrwt>
<pdfrwt beam="2">  1       -2 0.12070906E+00 0.77091987E+03</pdfrwt>
<totfact> 0.18045685E+01</totfact>
</mgrwt>
</event>
<event>
 4    2  0.6914693E-007  0.7367370E+03  0.7818608E-02  0.9869556E-01
          2   -1    0    0  501    0  0.00000000000E+00  0.00000000000E+00  0.13368834114E+04  0.13368834114E+04  0.25500000000E-02 0. -1.
         -2   -1    0    0    0  501 -0.00000000000E+00 -0.00000000000E+00 -0.27328550482E+03  0.27328550484E+03  0.25500000000E-02 0.  1.
    8880023    1    1    2    0    0  0.31401800982E+03  0.10180284323E+03  0.36428520833E+03  0.82187897446E+03  0.65864270000E+03 0.  1.
    8880022    1    1    2    0    0 -0.31401800982E+03 -0.10180284323E+03  0.69931269825E+03  0.78828994179E+03  0.15294330000E+03 0.  0.
<mgrwt>
<rscale>  0 0.61759685E+03</rscale>
<asrwt>0</asrwt>
<pdfrwt beam="1">  1        2 0.20567437E+00 0.73673695E+03</pdfrwt>
<pdfrwt beam="2">  1       -2 0.42043925E-01 0.73673695E+03</pdfrwt>
<totfact> 0.85913931E+01</totfact>
</mgrwt>
</event>
<event>
 4    2  0.6914693E-007  0.8151941E+03  0.7818608E-02  0.9678858E-01
          2   -1    0    0  501    0  0.00000000000E+00  0.00000000000E+00  0.14932262974E+04  0.14932262974E+04  0.25500000000E-02 0. -1.
         -2   -1    0    0    0  501 -0.00000000000E+00 -0.00000000000E+00 -0.40030660417E+03  0.40030660418E+03  0.25500000000E-02 0.  1.
    8880023    1    1    2    0    0  0.47960822125E+03  0.26593077859E+02  0.15655014214E+03  0.83008998967E+03  0.65864270000E+03 0.  1.
    8880022    1    1    2    0    0 -0.47960822125E+03 -0.26593077859E+02  0.93636955111E+03  0.10634429119E+04  0.15294330000E+03 0.  0.
<mgrwt>
<rscale>  0 0.72289671E+03</rscale>
<asrwt>0</asrwt>
<pdfrwt beam="1">  1        2 0.22972712E+00 0.81519411E+03</pdfrwt>
<pdfrwt beam="2">  1       -2 0.61585633E-01 0.81519411E+03</pdfrwt>
<totfact> 0.31877056E+01</totfact>
</mgrwt>
</event>
<event>
 4    2  0.6914693E-007  0.7233949E+03  0.7818608E-02  0.9911262E-01
         -2   -1    0    0    0  501 -0.00000000000E+00  0.00000000000E+00  0.34294842647E+03  0.34294842648E+03  0.25500000000E-02 0.  1.
          2   -1    0    0  501    0  0.00000000000E+00 -0.00000000000E+00 -0.25801518087E+04  0.25801518087E+04  0.25500000000E-02 0. -1.
    8880023    1    1    2    0    0 -0.17144304973E+03 -0.24514727224E+03 -0.66383386370E+02  0.72643434985E+03  0.65864270000E+03 0.  1.
    8880022    1    1    2    0    0  0.17144304973E+03  0.24514727224E+03 -0.21708199959E+04  0.21966658854E+04  0.15294330000E+03 0.  0.
<mgrwt>
<rscale>  0 0.59718575E+03</rscale>
<asrwt>0</asrwt>
<pdfrwt beam="1">  1        2 0.39694642E+00 0.72339485E+03</pdfrwt>
<pdfrwt beam="2">  1       -2 0.52761298E-01 0.72339485E+03</pdfrwt>
<totfact> 0.11177115E+01</totfact>
</mgrwt>
</event>
<event>
 4    2  0.6914693E-007  0.7815819E+03  0.7818608E-02  0.9752134E-01
         -2   -1    0    0    0  501 -0.00000000000E+00  0.00000000000E+00  0.61312660345E+03  0.61312660345E+03  0.25500000000E-02 0.  1.
          2   -1    0    0  501    0  0.00000000000E+00 -0.00000000000E+00 -0.10793137202E+04  0.10793137202E+04  0.25500000000E-02 0. -1.
    8880023    1    1    2    0    0  0.29830791436E+03  0.29677009619E+03  0.27329309161E+03  0.82798515805E+03  0.65864270000E+03 0.  1.
    8880022    1    1    2    0    0 -0.29830791436E+03 -0.29677009619E+03 -0.73948020837E+03  0.86445516561E+03  0.15294330000E+03 0.  0.
<mgrwt>
<rscale>  0 0.67995804E+03</rscale>
<asrwt>0</asrwt>
<pdfrwt beam="1">  1        2 0.16604826E+00 0.78158193E+03</pdfrwt>
<pdfrwt beam="2">  1       -2 0.94327170E-01 0.78158193E+03</pdfrwt>
<totfact> 0.21563532E+01</totfact>
</mgrwt>
</event>
<event>
 4    2  0.6914693E-007  0.1395965E+04  0.7818608E-02  0.8986825E-01
         -2   -1    0    0    0  501 -0.00000000000E+00  0.00000000000E+00  0.85705378956E+03  0.85705378957E+03  0.25500000000E-02 0.  1.
          2   -1    0    0  501    0  0.00000000000E+00 -0.00000000000E+00 -0.23812364608E+04  0.23812364608E+04  0.25500000000E-02 0. -1.
    8880023    1    1    2    0    0  0.16279374084E+02  0.12307078792E+04 -0.17704142939E+03  0.14071463236E+04  0.65864270000E+03 0.  0.
    8880022    1    1    2    0    0 -0.16279374084E+02 -0.12307078792E+04 -0.13471412418E+04  0.18311439267E+04  0.15294330000E+03 0.  0.
<mgrwt>
<rscale>  0 0.13553014E+04</rscale>
<asrwt>0</asrwt>
<pdfrwt beam="1">  1        2 0.36634407E+00 0.13959646E+04</pdfrwt>
<pdfrwt beam="2">  1       -2 0.13185443E+00 0.13959646E+04</pdfrwt>
<totfact> 0.16341500E+00</totfact>
</mgrwt>
</event>
<event>
 4    2  0.6914693E-007  0.7346313E+03  0.7818608E-02  0.9875871E-01
          2   -1    0    0  501    0  0.00000000000E+00  0.00000000000E+00  0.25773821095E+04  0.25773821095E+04  0.25500000000E-02 0. -1.
         -2   -1    0    0    0  501 -0.00000000000E+00 -0.00000000000E+00 -0.21693214960E+03  0.21693214961E+03  0.25500000000E-02 0.  1.
    8880023    1    1    2    0    0  0.23549469067E+03  0.22453318780E+03  0.47483618402E+03  0.87472996386E+03  0.65864270000E+03 0.  1.
    8880022    1    1    2    0    0 -0.23549469067E+03 -0.22453318780E+03  0.18856137759E+04  0.19195842953E+04  0.15294330000E+03 0.  0.
<mgrwt>
<rscale>  0 0.61445063E+03</rscale>
<asrwt>0</asrwt>
<pdfrwt beam="1">  1        2 0.39652033E+00 0.73463127E+03</pdfrwt>
<pdfrwt beam="2">  1       -2 0.33374177E-01 0.73463127E+03</pdfrwt>
<totfact> 0.27587918E+01</totfact>
</mgrwt>
</event>
<event>
 4    2  0.1005258E-006  0.1049720E+04  0.7818608E-02  0.9319218E-01
         -2   -1    0    0    0  501 -0.00000000000E+00  0.00000000000E+00  0.27684999456E+04  0.27684999456E+04  0.25500000000E-02 0.  1.
          2   -1    0    0  501    0  0.00000000000E+00 -0.00000000000E+00 -0.12073620852E+04  0.12073620852E+04  0.25500000000E-02 0. -1.
    8880023    1    1    2    0    0  0.35150084066E+03 -0.73793537986E+03  0.25061285637E+04  0.27170925729E+04  0.65864270000E+03 0.  1.
    8880022    1    1    2    0    0 -0.35150084066E+03  0.73793537986E+03 -0.94499070323E+03  0.12587694579E+04  0.15294330000E+03 0.  0.
<mgrwt>
<rscale>  0 0.99032679E+03</rscale>
<asrwt>0</asrwt>
<pdfrwt beam="1">  1        2 0.18574801E+00 0.10497198E+04</pdfrwt>
<pdfrwt beam="2">  1       -2 0.42592307E+00 0.10497198E+04</pdfrwt>
<totfact> 0.94787189E-02</totfact>
</mgrwt>
</event>
<event>
 4    2  0.6914693E-007  0.6933907E+03  0.7818608E-02  0.1002581E+00
          2   -1    0    0  501    0  0.00000000000E+00  0.00000000000E+00  0.28514087606E+04  0.28514087606E+04  0.25500000000E-02 0. -1.
         -2   -1    0    0    0  501 -0.00000000000E+00 -0.00000000000E+00 -0.17799972833E+03  0.17799972835E+03  0.25500000000E-02 0.  1.
    8880023    1    1    2    0    0 -0.98792541102E+02 -0.19292617140E+03  0.53811874496E+03  0.87770294732E+03  0.65864270000E+03 0.  0.
    8880022    1    1    2    0    0  0.98792541102E+02  0.19292617140E+03  0.21352902873E+04  0.21517055417E+04  0.15294330000E+03 0.  0.
<mgrwt>
<rscale>  0 0.54532901E+03</rscale>
<asrwt>0</asrwt>
<pdfrwt beam="1">  1        2 0.43867827E+00 0.69339071E+03</pdfrwt>
<pdfrwt beam="2">  1       -2 0.27384573E-01 0.69339071E+03</pdfrwt>
<totfact> 0.27761106E+01</totfact>
</mgrwt>
</event>
<event>
 4    2  0.6914693E-007  0.1309035E+04  0.7818608E-02  0.9057797E-01
          2   -1    0    0  501    0  0.00000000000E+00  0.00000000000E+00  0.73050563051E+03  0.73050563051E+03  0.25500000000E-02 0. -1.
         -2   -1    0    0    0  501 -0.00000000000E+00 -0.00000000000E+00 -0.23542027800E+04  0.23542027800E+04  0.25500000000E-02 0.  1.
    8880023    1    1    2    0    0 -0.11240328870E+04 -0.12772147151E+03 -0.14088102229E+04  0.19231014418E+04  0.65864270000E+03 0.  0.
    8880022    1    1    2    0    0  0.11240328870E+04  0.12772147151E+03 -0.21488692660E+03  0.11616069686E+04  0.15294330000E+03 0.  0.
<mgrwt>
<rscale>  0 0.12649925E+04</rscale>
<asrwt>0</asrwt>
<pdfrwt beam="1">  1        2 0.11238548E+00 0.13090351E+04</pdfrwt>
<pdfrwt beam="2">  1       -2 0.36218504E+00 0.13090351E+04</pdfrwt>
<totfact> 0.49258427E-01</totfact>
</mgrwt>
</event>
<event>
 4    2  0.6914693E-007  0.7972048E+03  0.7818608E-02  0.9716873E-01
          2   -1    0    0  501    0  0.00000000000E+00  0.00000000000E+00  0.31206827941E+04  0.31206827941E+04  0.25500000000E-02 0. -1.
         -2   -1    0    0    0  501 -0.00000000000E+00 -0.00000000000E+00 -0.23754048207E+03  0.23754048208E+03  0.25500000000E-02 0.  1.
    8880023    1    1    2    0    0  0.18896609039E+03  0.40745201571E+03  0.52902148505E+03  0.95676500058E+03  0.65864270000E+03 0.  1.
    8880022    1    1    2    0    0 -0.18896609039E+03 -0.40745201571E+03  0.23541208270E+04  0.24014582756E+04  0.15294330000E+03 0.  0.
<mgrwt>
<rscale>  0 0.70021026E+03</rscale>
<asrwt>0</asrwt>
<pdfrwt beam="1">  1        2 0.48010503E+00 0.79720483E+03</pdfrwt>
<pdfrwt beam="2">  1       -2 0.36544690E-01 0.79720483E+03</pdfrwt>
<totfact> 0.10884035E+01</totfact>
</mgrwt>
</event>
<event>
 4    2  0.6914693E-007  0.6911497E+03  0.7818608E-02  0.1003611E+00
         -2   -1    0    0    0  501 -0.00000000000E+00  0.00000000000E+00  0.19997395339E+03  0.19997395340E+03  0.25500000000E-02 0.  1.
          2   -1    0    0  501    0  0.00000000000E+00 -0.00000000000E+00 -0.46763122143E+04  0.46763122143E+04  0.25500000000E-02 0. -1.
    8880023    1    1    2    0    0 -0.16287821971E+03 -0.13171301702E+03 -0.41396012385E+03  0.80563690563E+03  0.65864270000E+03 0.  1.
    8880022    1    1    2    0    0  0.16287821971E+03  0.13171301702E+03 -0.40623781371E+04  0.40706492621E+04  0.15294330000E+03 0.  0.
<mgrwt>
<rscale>  0 0.54094881E+03</rscale>
<asrwt>0</asrwt>
<pdfrwt beam="1">  1        2 0.71943257E+00 0.69114965E+03</pdfrwt>
<pdfrwt beam="2">  1       -2 0.30765227E-01 0.69114965E+03</pdfrwt>
<totfact> 0.92988878E-01</totfact>
</mgrwt>
</event>
<event>
 4    2  0.6914693E-007  0.7731343E+03  0.7818608E-02  0.9772219E-01
         -2   -1    0    0    0  501 -0.00000000000E+00  0.00000000000E+00  0.49733353592E+03  0.49733353593E+03  0.25500000000E-02 0.  1.
          2   -1    0    0  501    0  0.00000000000E+00 -0.00000000000E+00 -0.12524590606E+04  0.12524590606E+04  0.25500000000E-02 0. -1.
    8880023    1    1    2    0    0  0.24967351127E+03  0.31873108469E+03  0.11147189713E+03  0.78112902691E+03  0.65864270000E+03 0.  0.
    8880022    1    1    2    0    0 -0.24967351127E+03 -0.31873108469E+03 -0.86659742177E+03  0.96866356957E+03  0.15294330000E+03 0.  0.
<mgrwt>
<rscale>  0 0.66874975E+03</rscale>
<asrwt>0</asrwt>
<pdfrwt beam="1">  1        2 0.19268601E+00 0.77313425E+03</pdfrwt>
<pdfrwt beam="2">  1       -2 0.76512852E-01 0.77313425E+03</pdfrwt>
<totfact> 0.27385394E+01</totfact>
</mgrwt>
</event>
<event>
 4    2  0.6914693E-007  0.7475198E+03  0.7818608E-02  0.9838560E-01
          2   -1    0    0  501    0  0.00000000000E+00  0.00000000000E+00  0.13518104344E+04  0.13518104344E+04  0.25500000000E-02 0. -1.
         -2   -1    0    0    0  501 -0.00000000000E+00 -0.00000000000E+00 -0.46486730548E+03  0.46486730549E+03  0.25500000000E-02 0.  1.
    8880023    1    1    2    0    0 -0.29881443402E+03 -0.18890636237E+03 -0.10286401281E+03  0.75456404044E+03  0.65864270000E+03 0.  1.
    8880022    1    1    2    0    0  0.29881443402E+03  0.18890636237E+03  0.98980714177E+03  0.10621136995E+04  0.15294330000E+03 0.  0.
<mgrwt>
<rscale>  0 0.63333621E+03</rscale>
<asrwt>0</asrwt>
<pdfrwt beam="1">  1        2 0.20797084E+00 0.74751982E+03</pdfrwt>
<pdfrwt beam="2">  1       -2 0.71518047E-01 0.74751982E+03</pdfrwt>
<totfact> 0.27938600E+01</totfact>
</mgrwt>
</event>
<event>
 4    2  0.6914693E-007  0.9251578E+03  0.7818608E-02  0.9486795E-01
          2   -1    0    0  501    0  0.00000000000E+00  0.00000000000E+00  0.20865614292E+04  0.20865614292E+04  0.25500000000E-02 0. -1.
         -2   -1    0    0    0  501 -0.00000000000E+00 -0.00000000000E+00 -0.51832527669E+03  0.51832527669E+03  0.25500000000E-02 0.  1.
    8880023    1    1    2    0    0  0.18388683885E+03 -0.62313110402E+03  0.27248411684E+02  0.92555897948E+03  0.65864270000E+03 0.  1.
    8880022    1    1    2    0    0 -0.18388683885E+03  0.62313110402E+03  0.15409877408E+04  0.16793277264E+04  0.15294330000E+03 0.  0.
<mgrwt>
<rscale>  0 0.85264378E+03</rscale>
<asrwt>0</asrwt>
<pdfrwt beam="1">  1        2 0.32100945E+00 0.92515780E+03</pdfrwt>
<pdfrwt beam="2">  1       -2 0.79742349E-01 0.92515780E+03</pdfrwt>
<totfact> 0.84281981E+00</totfact>
</mgrwt>
</event>
<event>
 4    2  0.6914693E-007  0.6985886E+03  0.7818608E-02  0.1000311E+00
         -2   -1    0    0    0  501 -0.00000000000E+00  0.00000000000E+00  0.17526978277E+03  0.17526978279E+03  0.25500000000E-02 0.  1.
          2   -1    0    0  501    0  0.00000000000E+00 -0.00000000000E+00 -0.17013207319E+04  0.17013207319E+04  0.25500000000E-02 0. -1.
    8880023    1    1    2    0    0  0.15533597984E+02  0.23232432665E+03 -0.63875898731E+03  0.94659343731E+03  0.65864270000E+03 0.  0.
    8880022    1    1    2    0    0 -0.15533597984E+02 -0.23232432665E+03 -0.88729196181E+03  0.92999707737E+03  0.15294330000E+03 0.  0.
<mgrwt>
<rscale>  0 0.55514206E+03</rscale>
<asrwt>0</asrwt>
<pdfrwt beam="1">  1        2 0.26174164E+00 0.69858864E+03</pdfrwt>
<pdfrwt beam="2">  1       -2 0.26964583E-01 0.69858864E+03</pdfrwt>
<totfact> 0.12530110E+02</totfact>
</mgrwt>
</event>
<event>
 4    2  0.6914693E-007  0.8956098E+03  0.7818608E-02  0.9533116E-01
         -2   -1    0    0    0  501 -0.00000000000E+00  0.00000000000E+00  0.72024256099E+03  0.72024256100E+03  0.25500000000E-02 0.  1.
          2   -1    0    0  501    0  0.00000000000E+00 -0.00000000000E+00 -0.80476887221E+03  0.80476887222E+03  0.25500000000E-02 0. -1.
    8880023    1    1    2    0    0  0.38755544161E+03  0.46701972997E+03 -0.79523531122E+02  0.89913338653E+03  0.65864270000E+03 0.  1.
    8880022    1    1    2    0    0 -0.38755544161E+03 -0.46701972997E+03 -0.50027800995E+01  0.62587804669E+03  0.15294330000E+03 0. -1.
<mgrwt>
<rscale>  0 0.81885702E+03</rscale>
<asrwt>0</asrwt>
<pdfrwt beam="1">  1        2 0.12381060E+00 0.89560977E+03</pdfrwt>
<pdfrwt beam="2">  1       -2 0.11080655E+00 0.89560977E+03</pdfrwt>
<totfact> 0.22096897E+01</totfact>
</mgrwt>
</event>
<event>
 4    2  0.6914693E-007  0.7077937E+03  0.7818608E-02  0.9966287E-01
          2   -1    0    0  501    0  0.00000000000E+00  0.00000000000E+00  0.16626825264E+04  0.16626825264E+04  0.25500000000E-02 0. -1.
         -2   -1    0    0    0  501 -0.00000000000E+00 -0.00000000000E+00 -0.33973608819E+03  0.33973608820E+03  0.25500000000E-02 0.  1.
    8880023    1    1    2    0    0  0.99267292567E+02 -0.23939037575E+03  0.67036919861E+02  0.71096125229E+03  0.65864270000E+03 0.  1.
    8880022    1    1    2    0    0 -0.99267292567E+02  0.23939037575E+03  0.12559095184E+04  0.12914573623E+04  0.15294330000E+03 0.  0.
<mgrwt>
<rscale>  0 0.57153539E+03</rscale>
<asrwt>0</asrwt>
<pdfrwt beam="1">  1        2 0.25579730E+00 0.70779372E+03</pdfrwt>
<pdfrwt beam="2">  1       -2 0.52267092E-01 0.70779372E+03</pdfrwt>
<totfact> 0.36634843E+01</totfact>
</mgrwt>
</event>
<event>
 4    2  0.6914693E-007  0.8290747E+03  0.7818608E-02  0.9651135E-01
          2   -1    0    0  501    0  0.00000000000E+00  0.00000000000E+00  0.94225264312E+03  0.94225264313E+03  0.25500000000E-02 0. -1.
         -2   -1    0    0    0  501 -0.00000000000E+00 -0.00000000000E+00 -0.49729979274E+03  0.49729979275E+03  0.25500000000E-02 0.  1.
    8880023    1    1    2    0    0  0.39251386202E+03  0.31541631623E+03  0.17202958434E+03  0.84673429632E+03  0.65864270000E+03 0.  0.
    8880022    1    1    2    0    0 -0.39251386202E+03 -0.31541631623E+03  0.27292326604E+03  0.59281813955E+03  0.15294330000E+03 0.  0.
<mgrwt>
<rscale>  0 0.74002206E+03</rscale>
<asrwt>0</asrwt>
<pdfrwt beam="1">  1        2 0.14496194E+00 0.82907466E+03</pdfrwt>
<pdfrwt beam="2">  1       -2 0.76507661E-01 0.82907466E+03</pdfrwt>
<totfact> 0.42322522E+01</totfact>
</mgrwt>
</event>
<event>
 4    2  0.6914693E-007  0.8325983E+03  0.7818608E-02  0.9644298E-01
          2   -1    0    0  501    0  0.00000000000E+00  0.00000000000E+00  0.47368871293E+03  0.47368871294E+03  0.25500000000E-02 0. -1.
         -2   -1    0    0    0  501 -0.00000000000E+00 -0.00000000000E+00 -0.12436965409E+04  0.12436965409E+04  0.25500000000E-02 0.  1.
    8880023    1    1    2    0    0  0.18528965829E+03 -0.47442329797E+03 -0.83796174428E+03  0.11812704239E+04  0.65864270000E+03 0.  1.
    8880022    1    1    2    0    0 -0.18528965829E+03  0.47442329797E+03  0.67953916361E+02  0.53611482995E+03  0.15294330000E+03 0.  0.
<mgrwt>
<rscale>  0 0.74432367E+03</rscale>
<asrwt>0</asrwt>
<pdfrwt beam="1">  1        2 0.72875187E-01 0.83259830E+03</pdfrwt>
<pdfrwt beam="2">  1       -2 0.19133793E+00 0.83259830E+03</pdfrwt>
<totfact> 0.10050107E+01</totfact>
</mgrwt>
</event>
<event>
 4    2  0.6914693E-007  0.8102654E+03  0.7818608E-02  0.9689024E-01
         -2   -1    0    0    0  501 -0.00000000000E+00  0.00000000000E+00  0.33681458919E+03  0.33681458919E+03  0.25500000000E-02 0.  1.
          2   -1    0    0  501    0  0.00000000000E+00 -0.00000000000E+00 -0.22542830880E+04  0.22542830880E+04  0.25500000000E-02 0. -1.
    8880023    1    1    2    0    0  0.47184277267E+03 -0.91782504577E+01 -0.24484006837E+03  0.84644947146E+03  0.65864270000E+03 0.  0.
    8880022    1    1    2    0    0 -0.47184277267E+03  0.91782504577E+01 -0.16726284304E+04  0.17446482057E+04  0.15294330000E+03 0.  0.
<mgrwt>
<rscale>  0 0.71674053E+03</rscale>
<asrwt>0</asrwt>
<pdfrwt beam="1">  1        2 0.34681277E+00 0.81026542E+03</pdfrwt>
<pdfrwt beam="2">  1       -2 0.51817631E-01 0.81026542E+03</pdfrwt>
<totfact> 0.17456991E+01</totfact>
</mgrwt>
</event>
<event>
 4    2  0.6914693E-007  0.9011992E+03  0.7818608E-02  0.9524109E-01
         -2   -1    0    0    0  501 -0.00000000000E+00  0.00000000000E+00  0.27992235798E+03  0.27992235799E+03  0.25500000000E-02 0.  1.
          2   -1    0    0  501    0  0.00000000000E+00 -0.00000000000E+00 -0.26585906999E+04  0.26585906999E+04  0.25500000000E-02 0. -1.
    8880023    1    1    2    0    0  0.60653573134E+02 -0.61210368301E+03 -0.69062391200E+03  0.11353948074E+04  0.65864270000E+03 0.  0.
    8880022    1    1    2    0    0 -0.60653573134E+02  0.61210368301E+03 -0.16880444299E+04  0.18031182504E+04  0.15294330000E+03 0.  0.
<mgrwt>
<rscale>  0 0.82529445E+03</rscale>
<asrwt>0</asrwt>
<pdfrwt beam="1">  1        2 0.40901394E+00 0.90119919E+03</pdfrwt>
<pdfrwt beam="2">  1       -2 0.43064980E-01 0.90119919E+03</pdfrwt>
<totfact> 0.14771465E+01</totfact>
</mgrwt>
</event>
<event>
 4    2  0.6914693E-007  0.7885943E+03  0.7818608E-02  0.9736023E-01
          2   -1    0    0  501    0  0.00000000000E+00  0.00000000000E+00  0.10993835947E+04  0.10993835947E+04  0.25500000000E-02 0. -1.
         -2   -1    0    0    0  501 -0.00000000000E+00 -0.00000000000E+00 -0.10639046308E+04  0.10639046308E+04  0.25500000000E-02 0.  1.
    8880023    1    1    2    0    0  0.21334816907E+03 -0.37756231188E+03 -0.85372981115E+03  0.11622114856E+04  0.65864270000E+03 0.  1.
    8880022    1    1    2    0    0 -0.21334816907E+03  0.37756231188E+03  0.88920877500E+03  0.10010767399E+04  0.15294330000E+03 0.  0.
<mgrwt>
<rscale>  0 0.68911922E+03</rscale>
<asrwt>0</asrwt>
<pdfrwt beam="1">  1        2 0.16913594E+00 0.78859429E+03</pdfrwt>
<pdfrwt beam="2">  1       -2 0.16367763E+00 0.78859429E+03</pdfrwt>
<totfact> 0.52422134E+00</totfact>
</mgrwt>
</event>
<event>
 4    2  0.6914693E-007  0.6994899E+03  0.7818608E-02  0.9999324E-01
          2   -1    0    0  501    0  0.00000000000E+00  0.00000000000E+00  0.21839774400E+04  0.21839774400E+04  0.25500000000E-02 0. -1.
         -2   -1    0    0    0  501 -0.00000000000E+00 -0.00000000000E+00 -0.23236273433E+03  0.23236273435E+03  0.25500000000E-02 0.  1.
    8880023    1    1    2    0    0 -0.19748600268E+02  0.23470376230E+03  0.33510388447E+03  0.77561632454E+03  0.65864270000E+03 0.  1.
    8880022    1    1    2    0    0  0.19748600268E+02 -0.23470376230E+03  0.16165108212E+04  0.16407238498E+04  0.15294330000E+03 0.  0.
<mgrwt>
<rscale>  0 0.55679886E+03</rscale>
<asrwt>0</asrwt>
<pdfrwt beam="1">  1        2 0.33599653E+00 0.69948986E+03</pdfrwt>
<pdfrwt beam="2">  1       -2 0.35748113E-01 0.69948986E+03</pdfrwt>
<totfact> 0.40400938E+01</totfact>
</mgrwt>
</event>
<event>
 4    2  0.6914693E-007  0.1299592E+04  0.7818608E-02  0.9065912E-01
          2   -1    0    0  501    0  0.00000000000E+00  0.00000000000E+00  0.13900511873E+04  0.13900511873E+04  0.25500000000E-02 0. -1.
         -2   -1    0    0    0  501 -0.00000000000E+00 -0.00000000000E+00 -0.11194596440E+04  0.11194596440E+04  0.25500000000E-02 0.  1.
    8880023    1    1    2    0    0 -0.11202467983E+04  0.13268256630E+02 -0.13875451322E+03  0.13069781777E+04  0.65864270000E+03 0.  0.
    8880022    1    1    2    0    0  0.11202467983E+04 -0.13268256630E+02  0.40934605650E+03  0.12025326535E+04  0.15294330000E+03 0.  0.
<mgrwt>
<rscale>  0 0.12551445E+04</rscale>
<asrwt>0</asrwt>
<pdfrwt beam="1">  1        2 0.21385403E+00 0.12995919E+04</pdfrwt>
<pdfrwt beam="2">  1       -2 0.17222456E+00 0.12995919E+04</pdfrwt>
<totfact> 0.28985209E+00</totfact>
</mgrwt>
</event>
<event>
 4    2  0.6914693E-007  0.9694130E+03  0.7818608E-02  0.9422717E-01
          2   -1    0    0  501    0  0.00000000000E+00  0.00000000000E+00  0.10940307144E+04  0.10940307144E+04  0.25500000000E-02 0. -1.
         -2   -1    0    0    0  501 -0.00000000000E+00 -0.00000000000E+00 -0.73658082503E+03  0.73658082503E+03  0.25500000000E-02 0.  1.
    8880023    1    1    2    0    0 -0.70238764733E+03 -0.11226259019E+03 -0.94656784603E+02  0.97402331051E+03  0.65864270000E+03 0.  1.
    8880022    1    1    2    0    0  0.70238764733E+03  0.11226259019E+03  0.45210667399E+03  0.85658822894E+03  0.15294330000E+03 0.  0.
<mgrwt>
<rscale>  0 0.90229544E+03</rscale>
<asrwt>0</asrwt>
<pdfrwt beam="1">  1        2 0.16831242E+00 0.96941297E+03</pdfrwt>
<pdfrwt beam="2">  1       -2 0.11332013E+00 0.96941297E+03</pdfrwt>
<totfact> 0.13371701E+01</totfact>
</mgrwt>
</event>
<event>
 4    2  0.6914693E-007  0.8051787E+03  0.7818608E-02  0.9699708E-01
         -2   -1    0    0    0  501 -0.00000000000E+00  0.00000000000E+00  0.35140715637E+03  0.35140715638E+03  0.25500000000E-02 0.  1.
          2   -1    0    0  501    0  0.00000000000E+00 -0.00000000000E+00 -0.26255293119E+04  0.26255293119E+04  0.25500000000E-02 0. -1.
    8880023    1    1    2    0    0 -0.42489818727E+03 -0.18429357051E+03 -0.17774038657E+03  0.82456318191E+03  0.65864270000E+03 0.  0.
    8880022    1    1    2    0    0  0.42489818727E+03  0.18429357051E+03 -0.20963817690E+04  0.21523732864E+04  0.15294330000E+03 0.  0.
<mgrwt>
<rscale>  0 0.71034154E+03</rscale>
<asrwt>0</asrwt>
<pdfrwt beam="1">  1        2 0.40392757E+00 0.80517874E+03</pdfrwt>
<pdfrwt beam="2">  1       -2 0.54062641E-01 0.80517874E+03</pdfrwt>
<totfact> 0.98762141E+00</totfact>
</mgrwt>
</event>
<event>
 4    2  0.6914693E-007  0.7208140E+03  0.7818608E-02  0.9919841E-01
         -2   -1    0    0    0  501 -0.00000000000E+00  0.00000000000E+00  0.13179300912E+03  0.13179300915E+03  0.25500000000E-02 0.  1.
          2   -1    0    0  501    0  0.00000000000E+00 -0.00000000000E+00 -0.23826846012E+04  0.23826846012E+04  0.25500000000E-02 0. -1.
    8880023    1    1    2    0    0  0.27369964125E+03  0.10416841817E+03 -0.19018719043E+04  0.20338853212E+04  0.65864270000E+03 0. -1.
    8880022    1    1    2    0    0 -0.27369964125E+03 -0.10416841817E+03 -0.34901968779E+03  0.48059228921E+03  0.15294330000E+03 0.  0.
<mgrwt>
<rscale>  0 0.59309252E+03</rscale>
<asrwt>0</asrwt>
<pdfrwt beam="1">  1        2 0.36656683E+00 0.72081396E+03</pdfrwt>
<pdfrwt beam="2">  1       -2 0.20275849E-01 0.72081396E+03</pdfrwt>
<totfact> 0.88044269E+01</totfact>
</mgrwt>
</event>
<event>
 4    2  0.6914693E-007  0.6707048E+03  0.7818608E-02  0.1015163E+00
          2   -1    0    0  501    0  0.00000000000E+00  0.00000000000E+00  0.27655825197E+04  0.27655825197E+04  0.25500000000E-02 0. -1.
         -2   -1    0    0    0  501 -0.00000000000E+00 -0.00000000000E+00 -0.52499826484E+03  0.52499826485E+03  0.25500000000E-02 0.  1.
    8880023    1    1    2    0    0 -0.63388786983E+02 -0.10962040730E+03 -0.30533100399E+03  0.73693418992E+03  0.65864270000E+03 0.  1.
    8880022    1    1    2    0    0  0.63388786983E+02  0.10962040730E+03  0.25459152588E+04  0.25536465946E+04  0.15294330000E+03 0.  0.
<mgrwt>
<rscale>  0 0.49473428E+03</rscale>
<asrwt>0</asrwt>
<pdfrwt beam="1">  1        2 0.42547423E+00 0.67070484E+03</pdfrwt>
<pdfrwt beam="2">  1       -2 0.80768965E-01 0.67070484E+03</pdfrwt>
<totfact> 0.35316236E+00</totfact>
</mgrwt>
</event>
<event>
 4    2  0.6914693E-007  0.7837394E+03  0.7818608E-02  0.9747125E-01
         -2   -1    0    0    0  501 -0.00000000000E+00  0.00000000000E+00  0.44946318049E+03  0.44946318050E+03  0.25500000000E-02 0.  1.
          2   -1    0    0  501    0  0.00000000000E+00 -0.00000000000E+00 -0.23370977528E+04  0.23370977528E+04  0.25500000000E-02 0. -1.
    8880023    1    1    2    0    0  0.17284758003E+03  0.38802192079E+03  0.61189949164E+02  0.78612448956E+03  0.65864270000E+03 0.  1.
    8880022    1    1    2    0    0 -0.17284758003E+03 -0.38802192079E+03 -0.19488245215E+04  0.20004364437E+04  0.15294330000E+03 0.  0.
<mgrwt>
<rscale>  0 0.68278977E+03</rscale>
<asrwt>0</asrwt>
<pdfrwt beam="1">  1        2 0.35955349E+00 0.78373944E+03</pdfrwt>
<pdfrwt beam="2">  1       -2 0.69148183E-01 0.78373944E+03</pdfrwt>
<totfact> 0.85647509E+00</totfact>
</mgrwt>
</event>
<event>
 4    2  0.6914693E-007  0.1246353E+04  0.7818608E-02  0.9113330E-01
          2   -1    0    0  501    0  0.00000000000E+00  0.00000000000E+00  0.19175907924E+04  0.19175907924E+04  0.25500000000E-02 0. -1.
         -2   -1    0    0    0  501 -0.00000000000E+00 -0.00000000000E+00 -0.81564635341E+03  0.81564635341E+03  0.25500000000E-02 0.  1.
    8880023    1    1    2    0    0 -0.24970101971E+03 -0.10282198681E+04  0.11027008378E+04  0.16641352230E+04  0.65864270000E+03 0.  0.
    8880022    1    1    2    0    0  0.24970101971E+03  0.10282198681E+04 -0.75639874297E+00  0.10691019229E+04  0.15294330000E+03 0.  0.
<mgrwt>
<rscale>  0 0.11994597E+04</rscale>
<asrwt>0</asrwt>
<pdfrwt beam="1">  1        2 0.29501397E+00 0.12463534E+04</pdfrwt>
<pdfrwt beam="2">  1       -2 0.12548405E+00 0.12463534E+04</pdfrwt>
<totfact> 0.34220171E+00</totfact>
</mgrwt>
</event>
<event>
 4    2  0.6914693E-007  0.6937664E+03  0.7818608E-02  0.1002411E+00
         -2   -1    0    0    0  501 -0.00000000000E+00  0.00000000000E+00  0.19716971013E+03  0.19716971015E+03  0.25500000000E-02 0.  1.
          2   -1    0    0  501    0  0.00000000000E+00 -0.00000000000E+00 -0.20738828420E+04  0.20738828420E+04  0.25500000000E-02 0. -1.
    8880023    1    1    2    0    0 -0.17677983604E+03  0.12747753646E+03 -0.46673300508E+03  0.83615281918E+03  0.65864270000E+03 0.  0.
    8880022    1    1    2    0    0  0.17677983604E+03 -0.12747753646E+03 -0.14099801268E+04  0.14348997330E+04  0.15294330000E+03 0.  0.
<mgrwt>
<rscale>  0 0.54605400E+03</rscale>
<asrwt>0</asrwt>
<pdfrwt beam="1">  1        2 0.31905888E+00 0.69376642E+03</pdfrwt>
<pdfrwt beam="2">  1       -2 0.30333803E-01 0.69376642E+03</pdfrwt>
<totfact> 0.63284680E+01</totfact>
</mgrwt>
</event>
<event>
 4    2  0.6914693E-007  0.7841243E+03  0.7818608E-02  0.9746237E-01
         -2   -1    0    0    0  501 -0.00000000000E+00  0.00000000000E+00  0.10297693679E+04  0.10297693679E+04  0.25500000000E-02 0.  1.
          2   -1    0    0  501    0  0.00000000000E+00 -0.00000000000E+00 -0.39375721745E+03  0.39375721746E+03  0.25500000000E-02 0. -1.
    8880023    1    1    2    0    0 -0.79976713772E+02  0.41790473245E+03  0.56351688863E+03  0.96560971939E+03  0.65864270000E+03 0.  1.
    8880022    1    1    2    0    0  0.79976713772E+02 -0.41790473245E+03  0.72495261834E+02  0.45791686599E+03  0.15294330000E+03 0.  0.
<mgrwt>
<rscale>  0 0.68329360E+03</rscale>
<asrwt>0</asrwt>
<pdfrwt beam="1">  1        2 0.60578034E-01 0.78412425E+03</pdfrwt>
<pdfrwt beam="2">  1       -2 0.15842605E+00 0.78412425E+03</pdfrwt>
<totfact> 0.21169141E+01</totfact>
</mgrwt>
</event>
<event>
 4    2  0.6914693E-007  0.9636231E+03  0.7818608E-02  0.9430779E-01
          2   -1    0    0  501    0  0.00000000000E+00  0.00000000000E+00  0.24161291962E+04  0.24161291962E+04  0.25500000000E-02 0. -1.
         -2   -1    0    0    0  501 -0.00000000000E+00 -0.00000000000E+00 -0.39767447540E+03  0.39767447541E+03  0.25500000000E-02 0.  1.
    8880023    1    1    2    0    0 -0.16388307869E+03 -0.68403332974E+03  0.40161212948E+03  0.10439644479E+04  0.65864270000E+03 0.  1.
    8880022    1    1    2    0    0  0.16388307869E+03  0.68403332974E+03  0.16168425913E+04  0.17698392237E+04  0.15294330000E+03 0.  0.
<mgrwt>
<rscale>  0 0.89585440E+03</rscale>
<asrwt>0</asrwt>
<pdfrwt beam="1">  1        2 0.37171218E+00 0.96362309E+03</pdfrwt>
<pdfrwt beam="2">  1       -2 0.61180690E-01 0.96362309E+03</pdfrwt>
<totfact> 0.98130173E+00</totfact>
</mgrwt>
</event>
<event>
 4    2  0.6914693E-007  0.9301730E+03  0.7818608E-02  0.9479234E-01
         -2   -1    0    0    0  501 -0.00000000000E+00  0.00000000000E+00  0.34740174182E+03  0.34740174183E+03  0.25500000000E-02 0.  1.
          2   -1    0    0  501    0  0.00000000000E+00 -0.00000000000E+00 -0.27360626767E+04  0.27360626767E+04  0.25500000000E-02 0. -1.
    8880023    1    1    2    0    0  0.37217701998E+03 -0.54119848787E+03 -0.45483695360E+03  0.10354218455E+04  0.65864270000E+03 0.  0.
    8880022    1    1    2    0    0 -0.37217701998E+03  0.54119848787E+03 -0.19338239813E+04  0.20480425731E+04  0.15294330000E+03 0.  0.
<mgrwt>
<rscale>  0 0.85832294E+03</rscale>
<asrwt>0</asrwt>
<pdfrwt beam="1">  1        2 0.42093270E+00 0.93017296E+03</pdfrwt>
<pdfrwt beam="2">  1       -2 0.53446424E-01 0.93017296E+03</pdfrwt>
<totfact> 0.85585223E+00</totfact>
</mgrwt>
</event>
<event>
 4    2  0.6914693E-007  0.6821014E+03  0.7818608E-02  0.1008159E+00
          2   -1    0    0  501    0  0.00000000000E+00  0.00000000000E+00  0.14764427210E+04  0.14764427210E+04  0.25500000000E-02 0. -1.
         -2   -1    0    0    0  501 -0.00000000000E+00 -0.00000000000E+00 -0.20838165435E+03  0.20838165436E+03  0.25500000000E-02 0.  1.
    8880023    1    1    2    0    0  0.25897834383E+02  0.17544636721E+03  0.41102748062E+03  0.79637046761E+03  0.65864270000E+03 0.  1.
    8880022    1    1    2    0    0 -0.25897834383E+02 -0.17544636721E+03  0.85703358602E+03  0.88845390774E+03  0.15294330000E+03 0. -1.
<mgrwt>
<rscale>  0 0.52212878E+03</rscale>
<asrwt>0</asrwt>
<pdfrwt beam="1">  1        2 0.22714503E+00 0.68210141E+03</pdfrwt>
<pdfrwt beam="2">  1       -2 0.32058716E-01 0.68210141E+03</pdfrwt>
<totfact> 0.12122035E+02</totfact>
</mgrwt>
</event>
<event>
 4    2  0.6914693E-007  0.8844204E+03  0.7818608E-02  0.9551519E-01
         -2   -1    0    0    0  501 -0.00000000000E+00  0.00000000000E+00  0.11888068413E+04  0.11888068413E+04  0.25500000000E-02 0.  1.
          2   -1    0    0  501    0  0.00000000000E+00 -0.00000000000E+00 -0.12238368092E+04  0.12238368092E+04  0.25500000000E-02 0. -1.
    8880023    1    1    2    0    0 -0.32631129318E+03  0.49184368519E+03  0.92217382760E+03  0.12777339493E+04  0.65864270000E+03 0.  0.
    8880022    1    1    2    0    0  0.32631129318E+03 -0.49184368519E+03 -0.95720379547E+03  0.11349097012E+04  0.15294330000E+03 0.  0.
<mgrwt>
<rscale>  0 0.80589778E+03</rscale>
<asrwt>0</asrwt>
<pdfrwt beam="1">  1        2 0.18828259E+00 0.88442042E+03</pdfrwt>
<pdfrwt beam="2">  1       -2 0.18289336E+00 0.88442042E+03</pdfrwt>
<totfact> 0.31927222E+00</totfact>
</mgrwt>
</event>
<event>
 4    2  0.6914693E-007  0.6836472E+03  0.7818608E-02  0.1007332E+00
          2   -1    0    0  501    0  0.00000000000E+00  0.00000000000E+00  0.37611805053E+03  0.37611805054E+03  0.25500000000E-02 0. -1.
         -2   -1    0    0    0  501 -0.00000000000E+00 -0.00000000000E+00 -0.10376756522E+04  0.10376756522E+04  0.25500000000E-02 0.  1.
    8880023    1    1    2    0    0  0.35228066498E+02 -0.17978379591E+03 -0.86336108144E+03  0.11012564611E+04  0.65864270000E+03 0.  1.
    8880022    1    1    2    0    0 -0.35228066498E+02  0.17978379591E+03  0.20180347978E+03  0.31253724163E+03  0.15294330000E+03 0.  0.
<mgrwt>
<rscale>  0 0.52549112E+03</rscale>
<asrwt>0</asrwt>
<pdfrwt beam="1">  1        2 0.57864316E-01 0.68364716E+03</pdfrwt>
<pdfrwt beam="2">  1       -2 0.15964241E+00 0.68364716E+03</pdfrwt>
<totfact> 0.22013684E+01</totfact>
</mgrwt>
</event>
<event>
 4    2  0.6914693E-007  0.7556662E+03  0.7818608E-02  0.9816459E-01
         -2   -1    0    0    0  501 -0.00000000000E+00  0.00000000000E+00  0.21279181917E+03  0.21279181918E+03  0.25500000000E-02 0.  1.
          2   -1    0    0  501    0  0.00000000000E+00 -0.00000000000E+00 -0.20670530597E+04  0.20670530597E+04  0.25500000000E-02 0. -1.
    8880023    1    1    2    0    0  0.16221348666E+03 -0.33302843999E+03 -0.60543504427E+03  0.96828867399E+03  0.65864270000E+03 0.  1.
    8880022    1    1    2    0    0 -0.16221348666E+03  0.33302843999E+03 -0.12488261962E+04  0.13115562049E+04  0.15294330000E+03 0.  0.
<mgrwt>
<rscale>  0 0.64486678E+03</rscale>
<asrwt>0</asrwt>
<pdfrwt beam="1">  1        2 0.31800815E+00 0.75566617E+03</pdfrwt>
<pdfrwt beam="2">  1       -2 0.32737204E-01 0.75566617E+03</pdfrwt>
<totfact> 0.54930006E+01</totfact>
</mgrwt>
</event>
<event>
 4    2  0.6914693E-007  0.6735644E+03  0.7818608E-02  0.1013227E+00
         -2   -1    0    0    0  501 -0.00000000000E+00  0.00000000000E+00  0.38860853763E+03  0.38860853763E+03  0.25500000000E-02 0.  1.
          2   -1    0    0  501    0  0.00000000000E+00 -0.00000000000E+00 -0.11696255696E+04  0.11696255696E+04  0.25500000000E-02 0. -1.
    8880023    1    1    2    0    0 -0.61663286317E+02  0.12679274002E+03  0.74610232058E+02  0.67768403610E+03  0.65864270000E+03 0.  1.
    8880022    1    1    2    0    0  0.61663286317E+02 -0.12679274002E+03 -0.85562726405E+03  0.88055007115E+03  0.15294330000E+03 0.  0.
<mgrwt>
<rscale>  0 0.50212080E+03</rscale>
<asrwt>0</asrwt>
<pdfrwt beam="1">  1        2 0.17994239E+00 0.67356437E+03</pdfrwt>
<pdfrwt beam="2">  1       -2 0.59785929E-01 0.67356437E+03</pdfrwt>
<totfact> 0.52830398E+01</totfact>
</mgrwt>
</event>
<event>
 4    2  0.6914693E-007  0.8806147E+03  0.7818608E-02  0.9557896E-01
         -2   -1    0    0    0  501 -0.00000000000E+00  0.00000000000E+00  0.14561357869E+04  0.14561357869E+04  0.25500000000E-02 0.  1.
          2   -1    0    0  501    0  0.00000000000E+00 -0.00000000000E+00 -0.43272143788E+03  0.43272143789E+03  0.25500000000E-02 0. -1.
    8880023    1    1    2    0    0 -0.57242646713E+03 -0.11832125307E+03  0.26587994383E+03  0.91987734508E+03  0.65864270000E+03 0.  0.
    8880022    1    1    2    0    0  0.57242646713E+03  0.11832125307E+03  0.75753440517E+03  0.96897987968E+03  0.15294330000E+03 0.  0.
<mgrwt>
<rscale>  0 0.80146674E+03</rscale>
<asrwt>0</asrwt>
<pdfrwt beam="1">  1        2 0.66572531E-01 0.88061466E+03</pdfrwt>
<pdfrwt beam="2">  1       -2 0.22402088E+00 0.88061466E+03</pdfrwt>
<totfact> 0.68407661E+00</totfact>
</mgrwt>
</event>
<event>
 4    2  0.6914693E-007  0.6667044E+03  0.7818608E-02  0.1018144E+00
          2   -1    0    0  501    0  0.00000000000E+00  0.00000000000E+00  0.78791254630E+03  0.78791254630E+03  0.25500000000E-02 0. -1.
         -2   -1    0    0    0  501 -0.00000000000E+00 -0.00000000000E+00 -0.51686107776E+03  0.51686107777E+03  0.25500000000E-02 0.  1.
    8880023    1    1    2    0    0 -0.21427083625E+02 -0.10112115457E+03 -0.28038191411E+03  0.72326262992E+03  0.65864270000E+03 0.  1.
    8880022    1    1    2    0    0  0.21427083625E+02  0.10112115457E+03  0.55143338264E+03  0.58151099415E+03  0.15294330000E+03 0.  0.
<mgrwt>
<rscale>  0 0.48362251E+03</rscale>
<asrwt>0</asrwt>
<pdfrwt beam="1">  1        2 0.12121732E+00 0.66670444E+03</pdfrwt>
<pdfrwt beam="2">  1       -2 0.79517088E-01 0.66670444E+03</pdfrwt>
<totfact> 0.50270243E+01</totfact>
</mgrwt>
</event>
<event>
 4    2  0.6914693E-007  0.6728622E+03  0.7818608E-02  0.1013689E+00
          2   -1    0    0  501    0  0.00000000000E+00  0.00000000000E+00  0.84788810294E+03  0.84788810294E+03  0.25500000000E-02 0. -1.
         -2   -1    0    0    0  501 -0.00000000000E+00 -0.00000000000E+00 -0.48670329455E+03  0.48670329456E+03  0.25500000000E-02 0.  1.
    8880023    1    1    2    0    0 -0.11630484647E+03 -0.73529139718E+02 -0.22806267601E+03  0.71046192168E+03  0.65864270000E+03 0.  1.
    8880022    1    1    2    0    0  0.11630484647E+03  0.73529139718E+02  0.58924748440E+03  0.62412947582E+03  0.15294330000E+03 0.  0.
<mgrwt>
<rscale>  0 0.50034462E+03</rscale>
<asrwt>0</asrwt>
<pdfrwt beam="1">  1        2 0.13044432E+00 0.67286221E+03</pdfrwt>
<pdfrwt beam="2">  1       -2 0.74877431E-01 0.67286221E+03</pdfrwt>
<totfact> 0.52092574E+01</totfact>
</mgrwt>
</event>
<event>
 4    2  0.6914693E-007  0.6685925E+03  0.7818608E-02  0.1016693E+00
         -2   -1    0    0    0  501 -0.00000000000E+00  0.00000000000E+00  0.10883286002E+04  0.10883286002E+04  0.25500000000E-02 0.  1.
          2   -1    0    0  501    0  0.00000000000E+00 -0.00000000000E+00 -0.72432457934E+03  0.72432457934E+03  0.25500000000E-02 0. -1.
    8880023    1    1    2    0    0 -0.11379448681E+03  0.16017559669E+02  0.96948205981E+03  0.11776720333E+04  0.65864270000E+03 0.  1.
    8880022    1    1    2    0    0  0.11379448681E+03 -0.16017559669E+02 -0.60547803894E+03  0.63498114625E+03  0.15294330000E+03 0.  0.
<mgrwt>
<rscale>  0 0.48899274E+03</rscale>
<asrwt>0</asrwt>
<pdfrwt beam="1">  1        2 0.11143455E+00 0.66859252E+03</pdfrwt>
<pdfrwt beam="2">  1       -2 0.16743517E+00 0.66859252E+03</pdfrwt>
<totfact> 0.89569768E+00</totfact>
</mgrwt>
</event>
<event>
 4    2  0.6914693E-007  0.8985202E+03  0.7818608E-02  0.9528411E-01
         -2   -1    0    0    0  501 -0.00000000000E+00  0.00000000000E+00  0.41799273609E+03  0.41799273610E+03  0.25500000000E-02 0.  1.
          2   -1    0    0  501    0  0.00000000000E+00 -0.00000000000E+00 -0.17572405295E+04  0.17572405295E+04  0.25500000000E-02 0. -1.
    8880023    1    1    2    0    0  0.40487059431E+03  0.45782973690E+03 -0.27707390774E+03  0.94027039873E+03  0.65864270000E+03 0.  1.
    8880022    1    1    2    0    0 -0.40487059431E+03 -0.45782973690E+03 -0.10621738857E+04  0.12349628669E+04  0.15294330000E+03 0.  0.
<mgrwt>
<rscale>  0 0.82221185E+03</rscale>
<asrwt>0</asrwt>
<pdfrwt beam="1">  1        2 0.27034469E+00 0.89852016E+03</pdfrwt>
<pdfrwt beam="2">  1       -2 0.64306576E-01 0.89852016E+03</pdfrwt>
<totfact> 0.20582832E+01</totfact>
</mgrwt>
</event>
<event>
 4    2  0.6914693E-007  0.7524656E+03  0.7818608E-02  0.9825019E-01
          2   -1    0    0  501    0  0.00000000000E+00  0.00000000000E+00  0.12555831630E+04  0.12555831630E+04  0.25500000000E-02 0. -1.
         -2   -1    0    0    0  501 -0.00000000000E+00 -0.00000000000E+00 -0.55965016240E+03  0.55965016241E+03  0.25500000000E-02 0.  1.
    8880023    1    1    2    0    0 -0.10097104401E+03  0.34956987031E+03 -0.24785640507E+03  0.79223560243E+03  0.65864270000E+03 0.  1.
    8880022    1    1    2    0    0  0.10097104401E+03 -0.34956987031E+03  0.94378940564E+03  0.10229977230E+04  0.15294330000E+03 0.  0.
<mgrwt>
<rscale>  0 0.64037003E+03</rscale>
<asrwt>0</asrwt>
<pdfrwt beam="1">  1        2 0.19316664E+00 0.75246558E+03</pdfrwt>
<pdfrwt beam="2">  1       -2 0.86100026E-01 0.75246558E+03</pdfrwt>
<totfact> 0.20941643E+01</totfact>
</mgrwt>
</event>
<event>
 4    2  0.6914693E-007  0.1917768E+04  0.7818608E-02  0.8660045E-01
         -2   -1    0    0    0  501 -0.00000000000E+00  0.00000000000E+00  0.24807109677E+04  0.24807109677E+04  0.25500000000E-02 0.  1.
          2   -1    0    0  501    0  0.00000000000E+00 -0.00000000000E+00 -0.15946389533E+04  0.15946389533E+04  0.25500000000E-02 0. -1.
    8880023    1    1    2    0    0  0.11555118503E+04 -0.13815988508E+04  0.11686588300E+04  0.22457953353E+04  0.65864270000E+03 0.  0.
    8880022    1    1    2    0    0 -0.11555118503E+04  0.13815988508E+04 -0.28258681554E+03  0.18295545857E+04  0.15294330000E+03 0.  0.
<mgrwt>
<rscale>  0 0.18896116E+04</rscale>
<asrwt>0</asrwt>
<pdfrwt beam="1">  1        2 0.24532907E+00 0.19177678E+04</pdfrwt>
<pdfrwt beam="2">  1       -2 0.38164784E+00 0.19177678E+04</pdfrwt>
<totfact> 0.98735883E-02</totfact>
</mgrwt>
</event>
<event>
 4    2  0.6914693E-007  0.7353095E+03  0.7818608E-02  0.9873827E-01
          2   -1    0    0  501    0  0.00000000000E+00  0.00000000000E+00  0.27994222881E+04  0.27994222881E+04  0.25500000000E-02 0. -1.
         -2   -1    0    0    0  501 -0.00000000000E+00 -0.00000000000E+00 -0.25815399730E+03  0.25815399732E+03  0.25500000000E-02 0.  1.
    8880023    1    1    2    0    0  0.21319168412E+03 -0.24782896407E+03  0.31113458270E+03  0.79842646776E+03  0.65864270000E+03 0.  1.
    8880022    1    1    2    0    0 -0.21319168412E+03  0.24782896407E+03  0.22301337081E+04  0.22591498177E+04  0.15294330000E+03 0.  0.
<mgrwt>
<rscale>  0 0.61546686E+03</rscale>
<asrwt>0</asrwt>
<pdfrwt beam="1">  1        2 0.43068037E+00 0.73530952E+03</pdfrwt>
<pdfrwt beam="2">  1       -2 0.39715998E-01 0.73530952E+03</pdfrwt>
<totfact> 0.14683051E+01</totfact>
</mgrwt>
</event>
<event>
 4    2  0.6914693E-007  0.8635449E+03  0.7818608E-02  0.9587289E-01
         -2   -1    0    0    0  501 -0.00000000000E+00  0.00000000000E+00  0.77529000576E+03  0.77529000576E+03  0.25500000000E-02 0.  1.
          2   -1    0    0  501    0  0.00000000000E+00 -0.00000000000E+00 -0.10223390535E+04  0.10223390535E+04  0.25500000000E-02 0. -1.
    8880023    1    1    2    0    0 -0.36943143336E+03  0.41883163501E+03  0.38058127343E+03  0.94369053952E+03  0.65864270000E+03 0.  0.
    8880022    1    1    2    0    0  0.36943143336E+03 -0.41883163501E+03 -0.62763032120E+03  0.85393851977E+03  0.15294330000E+03 0.  0.
<mgrwt>
<rscale>  0 0.78143245E+03</rscale>
<asrwt>0</asrwt>
<pdfrwt beam="1">  1        2 0.15728293E+00 0.86354486E+03</pdfrwt>
<pdfrwt beam="2">  1       -2 0.11927538E+00 0.86354486E+03</pdfrwt>
<totfact> 0.13204308E+01</totfact>
</mgrwt>
</event>
<event>
 4    2  0.6914693E-007  0.6850319E+03  0.7818608E-02  0.1006609E+00
          2   -1    0    0  501    0  0.00000000000E+00  0.00000000000E+00  0.56771634909E+03  0.56771634910E+03  0.25500000000E-02 0. -1.
         -2   -1    0    0    0  501 -0.00000000000E+00 -0.00000000000E+00 -0.47586853922E+03  0.47586853922E+03  0.25500000000E-02 0.  1.
    8880023    1    1    2    0    0 -0.18565656953E+03 -0.31467134586E+02 -0.14975265972E+03  0.70120938936E+03  0.65864270000E+03 0.  1.
    8880022    1    1    2    0    0  0.18565656953E+03  0.31467134586E+02  0.24160046959E+03  0.34237549896E+03  0.15294330000E+03 0.  0.
<mgrwt>
<rscale>  0 0.52844720E+03</rscale>
<asrwt>0</asrwt>
<pdfrwt beam="1">  1        2 0.87340976E-01 0.68503193E+03</pdfrwt>
<pdfrwt beam="2">  1       -2 0.73210545E-01 0.68503193E+03</pdfrwt>
<totfact> 0.90675924E+01</totfact>
</mgrwt>
</event>
<event>
 4    2  0.6914693E-007  0.7281402E+03  0.7818608E-02  0.9895947E-01
          2   -1    0    0  501    0  0.00000000000E+00  0.00000000000E+00  0.45757741889E+03  0.45757741890E+03  0.25500000000E-02 0. -1.
         -2   -1    0    0    0  501 -0.00000000000E+00 -0.00000000000E+00 -0.21743816401E+04  0.21743816401E+04  0.25500000000E-02 0.  1.
    8880023    1    1    2    0    0 -0.11001138687E+03 -0.29030237104E+03 -0.20353015835E+04  0.21616291805E+04  0.65864270000E+03 0.  1.
    8880022    1    1    2    0    0  0.11001138687E+03  0.29030237104E+03  0.31849736226E+03  0.47032987855E+03  0.15294330000E+03 0.  0.
<mgrwt>
<rscale>  0 0.60458115E+03</rscale>
<asrwt>0</asrwt>
<pdfrwt beam="1">  1        2 0.70396527E-01 0.72814022E+03</pdfrwt>
<pdfrwt beam="2">  1       -2 0.33452025E+00 0.72814022E+03</pdfrwt>
<totfact> 0.13989466E+00</totfact>
</mgrwt>
</event>
<event>
 4    2  0.6914693E-007  0.8128001E+03  0.7818608E-02  0.9683774E-01
          2   -1    0    0  501    0  0.00000000000E+00  0.00000000000E+00  0.30620099180E+04  0.30620099180E+04  0.25500000000E-02 0. -1.
         -2   -1    0    0    0  501 -0.00000000000E+00 -0.00000000000E+00 -0.16058067574E+03  0.16058067576E+03  0.25500000000E-02 0.  1.
    8880023    1    1    2    0    0 -0.29513992787E+03 -0.37379970790E+03  0.12015891833E+04  0.14506759012E+04  0.65864270000E+03 0.  0.
    8880022    1    1    2    0    0  0.29513992787E+03  0.37379970790E+03  0.16998400589E+04  0.17719146925E+04  0.15294330000E+03 0.  0.
<mgrwt>
<rscale>  0 0.71991173E+03</rscale>
<asrwt>0</asrwt>
<pdfrwt beam="1">  1        2 0.47107839E+00 0.81280010E+03</pdfrwt>
<pdfrwt beam="2">  1       -2 0.24704723E-01 0.81280010E+03</pdfrwt>
<totfact> 0.24465916E+01</totfact>
</mgrwt>
</event>
<event>
 4    2  0.1076779E-006  0.8568603E+03  0.7818608E-02  0.9599173E-01
         -2   -1    0    0    0  501 -0.00000000000E+00  0.00000000000E+00  0.14896177183E+04  0.14896177183E+04  0.25500000000E-02 0.  1.
          2   -1    0    0  501    0  0.00000000000E+00 -0.00000000000E+00 -0.12550425736E+04  0.12550425736E+04  0.25500000000E-02 0. -1.
    8880023    1    1    2    0    0  0.54749861953E+03 -0.25389885516E+02  0.12882287333E+04  0.15471725373E+04  0.65864270000E+03 0.  1.
    8880022    1    1    2    0    0 -0.54749861953E+03  0.25389885516E+02 -0.10536535885E+04  0.11974877546E+04  0.15294330000E+03 0.  0.
<mgrwt>
<rscale>  0 0.77350945E+03</rscale>
<asrwt>0</asrwt>
<pdfrwt beam="1">  1        2 0.19308347E+00 0.85686031E+03</pdfrwt>
<pdfrwt beam="2">  1       -2 0.22917196E+00 0.85686031E+03</pdfrwt>
<totfact> 0.15430208E+00</totfact>
</mgrwt>
</event>
<event>
 4    2  0.6914693E-007  0.8496375E+03  0.7818608E-02  0.9612269E-01
          2   -1    0    0  501    0  0.00000000000E+00  0.00000000000E+00  0.45224895560E+03  0.45224895560E+03  0.25500000000E-02 0. -1.
         -2   -1    0    0    0  501 -0.00000000000E+00 -0.00000000000E+00 -0.15316446386E+04  0.15316446386E+04  0.25500000000E-02 0.  1.
    8880023    1    1    2    0    0 -0.38864629980E+03  0.37017249569E+03 -0.11408049472E+04  0.14224344473E+04  0.65864270000E+03 0.  0.
    8880022    1    1    2    0    0  0.38864629980E+03 -0.37017249569E+03  0.61409264232E+02  0.56145914692E+03  0.15294330000E+03 0.  0.
<mgrwt>
<rscale>  0 0.76489434E+03</rscale>
<asrwt>0</asrwt>
<pdfrwt beam="1">  1        2 0.69576763E-01 0.84963747E+03</pdfrwt>
<pdfrwt beam="2">  1       -2 0.23563763E+00 0.84963747E+03</pdfrwt>
<totfact> 0.55281641E+00</totfact>
</mgrwt>
</event>
<event>
 4    2  0.6914693E-007  0.9342818E+03  0.7818608E-02  0.9473099E-01
          2   -1    0    0  501    0  0.00000000000E+00  0.00000000000E+00  0.25920359647E+04  0.25920359647E+04  0.25500000000E-02 0. -1.
         -2   -1    0    0    0  501 -0.00000000000E+00 -0.00000000000E+00 -0.36044867207E+03  0.36044867208E+03  0.25500000000E-02 0.  1.
    8880023    1    1    2    0    0  0.52823818462E+03  0.40004576519E+03  0.43322534483E+03  0.10298381424E+04  0.65864270000E+03 0.  0.
    8880022    1    1    2    0    0 -0.52823818462E+03 -0.40004576519E+03  0.17983619478E+04  0.19226464944E+04  0.15294330000E+03 0.  0.
<mgrwt>
<rscale>  0 0.86296489E+03</rscale>
<asrwt>0</asrwt>
<pdfrwt beam="1">  1        2 0.39877477E+00 0.93428176E+03</pdfrwt>
<pdfrwt beam="2">  1       -2 0.55453640E-01 0.93428176E+03</pdfrwt>
<totfact> 0.96128555E+00</totfact>
</mgrwt>
</event>
<event>
 4    2  0.6914693E-007  0.1248003E+04  0.7818608E-02  0.9111816E-01
          2   -1    0    0  501    0  0.00000000000E+00  0.00000000000E+00  0.14176396474E+04  0.14176396474E+04  0.25500000000E-02 0. -1.
         -2   -1    0    0    0  501 -0.00000000000E+00 -0.00000000000E+00 -0.18287884949E+04  0.18287884949E+04  0.25500000000E-02 0.  1.
    8880023    1    1    2    0    0 -0.42543471644E+03 -0.97093046187E+03 -0.13382572168E+04  0.18298751991E+04  0.65864270000E+03 0.  1.
    8880022    1    1    2    0    0  0.42543471644E+03  0.97093046187E+03  0.92710836923E+03  0.14165529433E+04  0.15294330000E+03 0.  0.
<mgrwt>
<rscale>  0 0.12011893E+04</rscale>
<asrwt>0</asrwt>
<pdfrwt beam="1">  1        2 0.21809841E+00 0.12480028E+04</pdfrwt>
<pdfrwt beam="2">  1       -2 0.28135208E+00 0.12480028E+04</pdfrwt>
<totfact> 0.56561787E-01</totfact>
</mgrwt>
</event>
<event>
 4    2  0.6914693E-007  0.1195567E+04  0.7818608E-02  0.9161443E-01
         -2   -1    0    0    0  501 -0.00000000000E+00  0.00000000000E+00  0.10213949154E+04  0.10213949154E+04  0.25500000000E-02 0.  1.
          2   -1    0    0  501    0  0.00000000000E+00 -0.00000000000E+00 -0.16977511547E+04  0.16977511547E+04  0.25500000000E-02 0. -1.
    8880023    1    1    2    0    0  0.43859744125E+03 -0.89621582564E+03  0.38343398107E+03  0.12555486234E+04  0.65864270000E+03 0.  0.
    8880022    1    1    2    0    0 -0.43859744125E+03  0.89621582564E+03 -0.10597902204E+04  0.14635974467E+04  0.15294330000E+03 0.  0.
<mgrwt>
<rscale>  0 0.11460412E+04</rscale>
<asrwt>0</asrwt>
<pdfrwt beam="1">  1        2 0.26119249E+00 0.11955671E+04</pdfrwt>
<pdfrwt beam="2">  1       -2 0.15713768E+00 0.11955671E+04</pdfrwt>
<totfact> 0.25293211E+00</totfact>
</mgrwt>
</event>
<event>
 4    2  0.6914693E-007  0.7175134E+03  0.7818608E-02  0.9931091E-01
         -2   -1    0    0    0  501 -0.00000000000E+00  0.00000000000E+00  0.13559874470E+03  0.13559874472E+03  0.25500000000E-02 0.  1.
          2   -1    0    0  501    0  0.00000000000E+00 -0.00000000000E+00 -0.24711881317E+04  0.24711881317E+04  0.25500000000E-02 0. -1.
    8880023    1    1    2    0    0 -0.23225209433E+03  0.16454242736E+03 -0.98831953170E+03  0.12213111597E+04  0.65864270000E+03 0.  0.
    8880022    1    1    2    0    0  0.23225209433E+03 -0.16454242736E+03 -0.13472698554E+04  0.13854757168E+04  0.15294330000E+03 0.  0.
<mgrwt>
<rscale>  0 0.58777844E+03</rscale>
<asrwt>0</asrwt>
<pdfrwt beam="1">  1        2 0.38018275E+00 0.71751338E+03</pdfrwt>
<pdfrwt beam="2">  1       -2 0.20861347E-01 0.71751338E+03</pdfrwt>
<totfact> 0.74725700E+01</totfact>
</mgrwt>
</event>
<event>
 4    2  0.6914693E-007  0.9246218E+03  0.7818608E-02  0.9487608E-01
         -2   -1    0    0    0  501 -0.00000000000E+00  0.00000000000E+00  0.85701826435E+03  0.85701826435E+03  0.25500000000E-02 0.  1.
          2   -1    0    0  501    0  0.00000000000E+00 -0.00000000000E+00 -0.16508904878E+04  0.16508904878E+04  0.25500000000E-02 0. -1.
    8880023    1    1    2    0    0  0.64086536588E+03  0.10201428370E+03  0.50088572664E+03  0.10515759833E+04  0.65864270000E+03 0.  0.
    8880022    1    1    2    0    0 -0.64086536588E+03 -0.10201428370E+03 -0.12947579501E+04  0.14563327689E+04  0.15294330000E+03 0.  0.
<mgrwt>
<rscale>  0 0.85203598E+03</rscale>
<asrwt>0</asrwt>
<pdfrwt beam="1">  1        2 0.25398315E+00 0.92462183E+03</pdfrwt>
<pdfrwt beam="2">  1       -2 0.13184896E+00 0.92462183E+03</pdfrwt>
<totfact> 0.43925367E+00</totfact>
</mgrwt>
</event>
<event>
 4    2  0.6914693E-007  0.7026612E+03  0.7818608E-02  0.9986336E-01
         -2   -1    0    0    0  501 -0.00000000000E+00  0.00000000000E+00  0.11511847071E+04  0.11511847071E+04  0.25500000000E-02 0.  1.
          2   -1    0    0  501    0  0.00000000000E+00 -0.00000000000E+00 -0.39060742449E+03  0.39060742450E+03  0.25500000000E-02 0. -1.
    8880023    1    1    2    0    0 -0.21753246345E+03 -0.11225913402E+03  0.96093134746E+03  0.11904292279E+04  0.65864270000E+03 0.  1.
    8880022    1    1    2    0    0  0.21753246345E+03  0.11225913402E+03 -0.20035406482E+03  0.35136290375E+03  0.15294330000E+03 0. -1.
<mgrwt>
<rscale>  0 0.56253467E+03</rscale>
<asrwt>0</asrwt>
<pdfrwt beam="1">  1        2 0.60093450E-01 0.70266115E+03</pdfrwt>
<pdfrwt beam="2">  1       -2 0.17710534E+00 0.70266115E+03</pdfrwt>
<totfact> 0.15820338E+01</totfact>
</mgrwt>
</event>
<event>
 4    2  0.6914693E-007  0.6598086E+03  0.7818608E-02  0.1024353E+00
          2   -1    0    0  501    0  0.00000000000E+00  0.00000000000E+00  0.63026538302E+03  0.63026538303E+03  0.25500000000E-02 0. -1.
         -2   -1    0    0    0  501 -0.00000000000E+00 -0.00000000000E+00 -0.27499551349E+03  0.27499551350E+03  0.25500000000E-02 0.  1.
    8880023    1    1    2    0    0 -0.16724352843E+02  0.35460871080E+02  0.21469281565E+03  0.69385905536E+03  0.65864270000E+03 0.  1.
    8880022    1    1    2    0    0  0.16724352843E+02 -0.35460871080E+02  0.14057705389E+03  0.21140184117E+03  0.15294330000E+03 0. -1.
<mgrwt>
<rscale>  0 0.46147823E+03</rscale>
<asrwt>0</asrwt>
<pdfrwt beam="1">  1        2 0.96963904E-01 0.65980860E+03</pdfrwt>
<pdfrwt beam="2">  1       -2 0.42307003E-01 0.65980860E+03</pdfrwt>
<totfact> 0.25039570E+02</totfact>
</mgrwt>
</event>
<event>
 4    2  0.6914693E-007  0.7265314E+03  0.7818608E-02  0.9901075E-01
         -2   -1    0    0    0  501 -0.00000000000E+00  0.00000000000E+00  0.50661336967E+03  0.50661336967E+03  0.25500000000E-02 0.  1.
          2   -1    0    0  501    0  0.00000000000E+00 -0.00000000000E+00 -0.84594010515E+03  0.84594010515E+03  0.25500000000E-02 0. -1.
    8880023    1    1    2    0    0 -0.13031084475E+03 -0.27759103389E+03  0.16288661867E+03  0.74456695815E+03  0.65864270000E+03 0.  0.
    8880022    1    1    2    0    0  0.13031084475E+03  0.27759103389E+03 -0.50221335415E+03  0.60798651668E+03  0.15294330000E+03 0.  0.
<mgrwt>
<rscale>  0 0.60209204E+03</rscale>
<asrwt>0</asrwt>
<pdfrwt beam="1">  1        2 0.13014463E+00 0.72653142E+03</pdfrwt>
<pdfrwt beam="2">  1       -2 0.77940519E-01 0.72653142E+03</pdfrwt>
<totfact> 0.47575670E+01</totfact>
</mgrwt>
</event>
<event>
 4    2  0.6914693E-007  0.1247366E+04  0.7818608E-02  0.9112400E-01
          2   -1    0    0  501    0  0.00000000000E+00  0.00000000000E+00  0.39684731006E+04  0.39684731006E+04  0.25500000000E-02 0. -1.
         -2   -1    0    0    0  501 -0.00000000000E+00 -0.00000000000E+00 -0.63729396479E+03  0.63729396480E+03  0.25500000000E-02 0.  1.
    8880023    1    1    2    0    0 -0.11096129343E+03  0.10534697257E+04  0.15846418610E+03  0.12573909401E+04  0.65864270000E+03 0.  1.
    8880022    1    1    2    0    0  0.11096129343E+03 -0.10534697257E+04  0.31727149497E+04  0.33483761253E+04  0.15294330000E+03 0.  0.
<mgrwt>
<rscale>  0 0.12005212E+04</rscale>
<asrwt>0</asrwt>
<pdfrwt beam="1">  1        2 0.61053433E+00 0.12473657E+04</pdfrwt>
<pdfrwt beam="2">  1       -2 0.98045224E-01 0.12473657E+04</pdfrwt>
<totfact> 0.31557124E-01</totfact>
</mgrwt>
</event>
<event>
 4    2  0.6914693E-007  0.1362828E+04  0.7818608E-02  0.9013118E-01
          2   -1    0    0  501    0  0.00000000000E+00  0.00000000000E+00  0.33665058684E+04  0.33665058684E+04  0.25500000000E-02 0. -1.
         -2   -1    0    0    0  501 -0.00000000000E+00 -0.00000000000E+00 -0.56304485685E+03  0.56304485686E+03  0.25500000000E-02 0.  1.
    8880023    1    1    2    0    0 -0.95253597453E+03  0.71844641550E+03  0.76555186790E+03  0.15631282428E+04  0.65864270000E+03 0.  0.
    8880022    1    1    2    0    0  0.95253597453E+03 -0.71844641550E+03  0.20379091436E+04  0.23664224824E+04  0.15294330000E+03 0.  0.
<mgrwt>
<rscale>  0 0.13209456E+04</rscale>
<asrwt>0</asrwt>
<pdfrwt beam="1">  1        2 0.51792399E+00 0.13628280E+04</pdfrwt>
<pdfrwt beam="2">  1       -2 0.86622283E-01 0.13628280E+04</pdfrwt>
<totfact> 0.11347176E+00</totfact>
</mgrwt>
</event>
<event>
 4    2  0.6914693E-007  0.6619070E+03  0.7818608E-02  0.1022283E+00
          2   -1    0    0  501    0  0.00000000000E+00  0.00000000000E+00  0.16777443113E+04  0.16777443113E+04  0.25500000000E-02 0. -1.
         -2   -1    0    0    0  501 -0.00000000000E+00 -0.00000000000E+00 -0.37897217563E+03  0.37897217564E+03  0.25500000000E-02 0.  1.
    8880023    1    1    2    0    0  0.48630082596E+02  0.44110395101E+02 -0.81087248130E+02  0.66685527662E+03  0.65864270000E+03 0.  1.
    8880022    1    1    2    0    0 -0.48630082596E+02 -0.44110395101E+02  0.13798593838E+04  0.13898612103E+04  0.15294330000E+03 0.  0.
<mgrwt>
<rscale>  0 0.46871853E+03</rscale>
<asrwt>0</asrwt>
<pdfrwt beam="1">  1        2 0.25811451E+00 0.66190696E+03</pdfrwt>
<pdfrwt beam="2">  1       -2 0.58303412E-01 0.66190696E+03</pdfrwt>
<totfact> 0.28829246E+01</totfact>
</mgrwt>
</event>
<event>
 4    2  0.6914693E-007  0.7391548E+03  0.7818608E-02  0.9862416E-01
          2   -1    0    0  501    0  0.00000000000E+00  0.00000000000E+00  0.11646860919E+04  0.11646860919E+04  0.25500000000E-02 0. -1.
         -2   -1    0    0    0  501 -0.00000000000E+00 -0.00000000000E+00 -0.31145990739E+03  0.31145990740E+03  0.25500000000E-02 0.  1.
    8880023    1    1    2    0    0 -0.81782009899E+02 -0.32534803086E+03  0.27153048693E+03  0.78745072857E+03  0.65864270000E+03 0.  0.
    8880022    1    1    2    0    0  0.81782009899E+02  0.32534803086E+03  0.58169569756E+03  0.68869527072E+03  0.15294330000E+03 0.  0.
<mgrwt>
<rscale>  0 0.62117861E+03</rscale>
<asrwt>0</asrwt>
<pdfrwt beam="1">  1        2 0.17918248E+00 0.73915482E+03</pdfrwt>
<pdfrwt beam="2">  1       -2 0.47916908E-01 0.73915482E+03</pdfrwt>
<totfact> 0.83436920E+01</totfact>
</mgrwt>
</event>
<event>
 4    2  0.6914693E-007  0.9711720E+03  0.7818608E-02  0.9420285E-01
         -2   -1    0    0    0  501 -0.00000000000E+00  0.00000000000E+00  0.81281154897E+03  0.81281154898E+03  0.25500000000E-02 0.  1.
          2   -1    0    0  501    0  0.00000000000E+00 -0.00000000000E+00 -0.14854188030E+04  0.14854188030E+04  0.25500000000E-02 0. -1.
    8880023    1    1    2    0    0 -0.36460471722E+03  0.61353750500E+03  0.35823977726E+03  0.10351380653E+04  0.65864270000E+03 0.  0.
    8880022    1    1    2    0    0  0.36460471722E+03 -0.61353750500E+03 -0.10308470313E+04  0.12630922867E+04  0.15294330000E+03 0.  0.
<mgrwt>
<rscale>  0 0.90424937E+03</rscale>
<asrwt>0</asrwt>
<pdfrwt beam="1">  1        2 0.22852597E+00 0.97117201E+03</pdfrwt>
<pdfrwt beam="2">  1       -2 0.12504793E+00 0.97117201E+03</pdfrwt>
<totfact> 0.61771266E+00</totfact>
</mgrwt>
</event>
<event>
 4    2  0.6914693E-007  0.9962219E+03  0.7818608E-02  0.9386517E-01
         -2   -1    0    0    0  501 -0.00000000000E+00  0.00000000000E+00  0.13438791381E+04  0.13438791381E+04  0.25500000000E-02 0.  1.
          2   -1    0    0  501    0  0.00000000000E+00 -0.00000000000E+00 -0.99969264109E+03  0.99969264109E+03  0.25500000000E-02 0. -1.
    8880023    1    1    2    0    0  0.47372788766E+02 -0.74592468335E+03  0.94450452362E+03  0.13727879719E+04  0.65864270000E+03 0.  0.
    8880022    1    1    2    0    0 -0.47372788766E+02  0.74592468335E+03 -0.60031802664E+03  0.97078380728E+03  0.15294330000E+03 0.  0.
<mgrwt>
<rscale>  0 0.93193604E+03</rscale>
<asrwt>0</asrwt>
<pdfrwt beam="1">  1        2 0.15379887E+00 0.99622187E+03</pdfrwt>
<pdfrwt beam="2">  1       -2 0.20675064E+00 0.99622187E+03</pdfrwt>
<totfact> 0.30073359E+00</totfact>
</mgrwt>
</event>
<event>
 4    2  0.6914693E-007  0.8532264E+03  0.7818608E-02  0.9605728E-01
         -2   -1    0    0    0  501 -0.00000000000E+00  0.00000000000E+00  0.14342717720E+04  0.14342717720E+04  0.25500000000E-02 0.  1.
          2   -1    0    0  501    0  0.00000000000E+00 -0.00000000000E+00 -0.11801202363E+04  0.11801202363E+04  0.25500000000E-02 0. -1.
    8880023    1    1    2    0    0 -0.10477953529E+03  0.53217140029E+03  0.12243967365E+04  0.14923614592E+04  0.65864270000E+03 0.  1.
    8880022    1    1    2    0    0  0.10477953529E+03 -0.53217140029E+03 -0.97024520087E+03  0.11220305491E+04  0.15294330000E+03 0.  0.
<mgrwt>
<rscale>  0 0.76918238E+03</rscale>
<asrwt>0</asrwt>
<pdfrwt beam="1">  1        2 0.18155696E+00 0.85322644E+03</pdfrwt>
<pdfrwt beam="2">  1       -2 0.22065720E+00 0.85322644E+03</pdfrwt>
<totfact> 0.19319463E+00</totfact>
</mgrwt>
</event>
<event>
 4    2  0.6914693E-007  0.8115853E+03  0.7818608E-02  0.9686284E-01
          2   -1    0    0  501    0  0.00000000000E+00  0.00000000000E+00  0.39422032113E+04  0.39422032113E+04  0.25500000000E-02 0. -1.
         -2   -1    0    0    0  501 -0.00000000000E+00 -0.00000000000E+00 -0.26339022725E+03  0.26339022726E+03  0.25500000000E-02 0.  1.
    8880023    1    1    2    0    0 -0.45370202683E+03 -0.13789488903E+03  0.42935674760E+03  0.91816009092E+03  0.65864270000E+03 0.  0.
    8880022    1    1    2    0    0  0.45370202683E+03  0.13789488903E+03  0.32494562364E+04  0.32874333476E+04  0.15294330000E+03 0.  0.
<mgrwt>
<rscale>  0 0.71839330E+03</rscale>
<asrwt>0</asrwt>
<pdfrwt beam="1">  1        2 0.60649280E+00 0.81158532E+03</pdfrwt>
<pdfrwt beam="2">  1       -2 0.40521574E-01 0.81158532E+03</pdfrwt>
<totfact> 0.23946693E+00</totfact>
</mgrwt>
</event>
<event>
 4    2  0.6914693E-007  0.8578888E+03  0.7818608E-02  0.9597330E-01
         -2   -1    0    0    0  501 -0.00000000000E+00  0.00000000000E+00  0.62175679978E+03  0.62175679978E+03  0.25500000000E-02 0.  1.
          2   -1    0    0  501    0  0.00000000000E+00 -0.00000000000E+00 -0.26913707697E+04  0.26913707697E+04  0.25500000000E-02 0. -1.
    8880023    1    1    2    0    0 -0.42632992018E+03 -0.34699536611E+03  0.27437223986E+03  0.90069601820E+03  0.65864270000E+03 0.  0.
    8880022    1    1    2    0    0  0.42632992018E+03  0.34699536611E+03 -0.23439862097E+04  0.24124315512E+04  0.15294330000E+03 0.  0.
<mgrwt>
<rscale>  0 0.77473153E+03</rscale>
<asrwt>0</asrwt>
<pdfrwt beam="1">  1        2 0.41405704E+00 0.85788880E+03</pdfrwt>
<pdfrwt beam="2">  1       -2 0.95654893E-01 0.85788880E+03</pdfrwt>
<totfact> 0.25525641E+00</totfact>
</mgrwt>
</event>
<event>
 4    2  0.6914693E-007  0.7178318E+03  0.7818608E-02  0.9929992E-01
         -2   -1    0    0    0  501 -0.00000000000E+00  0.00000000000E+00  0.77965996857E+03  0.77965996857E+03  0.25500000000E-02 0.  1.
          2   -1    0    0  501    0  0.00000000000E+00 -0.00000000000E+00 -0.85578255788E+03  0.85578255788E+03  0.25500000000E-02 0. -1.
    8880023    1    1    2    0    0  0.12068712177E+03  0.25866360264E+03 -0.65525255167E+03  0.97192507604E+03  0.65864270000E+03 0.  0.
    8880022    1    1    2    0    0 -0.12068712177E+03 -0.25866360264E+03  0.57912996236E+03  0.66351745042E+03  0.15294330000E+03 0.  0.
<mgrwt>
<rscale>  0 0.58829513E+03</rscale>
<asrwt>0</asrwt>
<pdfrwt beam="1">  1        2 0.13165885E+00 0.71783177E+03</pdfrwt>
<pdfrwt beam="2">  1       -2 0.11994769E+00 0.71783177E+03</pdfrwt>
<totfact> 0.17027737E+01</totfact>
</mgrwt>
</event>
<event>
 4    2  0.6914693E-007  0.1052890E+04  0.7818608E-02  0.9315415E-01
         -2   -1    0    0    0  501 -0.00000000000E+00  0.00000000000E+00  0.20237672305E+04  0.20237672305E+04  0.25500000000E-02 0.  1.
          2   -1    0    0  501    0  0.00000000000E+00 -0.00000000000E+00 -0.82281031407E+03  0.82281031408E+03  0.25500000000E-02 0. -1.
    8880023    1    1    2    0    0  0.59393153568E+03 -0.56746166070E+03 -0.32919610604E+03  0.11031535197E+04  0.65864270000E+03 0. -1.
    8880022    1    1    2    0    0 -0.59393153568E+03  0.56746166070E+03  0.15301530224E+04  0.17434240249E+04  0.15294330000E+03 0.  0.
<mgrwt>
<rscale>  0 0.99376017E+03</rscale>
<asrwt>0</asrwt>
<pdfrwt beam="1">  1        2 0.12658620E+00 0.10528901E+04</pdfrwt>
<pdfrwt beam="2">  1       -2 0.31134880E+00 0.10528901E+04</pdfrwt>
<totfact> 0.89716767E-01</totfact>
</mgrwt>
</event>
<event>
 4    2  0.6914693E-007  0.9712173E+03  0.7818608E-02  0.9420223E-01
          2   -1    0    0  501    0  0.00000000000E+00  0.00000000000E+00  0.14458377119E+04  0.14458377119E+04  0.25500000000E-02 0. -1.
         -2   -1    0    0    0  501 -0.00000000000E+00 -0.00000000000E+00 -0.59316173431E+03  0.59316173432E+03  0.25500000000E-02 0.  1.
    8880023    1    1    2    0    0 -0.71328568857E+03 -0.26007413487E+02  0.77620981551E+02  0.97431415986E+03  0.65864270000E+03 0.  1.
    8880022    1    1    2    0    0  0.71328568857E+03  0.26007413487E+02  0.77505499601E+03  0.10646852863E+04  0.15294330000E+03 0.  0.
<mgrwt>
<rscale>  0 0.90429967E+03</rscale>
<asrwt>0</asrwt>
<pdfrwt beam="1">  1        2 0.22243657E+00 0.97121731E+03</pdfrwt>
<pdfrwt beam="2">  1       -2 0.91255653E-01 0.97121731E+03</pdfrwt>
<totfact> 0.13924527E+01</totfact>
</mgrwt>
</event>
<event>
 4    2  0.6914693E-007  0.7419046E+03  0.7818608E-02  0.9854433E-01
         -2   -1    0    0    0  501 -0.00000000000E+00  0.00000000000E+00  0.98481871004E+03  0.98481871004E+03  0.25500000000E-02 0.  1.
          2   -1    0    0  501    0  0.00000000000E+00 -0.00000000000E+00 -0.38719770336E+03  0.38719770337E+03  0.25500000000E-02 0. -1.
    8880023    1    1    2    0    0 -0.33800007631E+03 -0.48663881895E+02  0.65963166631E+03  0.99274184280E+03  0.65864270000E+03 0.  1.
    8880022    1    1    2    0    0  0.33800007631E+03  0.48663881895E+02 -0.62010659630E+02  0.37927457061E+03  0.15294330000E+03 0. -1.
<mgrwt>
<rscale>  0 0.62521380E+03</rscale>
<asrwt>0</asrwt>
<pdfrwt beam="1">  1        2 0.59568879E-01 0.74190460E+03</pdfrwt>
<pdfrwt beam="2">  1       -2 0.15151057E+00 0.74190460E+03</pdfrwt>
<totfact> 0.24391679E+01</totfact>
</mgrwt>
</event>
<event>
 4    2  0.6914693E-007  0.6927938E+03  0.7818608E-02  0.1002852E+00
         -2   -1    0    0    0  501 -0.00000000000E+00  0.00000000000E+00  0.35241411849E+03  0.35241411850E+03  0.25500000000E-02 0.  1.
          2   -1    0    0  501    0  0.00000000000E+00 -0.00000000000E+00 -0.77203244744E+03  0.77203244744E+03  0.25500000000E-02 0. -1.
    8880023    1    1    2    0    0 -0.19879454946E+03  0.81448301121E+02 -0.84378333315E+02  0.69791332416E+03  0.65864270000E+03 0.  1.
    8880022    1    1    2    0    0  0.19879454946E+03 -0.81448301121E+02 -0.33523999564E+03  0.42653324177E+03  0.15294330000E+03 0.  0.
<mgrwt>
<rscale>  0 0.54417183E+03</rscale>
<asrwt>0</asrwt>
<pdfrwt beam="1">  1        2 0.11877422E+00 0.69279384E+03</pdfrwt>
<pdfrwt beam="2">  1       -2 0.54217557E-01 0.69279384E+03</pdfrwt>
<totfact> 0.11743579E+02</totfact>
</mgrwt>
</event>
<event>
 4    2  0.6914693E-007  0.7173020E+03  0.7818608E-02  0.9931823E-01
         -2   -1    0    0    0  501 -0.00000000000E+00  0.00000000000E+00  0.10070894246E+04  0.10070894246E+04  0.25500000000E-02 0.  1.
          2   -1    0    0  501    0  0.00000000000E+00 -0.00000000000E+00 -0.15256707708E+04  0.15256707708E+04  0.25500000000E-02 0. -1.
    8880023    1    1    2    0    0 -0.54768700859E+02 -0.27876926068E+03  0.85830515201E+03  0.11185749199E+04  0.65864270000E+03 0.  1.
    8880022    1    1    2    0    0  0.54768700859E+02  0.27876926068E+03 -0.13768864982E+04  0.14141852754E+04  0.15294330000E+03 0.  0.
<mgrwt>
<rscale>  0 0.58743486E+03</rscale>
<asrwt>0</asrwt>
<pdfrwt beam="1">  1        2 0.23471858E+00 0.71730197E+03</pdfrwt>
<pdfrwt beam="2">  1       -2 0.15493683E+00 0.71730197E+03</pdfrwt>
<totfact> 0.34853457E+00</totfact>
</mgrwt>
</event>
<event>
 4    2  0.6914693E-007  0.8829358E+03  0.7818608E-02  0.9554000E-01
         -2   -1    0    0    0  501 -0.00000000000E+00  0.00000000000E+00  0.14826379053E+04  0.14826379053E+04  0.25500000000E-02 0.  1.
          2   -1    0    0  501    0  0.00000000000E+00 -0.00000000000E+00 -0.79548714457E+03  0.79548714457E+03  0.25500000000E-02 0. -1.
    8880023    1    1    2    0    0  0.57760930375E+03  0.11014950923E+03  0.11953106917E+04  0.14860495544E+04  0.65864270000E+03 0.  1.
    8880022    1    1    2    0    0 -0.57760930375E+03 -0.11014950923E+03 -0.50815993094E+03  0.79207549551E+03  0.15294330000E+03 0.  0.
<mgrwt>
<rscale>  0 0.80417070E+03</rscale>
<asrwt>0</asrwt>
<pdfrwt beam="1">  1        2 0.12238264E+00 0.88293580E+03</pdfrwt>
<pdfrwt beam="2">  1       -2 0.22809814E+00 0.88293580E+03</pdfrwt>
<totfact> 0.30764589E+00</totfact>
</mgrwt>
</event>
<event>
 4    2  0.6914693E-007  0.8378440E+03  0.7818608E-02  0.9634259E-01
         -2   -1    0    0    0  501 -0.00000000000E+00  0.00000000000E+00  0.20572884020E+04  0.20572884020E+04  0.25500000000E-02 0.  1.
          2   -1    0    0  501    0  0.00000000000E+00 -0.00000000000E+00 -0.60603363337E+03  0.60603363338E+03  0.25500000000E-02 0. -1.
    8880023    1    1    2    0    0  0.46315949514E+03 -0.23163683557E+03  0.18239784524E+04  0.20072070004E+04  0.65864270000E+03 0.  1.
    8880022    1    1    2    0    0 -0.46315949514E+03  0.23163683557E+03 -0.37272368381E+03  0.65611503490E+03  0.15294330000E+03 0.  0.
<mgrwt>
<rscale>  0 0.75069600E+03</rscale>
<asrwt>0</asrwt>
<pdfrwt beam="1">  1        2 0.93235942E-01 0.83784399E+03</pdfrwt>
<pdfrwt beam="2">  1       -2 0.31650591E+00 0.83784399E+03</pdfrwt>
<totfact> 0.12720209E+00</totfact>
</mgrwt>
</event>
<event>
 4    2  0.6914693E-007  0.9600543E+03  0.7818608E-02  0.9435793E-01
         -2   -1    0    0    0  501 -0.00000000000E+00  0.00000000000E+00  0.53310798812E+03  0.53310798813E+03  0.25500000000E-02 0.  1.
          2   -1    0    0  501    0  0.00000000000E+00 -0.00000000000E+00 -0.21994388262E+04  0.21994388262E+04  0.25500000000E-02 0. -1.
    8880023    1    1    2    0    0  0.69215408549E+03  0.93897921109E+02 -0.45652139666E+02  0.96113912716E+03  0.65864270000E+03 0.  0.
    8880022    1    1    2    0    0 -0.69215408549E+03 -0.93897921109E+02 -0.16206786984E+04  0.17714076872E+04  0.15294330000E+03 0.  0.
<mgrwt>
<rscale>  0 0.89187670E+03</rscale>
<asrwt>0</asrwt>
<pdfrwt beam="1">  1        2 0.33837520E+00 0.96005432E+03</pdfrwt>
<pdfrwt beam="2">  1       -2 0.82016614E-01 0.96005432E+03</pdfrwt>
<totfact> 0.68194744E+00</totfact>
</mgrwt>
</event>
<event>
 4    2  0.6914693E-007  0.1188743E+04  0.7818608E-02  0.9168143E-01
         -2   -1    0    0    0  501 -0.00000000000E+00  0.00000000000E+00  0.11903325273E+04  0.11903325273E+04  0.25500000000E-02 0.  1.
          2   -1    0    0  501    0  0.00000000000E+00 -0.00000000000E+00 -0.12392233924E+04  0.12392233924E+04  0.25500000000E-02 0. -1.
    8880023    1    1    2    0    0  0.67105306892E+03 -0.72731594781E+03 -0.55001069559E+03  0.13098178044E+04  0.65864270000E+03 0. -1.
    8880022    1    1    2    0    0 -0.67105306892E+03  0.72731594781E+03  0.50111983045E+03  0.11197381152E+04  0.15294330000E+03 0.  0.
<mgrwt>
<rscale>  0 0.11388383E+04</rscale>
<asrwt>0</asrwt>
<pdfrwt beam="1">  1        2 0.19064975E+00 0.11887434E+04</pdfrwt>
<pdfrwt beam="2">  1       -2 0.18312808E+00 0.11887434E+04</pdfrwt>
<totfact> 0.30110302E+00</totfact>
</mgrwt>
</event>
<event>
 4    2  0.6914693E-007  0.7523377E+03  0.7818608E-02  0.9825364E-01
         -2   -1    0    0    0  501 -0.00000000000E+00  0.00000000000E+00  0.19928773035E+03  0.19928773036E+03  0.25500000000E-02 0.  1.
          2   -1    0    0  501    0  0.00000000000E+00 -0.00000000000E+00 -0.20019146201E+04  0.20019146201E+04  0.25500000000E-02 0. -1.
    8880023    1    1    2    0    0  0.34294281394E+03  0.12079741082E+03 -0.69043568412E+03  0.10211334038E+04  0.65864270000E+03 0.  1.
    8880022    1    1    2    0    0 -0.34294281394E+03 -0.12079741082E+03 -0.11121912056E+04  0.11800689467E+04  0.15294330000E+03 0.  0.
<mgrwt>
<rscale>  0 0.64018947E+03</rscale>
<asrwt>0</asrwt>
<pdfrwt beam="1">  1        2 0.30798685E+00 0.75233769E+03</pdfrwt>
<pdfrwt beam="2">  1       -2 0.30659652E-01 0.75233769E+03</pdfrwt>
<totfact> 0.67438697E+01</totfact>
</mgrwt>
</event>
<event>
 4    2  0.6914693E-007  0.7172469E+03  0.7818608E-02  0.9932014E-01
         -2   -1    0    0    0  501 -0.00000000000E+00  0.00000000000E+00  0.18272277454E+04  0.18272277454E+04  0.25500000000E-02 0.  1.
          2   -1    0    0  501    0  0.00000000000E+00 -0.00000000000E+00 -0.37333465771E+03  0.37333465772E+03  0.25500000000E-02 0. -1.
    8880023    1    1    2    0    0 -0.27075867441E+03 -0.85572173903E+02  0.16664793076E+04  0.18142757083E+04  0.65864270000E+03 0.  0.
    8880022    1    1    2    0    0  0.27075867441E+03  0.85572173903E+02 -0.21258621990E+03  0.38628669486E+03  0.15294330000E+03 0.  0.
<mgrwt>
<rscale>  0 0.58734524E+03</rscale>
<asrwt>0</asrwt>
<pdfrwt beam="1">  1        2 0.57436101E-01 0.71724686E+03</pdfrwt>
<pdfrwt beam="2">  1       -2 0.28111196E+00 0.71724686E+03</pdfrwt>
<totfact> 0.37070174E+00</totfact>
</mgrwt>
</event>
<event>
 4    2  0.6914693E-007  0.6713856E+03  0.7818608E-02  0.1014688E+00
          2   -1    0    0  501    0  0.00000000000E+00  0.00000000000E+00  0.18101718112E+04  0.18101718112E+04  0.25500000000E-02 0. -1.
         -2   -1    0    0    0  501 -0.00000000000E+00 -0.00000000000E+00 -0.44476798901E+03  0.44476798902E+03  0.25500000000E-02 0.  1.
    8880023    1    1    2    0    0  0.12617198328E+03 -0.32079623949E+02 -0.18115296890E+03  0.69539562556E+03  0.65864270000E+03 0.  1.
    8880022    1    1    2    0    0 -0.12617198328E+03  0.32079623949E+02  0.15465567911E+04  0.15595441746E+04  0.15294330000E+03 0.  0.
<mgrwt>
<rscale>  0 0.49653080E+03</rscale>
<asrwt>0</asrwt>
<pdfrwt beam="1">  1        2 0.27848797E+00 0.67138564E+03</pdfrwt>
<pdfrwt beam="2">  1       -2 0.68425845E-01 0.67138564E+03</pdfrwt>
<totfact> 0.17336737E+01</totfact>
</mgrwt>
</event>
<event>
 4    2  0.6914693E-007  0.8193697E+03  0.7818608E-02  0.9670381E-01
          2   -1    0    0  501    0  0.00000000000E+00  0.00000000000E+00  0.54094304813E+03  0.54094304813E+03  0.25500000000E-02 0. -1.
         -2   -1    0    0    0  501 -0.00000000000E+00 -0.00000000000E+00 -0.87968521887E+03  0.87968521887E+03  0.25500000000E-02 0.  1.
    8880023    1    1    2    0    0 -0.38870505512E+03  0.29404909788E+03 -0.22194527178E+02  0.81967023561E+03  0.65864270000E+03 0. -1.
    8880022    1    1    2    0    0  0.38870505512E+03 -0.29404909788E+03 -0.31654764356E+03  0.60095803140E+03  0.15294330000E+03 0.  0.
<mgrwt>
<rscale>  0 0.72808017E+03</rscale>
<asrwt>0</asrwt>
<pdfrwt beam="1">  1        2 0.83222008E-01 0.81936970E+03</pdfrwt>
<pdfrwt beam="2">  1       -2 0.13533619E+00 0.81936970E+03</pdfrwt>
<totfact> 0.22171227E+01</totfact>
</mgrwt>
</event>
<event>
 4    2  0.6914693E-007  0.9745687E+03  0.7818608E-02  0.9415613E-01
          2   -1    0    0  501    0  0.00000000000E+00  0.00000000000E+00  0.19046259935E+04  0.19046259935E+04  0.25500000000E-02 0. -1.
         -2   -1    0    0    0  501 -0.00000000000E+00 -0.00000000000E+00 -0.49184474888E+03  0.49184474888E+03  0.25500000000E-02 0.  1.
    8880023    1    1    2    0    0 -0.14611904185E+03  0.70329453654E+03  0.22536111133E+03  0.10002858673E+04  0.65864270000E+03 0.  0.
    8880022    1    1    2    0    0  0.14611904185E+03 -0.70329453654E+03  0.11874201333E+04  0.13961848751E+04  0.15294330000E+03 0.  0.
<mgrwt>
<rscale>  0 0.90801863E+03</rscale>
<asrwt>0</asrwt>
<pdfrwt beam="1">  1        2 0.29301938E+00 0.97456872E+03</pdfrwt>
<pdfrwt beam="2">  1       -2 0.75668423E-01 0.97456872E+03</pdfrwt>
<totfact> 0.11866837E+01</totfact>
</mgrwt>
</event>
<event>
 4    2  0.6914693E-007  0.1204737E+04  0.7818608E-02  0.9152531E-01
          2   -1    0    0  501    0  0.00000000000E+00  0.00000000000E+00  0.15306339752E+04  0.15306339752E+04  0.25500000000E-02 0. -1.
         -2   -1    0    0    0  501 -0.00000000000E+00 -0.00000000000E+00 -0.14026686811E+04  0.14026686811E+04  0.25500000000E-02 0.  1.
    8880023    1    1    2    0    0  0.80052576011E+03  0.61379176964E+03 -0.88554557417E+03  0.14951866102E+04  0.65864270000E+03 0.  1.
    8880022    1    1    2    0    0 -0.80052576011E+03 -0.61379176964E+03  0.10135108683E+04  0.14381160461E+04  0.15294330000E+03 0.  0.
<mgrwt>
<rscale>  0 0.11557110E+04</rscale>
<asrwt>0</asrwt>
<pdfrwt beam="1">  1        2 0.23548215E+00 0.12047373E+04</pdfrwt>
<pdfrwt beam="2">  1       -2 0.21579518E+00 0.12047373E+04</pdfrwt>
<totfact> 0.12433761E+00</totfact>
</mgrwt>
</event>
<event>
 4    2  0.6914693E-007  0.1027666E+04  0.7818608E-02  0.9346224E-01
         -2   -1    0    0    0  501 -0.00000000000E+00  0.00000000000E+00  0.22084089593E+04  0.22084089593E+04  0.25500000000E-02 0.  1.
          2   -1    0    0  501    0  0.00000000000E+00 -0.00000000000E+00 -0.44513485915E+03  0.44513485916E+03  0.25500000000E-02 0. -1.
    8880023    1    1    2    0    0  0.68786336348E+03  0.38617607382E+03  0.46787222397E+03  0.11291601264E+04  0.65864270000E+03 0.  0.
    8880022    1    1    2    0    0 -0.68786336348E+03 -0.38617607382E+03  0.12954018762E+04  0.15243836921E+04  0.15294330000E+03 0.  0.
<mgrwt>
<rscale>  0 0.96636512E+03</rscale>
<asrwt>0</asrwt>
<pdfrwt beam="1">  1        2 0.68482285E-01 0.10276664E+04</pdfrwt>
<pdfrwt beam="2">  1       -2 0.33975523E+00 0.10276664E+04</pdfrwt>
<totfact> 0.12838223E+00</totfact>
</mgrwt>
</event>
<event>
 4    2  0.6914693E-007  0.1251211E+04  0.7818608E-02  0.9108881E-01
          2   -1    0    0  501    0  0.00000000000E+00  0.00000000000E+00  0.19749310135E+04  0.19749310135E+04  0.25500000000E-02 0. -1.
         -2   -1    0    0    0  501 -0.00000000000E+00 -0.00000000000E+00 -0.11070399596E+04  0.11070399596E+04  0.25500000000E-02 0.  1.
    8880023    1    1    2    0    0 -0.10365864083E+04  0.23918044506E+03 -0.49562731315E+03  0.13457991332E+04  0.65864270000E+03 0.  0.
    8880022    1    1    2    0    0  0.10365864083E+04 -0.23918044506E+03  0.13635183670E+04  0.17361718398E+04  0.15294330000E+03 0.  0.
<mgrwt>
<rscale>  0 0.12045528E+04</rscale>
<asrwt>0</asrwt>
<pdfrwt beam="1">  1        2 0.30383554E+00 0.12512110E+04</pdfrwt>
<pdfrwt beam="2">  1       -2 0.17031384E+00 0.12512110E+04</pdfrwt>
<totfact> 0.14135057E+00</totfact>
</mgrwt>
</event>
<event>
 4    2  0.6914693E-007  0.7686518E+03  0.7818608E-02  0.9783203E-01
          2   -1    0    0  501    0  0.00000000000E+00  0.00000000000E+00  0.29900534639E+04  0.29900534639E+04  0.25500000000E-02 0. -1.
         -2   -1    0    0    0  501 -0.00000000000E+00 -0.00000000000E+00 -0.15366048884E+03  0.15366048886E+03  0.25500000000E-02 0.  1.
    8880023    1    1    2    0    0 -0.25898634317E+03  0.29990233212E+03  0.10136020625E+04  0.12720906737E+04  0.65864270000E+03 0.  1.
    8880022    1    1    2    0    0  0.25898634317E+03 -0.29990233212E+03  0.18227909126E+04  0.18716232791E+04  0.15294330000E+03 0.  0.
<mgrwt>
<rscale>  0 0.66271819E+03</rscale>
<asrwt>0</asrwt>
<pdfrwt beam="1">  1        2 0.46000823E+00 0.76865177E+03</pdfrwt>
<pdfrwt beam="2">  1       -2 0.23640075E-01 0.76865177E+03</pdfrwt>
<totfact> 0.29521119E+01</totfact>
</mgrwt>
</event>
<event>
 4    2  0.6914693E-007  0.9710331E+03  0.7818608E-02  0.9420477E-01
         -2   -1    0    0    0  501 -0.00000000000E+00  0.00000000000E+00  0.11044693174E+04  0.11044693174E+04  0.25500000000E-02 0.  1.
          2   -1    0    0  501    0  0.00000000000E+00 -0.00000000000E+00 -0.87959793212E+03  0.87959793212E+03  0.25500000000E-02 0. -1.
    8880023    1    1    2    0    0 -0.26735267320E+03 -0.66152674868E+03  0.62211877885E+03  0.11532289765E+04  0.65864270000E+03 0.  0.
    8880022    1    1    2    0    0  0.26735267320E+03  0.66152674868E+03 -0.39724739359E+03  0.83083827296E+03  0.15294330000E+03 0.  0.
<mgrwt>
<rscale>  0 0.90409513E+03</rscale>
<asrwt>0</asrwt>
<pdfrwt beam="1">  1        2 0.13532276E+00 0.97103311E+03</pdfrwt>
<pdfrwt beam="2">  1       -2 0.16991836E+00 0.97103311E+03</pdfrwt>
<totfact> 0.64242037E+00</totfact>
</mgrwt>
</event>
<event>
 4    2  0.6914693E-007  0.9619984E+03  0.7818608E-02  0.9433057E-01
          2   -1    0    0  501    0  0.00000000000E+00  0.00000000000E+00  0.90858753598E+03  0.90858753598E+03  0.25500000000E-02 0. -1.
         -2   -1    0    0    0  501 -0.00000000000E+00 -0.00000000000E+00 -0.96667230931E+03  0.96667230931E+03  0.25500000000E-02 0.  1.
    8880023    1    1    2    0    0  0.79947341962E+02  0.69659113940E+03 -0.44501772111E+03  0.10599442303E+04  0.65864270000E+03 0.  0.
    8880022    1    1    2    0    0 -0.79947341962E+02 -0.69659113940E+03  0.38693294778E+03  0.81531561500E+03  0.15294330000E+03 0.  0.
<mgrwt>
<rscale>  0 0.89404431E+03</rscale>
<asrwt>0</asrwt>
<pdfrwt beam="1">  1        2 0.13978270E+00 0.96199844E+03</pdfrwt>
<pdfrwt beam="2">  1       -2 0.14871882E+00 0.96199844E+03</pdfrwt>
<totfact> 0.88232270E+00</totfact>
</mgrwt>
</event>
<event>
 4    2  0.6914693E-007  0.7859684E+03  0.7818608E-02  0.9741999E-01
          2   -1    0    0  501    0  0.00000000000E+00  0.00000000000E+00  0.31801548231E+04  0.31801548231E+04  0.25500000000E-02 0. -1.
         -2   -1    0    0    0  501 -0.00000000000E+00 -0.00000000000E+00 -0.15807465430E+03  0.15807465432E+03  0.25500000000E-02 0.  1.
    8880023    1    1    2    0    0  0.10712394889E+02  0.42874393393E+03  0.26041496253E+04  0.27201730816E+04  0.65864270000E+03 0. -1.
    8880022    1    1    2    0    0 -0.10712394889E+02 -0.42874393393E+03  0.41793054347E+03  0.61805639586E+03  0.15294330000E+03 0.  0.
<mgrwt>
<rscale>  0 0.68570292E+03</rscale>
<asrwt>0</asrwt>
<pdfrwt beam="1">  1        2 0.48925452E+00 0.78596840E+03</pdfrwt>
<pdfrwt beam="2">  1       -2 0.24319181E-01 0.78596840E+03</pdfrwt>
<totfact> 0.21307547E+01</totfact>
</mgrwt>
</event>
<event>
 4    2  0.7504906E-007  0.8030420E+03  0.7818608E-02  0.9704257E-01
          2   -1    0    0  501    0  0.00000000000E+00  0.00000000000E+00  0.93949016390E+03  0.93949016390E+03  0.25500000000E-02 0. -1.
         -2   -1    0    0    0  501 -0.00000000000E+00 -0.00000000000E+00 -0.29197696297E+04  0.29197696297E+04  0.25500000000E-02 0.  1.
    8880023    1    1    2    0    0  0.33459770334E+03 -0.31481844358E+03 -0.27968868012E+04  0.29098887024E+04  0.65864270000E+03 0.  1.
    8880022    1    1    2    0    0 -0.33459770334E+03  0.31481844358E+03  0.81660733541E+03  0.94937109117E+03  0.15294330000E+03 0.  0.
<mgrwt>
<rscale>  0 0.70763909E+03</rscale>
<asrwt>0</asrwt>
<pdfrwt beam="1">  1        2 0.14453695E+00 0.80304202E+03</pdfrwt>
<pdfrwt beam="2">  1       -2 0.44919532E+00 0.80304202E+03</pdfrwt>
<totfact> 0.10255972E-01</totfact>
</mgrwt>
</event>
<event>
 4    2  0.8625642E-007  0.7620969E+03  0.7818608E-02  0.9799709E-01
          2   -1    0    0  501    0  0.00000000000E+00  0.00000000000E+00  0.25643712910E+04  0.25643712910E+04  0.25500000000E-02 0. -1.
         -2   -1    0    0    0  501 -0.00000000000E+00 -0.00000000000E+00 -0.75440534061E+03  0.75440534061E+03  0.25500000000E-02 0.  1.
    8880023    1    1    2    0    0 -0.43612901326E+02  0.38089289921E+03 -0.53924289919E+03  0.93358159602E+03  0.65864270000E+03 0.  1.
    8880022    1    1    2    0    0  0.43612901326E+02 -0.38089289921E+03  0.23492088496E+04  0.23851950356E+04  0.15294330000E+03 0.  0.
<mgrwt>
<rscale>  0 0.65378174E+03</rscale>
<asrwt>0</asrwt>
<pdfrwt beam="1">  1        2 0.39451866E+00 0.76209690E+03</pdfrwt>
<pdfrwt beam="2">  1       -2 0.11606236E+00 0.76209690E+03</pdfrwt>
<totfact> 0.19335619E+00</totfact>
</mgrwt>
</event>
<event>
 4    2  0.6914693E-007  0.6588093E+03  0.7818608E-02  0.1025411E+00
          2   -1    0    0  501    0  0.00000000000E+00  0.00000000000E+00  0.18536124757E+04  0.18536124757E+04  0.25500000000E-02 0. -1.
         -2   -1    0    0    0  501 -0.00000000000E+00 -0.00000000000E+00 -0.21149517742E+03  0.21149517744E+03  0.25500000000E-02 0.  1.
    8880023    1    1    2    0    0  0.74979006107E+01 -0.12778938173E+02  0.31699438944E+03  0.73110544313E+03  0.65864270000E+03 0.  1.
    8880022    1    1    2    0    0 -0.74979006107E+01  0.12778938173E+02  0.13251229088E+04  0.13340022100E+04  0.15294330000E+03 0.  0.
<mgrwt>
<rscale>  0 0.45783554E+03</rscale>
<asrwt>0</asrwt>
<pdfrwt beam="1">  1        2 0.28517115E+00 0.65880932E+03</pdfrwt>
<pdfrwt beam="2">  1       -2 0.32537719E-01 0.65880932E+03</pdfrwt>
<totfact> 0.73468648E+01</totfact>
</mgrwt>
</event>
<event>
 4    2  0.6914693E-007  0.8756426E+03  0.7818608E-02  0.9566322E-01
          2   -1    0    0  501    0  0.00000000000E+00  0.00000000000E+00  0.14550576113E+04  0.14550576113E+04  0.25500000000E-02 0. -1.
         -2   -1    0    0    0  501 -0.00000000000E+00 -0.00000000000E+00 -0.51203052480E+03  0.51203052480E+03  0.25500000000E-02 0.  1.
    8880023    1    1    2    0    0 -0.57244603656E+03  0.72424577930E+02  0.29895972143E+02  0.87615281754E+03  0.65864270000E+03 0.  1.
    8880022    1    1    2    0    0  0.57244603656E+03 -0.72424577930E+02  0.91313111432E+03  0.10909353185E+04  0.15294330000E+03 0. -1.
<mgrwt>
<rscale>  0 0.79565892E+03</rscale>
<asrwt>0</asrwt>
<pdfrwt beam="1">  1        2 0.22385502E+00 0.87564262E+03</pdfrwt>
<pdfrwt beam="2">  1       -2 0.78773928E-01 0.87564262E+03</pdfrwt>
<totfact> 0.19435656E+01</totfact>
</mgrwt>
</event>
<event>
 4    2  0.6914693E-007  0.6987705E+03  0.7818608E-02  0.1000234E+00
         -2   -1    0    0    0  501 -0.00000000000E+00  0.00000000000E+00  0.39945185392E+03  0.39945185392E+03  0.25500000000E-02 0.  1.
          2   -1    0    0  501    0  0.00000000000E+00 -0.00000000000E+00 -0.84627309700E+03  0.84627309700E+03  0.25500000000E-02 0. -1.
    8880023    1    1    2    0    0 -0.21952502503E+03  0.79239024606E+02  0.23155349551E+02  0.69915408610E+03  0.65864270000E+03 0.  1.
    8880022    1    1    2    0    0  0.21952502503E+03 -0.79239024606E+02 -0.46997659263E+03  0.54657086482E+03  0.15294330000E+03 0.  0.
<mgrwt>
<rscale>  0 0.55547745E+03</rscale>
<asrwt>0</asrwt>
<pdfrwt beam="1">  1        2 0.13019586E+00 0.69877054E+03</pdfrwt>
<pdfrwt beam="2">  1       -2 0.61454131E-01 0.69877054E+03</pdfrwt>
<totfact> 0.79940998E+01</totfact>
</mgrwt>
</event>
<event>
 4    2  0.6914693E-007  0.1352037E+04  0.7818608E-02  0.9021877E-01
          2   -1    0    0  501    0  0.00000000000E+00  0.00000000000E+00  0.19970067162E+04  0.19970067162E+04  0.25500000000E-02 0. -1.
         -2   -1    0    0    0  501 -0.00000000000E+00 -0.00000000000E+00 -0.95522172187E+03  0.95522172188E+03  0.25500000000E-02 0.  1.
    8880023    1    1    2    0    0  0.11621927235E+04  0.20857283210E+03  0.11247573748E+04  0.17587165522E+04  0.65864270000E+03 0.  0.
    8880022    1    1    2    0    0 -0.11621927235E+04 -0.20857283210E+03 -0.82972380438E+02  0.11935118858E+04  0.15294330000E+03 0.  0.
<mgrwt>
<rscale>  0 0.13097403E+04</rscale>
<asrwt>0</asrwt>
<pdfrwt beam="1">  1        2 0.30723180E+00 0.13520373E+04</pdfrwt>
<pdfrwt beam="2">  1       -2 0.14695719E+00 0.13520373E+04</pdfrwt>
<totfact> 0.20327975E+00</totfact>
</mgrwt>
</event>
<event>
 4    2  0.6914693E-007  0.8390608E+03  0.7818608E-02  0.9631954E-01
          2   -1    0    0  501    0  0.00000000000E+00  0.00000000000E+00  0.20266087373E+04  0.20266087373E+04  0.25500000000E-02 0. -1.
         -2   -1    0    0    0  501 -0.00000000000E+00 -0.00000000000E+00 -0.48421206784E+03  0.48421206785E+03  0.25500000000E-02 0.  1.
    8880023    1    1    2    0    0  0.43619650618E+03 -0.28274610743E+03 -0.38195850935E+02  0.83992968906E+03  0.65864270000E+03 0.  0.
    8880022    1    1    2    0    0 -0.43619650618E+03  0.28274610743E+03  0.15805925204E+04  0.16708911161E+04  0.15294330000E+03 0.  0.
<mgrwt>
<rscale>  0 0.75216891E+03</rscale>
<asrwt>0</asrwt>
<pdfrwt beam="1">  1        2 0.31178596E+00 0.83906076E+03</pdfrwt>
<pdfrwt beam="2">  1       -2 0.74494164E-01 0.83906076E+03</pdfrwt>
<totfact> 0.10706230E+01</totfact>
</mgrwt>
</event>
<event>
 4    2  0.6914693E-007  0.1133051E+04  0.7818608E-02  0.9225121E-01
         -2   -1    0    0    0  501 -0.00000000000E+00  0.00000000000E+00  0.49346427059E+03  0.49346427060E+03  0.25500000000E-02 0.  1.
          2   -1    0    0  501    0  0.00000000000E+00 -0.00000000000E+00 -0.35802704020E+04  0.35802704020E+04  0.25500000000E-02 0. -1.
    8880023    1    1    2    0    0 -0.26648277591E+03  0.88259864486E+03 -0.35634001775E+03  0.11877633823E+04  0.65864270000E+03 0.  1.
    8880022    1    1    2    0    0  0.26648277591E+03 -0.88259864486E+03 -0.27304661137E+04  0.28859712903E+04  0.15294330000E+03 0.  0.
<mgrwt>
<rscale>  0 0.10797860E+04</rscale>
<asrwt>0</asrwt>
<pdfrwt beam="1">  1        2 0.55081082E+00 0.11330506E+04</pdfrwt>
<pdfrwt beam="2">  1       -2 0.75917582E-01 0.11330506E+04</pdfrwt>
<totfact> 0.11262972E+00</totfact>
</mgrwt>
</event>
<event>
 4    2  0.6914693E-007  0.7723733E+03  0.7818608E-02  0.9774067E-01
         -2   -1    0    0    0  501 -0.00000000000E+00  0.00000000000E+00  0.69219368246E+03  0.69219368246E+03  0.25500000000E-02 0.  1.
          2   -1    0    0  501    0  0.00000000000E+00 -0.00000000000E+00 -0.13620042626E+04  0.13620042626E+04  0.25500000000E-02 0. -1.
    8880023    1    1    2    0    0 -0.12947975936E+03  0.38208029072E+03  0.42206713288E+03  0.88017113538E+03  0.65864270000E+03 0.  1.
    8880022    1    1    2    0    0  0.12947975936E+03 -0.38208029072E+03 -0.10918777130E+04  0.11740268097E+04  0.15294330000E+03 0.  0.
<mgrwt>
<rscale>  0 0.66773017E+03</rscale>
<asrwt>0</asrwt>
<pdfrwt beam="1">  1        2 0.20953912E+00 0.77237333E+03</pdfrwt>
<pdfrwt beam="2">  1       -2 0.10649134E+00 0.77237333E+03</pdfrwt>
<totfact> 0.11021157E+01</totfact>
</mgrwt>
</event>
<event>
 4    2  0.1449688E-006  0.1027889E+04  0.7818608E-02  0.9345947E-01
         -2   -1    0    0    0  501 -0.00000000000E+00  0.00000000000E+00  0.10273563274E+04  0.10273563274E+04  0.25500000000E-02 0.  1.
          2   -1    0    0  501    0  0.00000000000E+00 -0.00000000000E+00 -0.46884906278E+04  0.46884906278E+04  0.25500000000E-02 0. -1.
    8880023    1    1    2    0    0 -0.33461510362E+03 -0.71468760750E+03  0.72424120333E+03  0.12574105021E+04  0.65864270000E+03 0.  0.
    8880022    1    1    2    0    0  0.33461510362E+03  0.71468760750E+03 -0.43853755037E+04  0.44584364530E+04  0.15294330000E+03 0.  0.
<mgrwt>
<rscale>  0 0.96660775E+03</rscale>
<asrwt>0</asrwt>
<pdfrwt beam="1">  1        2 0.72130624E+00 0.10278890E+04</pdfrwt>
<pdfrwt beam="2">  1       -2 0.15805482E+00 0.10278890E+04</pdfrwt>
<totfact> 0.22033401E-02</totfact>
</mgrwt>
</event>
<event>
 4    2  0.6914693E-007  0.6887819E+03  0.7818608E-02  0.1004737E+00
         -2   -1    0    0    0  501 -0.00000000000E+00  0.00000000000E+00  0.70054261503E+03  0.70054261504E+03  0.25500000000E-02 0.  1.
          2   -1    0    0  501    0  0.00000000000E+00 -0.00000000000E+00 -0.36486248852E+03  0.36486248853E+03  0.25500000000E-02 0. -1.
    8880023    1    1    2    0    0  0.17485227156E+03  0.10018473196E+03  0.41019482916E+03  0.80167343820E+03  0.65864270000E+03 0.  1.
    8880022    1    1    2    0    0 -0.17485227156E+03 -0.10018473196E+03 -0.74514702645E+02  0.26373166536E+03  0.15294330000E+03 0. -1.
<mgrwt>
<rscale>  0 0.53621066E+03</rscale>
<asrwt>0</asrwt>
<pdfrwt beam="1">  1        2 0.56132691E-01 0.68878190E+03</pdfrwt>
<pdfrwt beam="2">  1       -2 0.10777579E+00 0.68878190E+03</pdfrwt>
<totfact> 0.61758955E+01</totfact>
</mgrwt>
</event>
<event>
 4    2  0.6914693E-007  0.7326722E+03  0.7818608E-02  0.9881830E-01
          2   -1    0    0  501    0  0.00000000000E+00  0.00000000000E+00  0.18750003690E+04  0.18750003690E+04  0.25500000000E-02 0. -1.
         -2   -1    0    0    0  501 -0.00000000000E+00 -0.00000000000E+00 -0.26467853203E+03  0.26467853204E+03  0.25500000000E-02 0.  1.
    8880023    1    1    2    0    0 -0.26236264720E+03 -0.18483570586E+03  0.31686776882E+03  0.79825671685E+03  0.65864270000E+03 0.  0.
    8880022    1    1    2    0    0  0.26236264720E+03  0.18483570586E+03  0.12934540681E+04  0.13414221842E+04  0.15294330000E+03 0.  0.
<mgrwt>
<rscale>  0 0.61149993E+03</rscale>
<asrwt>0</asrwt>
<pdfrwt beam="1">  1        2 0.28846159E+00 0.73267223E+03</pdfrwt>
<pdfrwt beam="2">  1       -2 0.40719774E-01 0.73267223E+03</pdfrwt>
<totfact> 0.46125517E+01</totfact>
</mgrwt>
</event>
<event>
 4    2  0.6914693E-007  0.7074652E+03  0.7818608E-02  0.9967537E-01
          2   -1    0    0  501    0  0.00000000000E+00  0.00000000000E+00  0.91882990952E+03  0.91882990952E+03  0.25500000000E-02 0. -1.
         -2   -1    0    0    0  501 -0.00000000000E+00 -0.00000000000E+00 -0.10053053471E+04  0.10053053471E+04  0.25500000000E-02 0.  1.
    8880023    1    1    2    0    0 -0.16576264261E+03 -0.19803913092E+03 -0.84872719855E+03  0.11049184653E+04  0.65864270000E+03 0.  1.
    8880022    1    1    2    0    0  0.16576264261E+03  0.19803913092E+03  0.76225176099E+03  0.81921679134E+03  0.15294330000E+03 0.  0.
<mgrwt>
<rscale>  0 0.57096884E+03</rscale>
<asrwt>0</asrwt>
<pdfrwt beam="1">  1        2 0.14135845E+00 0.70746516E+03</pdfrwt>
<pdfrwt beam="2">  1       -2 0.15466236E+00 0.70746516E+03</pdfrwt>
<totfact> 0.80463947E+00</totfact>
</mgrwt>
</event>
<event>
 4    2  0.6914693E-007  0.6611548E+03  0.7818608E-02  0.1023003E+00
         -2   -1    0    0    0  501 -0.00000000000E+00  0.00000000000E+00  0.21416863607E+03  0.21416863609E+03  0.25500000000E-02 0.  1.
          2   -1    0    0  501    0  0.00000000000E+00 -0.00000000000E+00 -0.30116343082E+04  0.30116343082E+04  0.25500000000E-02 0. -1.
    8880023    1    1    2    0    0  0.57578087402E+02  0.47016225076E+00 -0.30522287318E+03  0.72820784518E+03  0.65864270000E+03 0.  1.
    8880022    1    1    2    0    0 -0.57578087402E+02 -0.47016225076E+00 -0.24922427990E+04  0.24975950992E+04  0.15294330000E+03 0.  0.
<mgrwt>
<rscale>  0 0.46618224E+03</rscale>
<asrwt>0</asrwt>
<pdfrwt beam="1">  1        2 0.46332832E+00 0.66115480E+03</pdfrwt>
<pdfrwt beam="2">  1       -2 0.32949023E-01 0.66115480E+03</pdfrwt>
<totfact> 0.15867721E+01</totfact>
</mgrwt>
</event>
<event>
 4    2  0.6914693E-007  0.1147587E+04  0.7818608E-02  0.9209836E-01
          2   -1    0    0  501    0  0.00000000000E+00  0.00000000000E+00  0.13046300701E+04  0.13046300701E+04  0.25500000000E-02 0. -1.
         -2   -1    0    0    0  501 -0.00000000000E+00 -0.00000000000E+00 -0.13085382672E+04  0.13085382672E+04  0.25500000000E-02 0.  1.
    8880023    1    1    2    0    0  0.47304523426E+03 -0.81201846628E+03 -0.77768730579E+03  0.13862732541E+04  0.65864270000E+03 0.  1.
    8880022    1    1    2    0    0 -0.47304523426E+03  0.81201846628E+03  0.77377910861E+03  0.12268950832E+04  0.15294330000E+03 0.  0.
<mgrwt>
<rscale>  0 0.10952479E+04</rscale>
<asrwt>0</asrwt>
<pdfrwt beam="1">  1        2 0.20071232E+00 0.11475870E+04</pdfrwt>
<pdfrwt beam="2">  1       -2 0.20131358E+00 0.11475870E+04</pdfrwt>
<totfact> 0.20905240E+00</totfact>
</mgrwt>
</event>
<event>
 4    2  0.6914693E-007  0.8084221E+03  0.7818608E-02  0.9692873E-01
          2   -1    0    0  501    0  0.00000000000E+00  0.00000000000E+00  0.82494469969E+03  0.82494469969E+03  0.25500000000E-02 0. -1.
         -2   -1    0    0    0  501 -0.00000000000E+00 -0.00000000000E+00 -0.63225794646E+03  0.63225794647E+03  0.25500000000E-02 0.  1.
    8880023    1    1    2    0    0  0.18892639561E+03 -0.42900228201E+03 -0.19306696247E+03  0.83115654313E+03  0.65864270000E+03 0.  1.
    8880022    1    1    2    0    0 -0.18892639561E+03  0.42900228201E+03  0.38575371570E+03  0.62604610303E+03  0.15294330000E+03 0.  0.
<mgrwt>
<rscale>  0 0.71442719E+03</rscale>
<asrwt>0</asrwt>
<pdfrwt beam="1">  1        2 0.12691457E+00 0.80842213E+03</pdfrwt>
<pdfrwt beam="2">  1       -2 0.97270454E-01 0.80842213E+03</pdfrwt>
<totfact> 0.29417578E+01</totfact>
</mgrwt>
</event>
<event>
 4    2  0.6914693E-007  0.1235357E+04  0.7818608E-02  0.9123497E-01
          2   -1    0    0  501    0  0.00000000000E+00  0.00000000000E+00  0.15526815677E+04  0.15526815677E+04  0.25500000000E-02 0. -1.
         -2   -1    0    0    0  501 -0.00000000000E+00 -0.00000000000E+00 -0.12139901195E+04  0.12139901195E+04  0.25500000000E-02 0.  1.
    8880023    1    1    2    0    0 -0.58812375142E+03  0.86394800210E+03 -0.58189329637E+03  0.13655422776E+04  0.65864270000E+03 0.  1.
    8880022    1    1    2    0    0  0.58812375142E+03 -0.86394800210E+03  0.92058474457E+03  0.14011294095E+04  0.15294330000E+03 0.  0.
<mgrwt>
<rscale>  0 0.11879196E+04</rscale>
<asrwt>0</asrwt>
<pdfrwt beam="1">  1        2 0.23887409E+00 0.12353566E+04</pdfrwt>
<pdfrwt beam="2">  1       -2 0.18676771E+00 0.12353566E+04</pdfrwt>
<totfact> 0.18675315E+00</totfact>
</mgrwt>
</event>
<event>
 4    2  0.6914693E-007  0.1086369E+04  0.7818608E-02  0.9276386E-01
         -2   -1    0    0    0  501 -0.00000000000E+00  0.00000000000E+00  0.70760560367E+03  0.70760560368E+03  0.25500000000E-02 0.  1.
          2   -1    0    0  501    0  0.00000000000E+00 -0.00000000000E+00 -0.23595126196E+04  0.23595126196E+04  0.25500000000E-02 0. -1.
    8880023    1    1    2    0    0  0.72523520886E+03  0.46949156177E+03 -0.18703498672E+04  0.21629626134E+04  0.65864270000E+03 0.  0.
    8880022    1    1    2    0    0 -0.72523520886E+03 -0.46949156177E+03  0.21844285125E+03  0.90415560996E+03  0.15294330000E+03 0.  0.
<mgrwt>
<rscale>  0 0.10298619E+04</rscale>
<asrwt>0</asrwt>
<pdfrwt beam="1">  1        2 0.36300194E+00 0.10863695E+04</pdfrwt>
<pdfrwt beam="2">  1       -2 0.10886240E+00 0.10863695E+04</pdfrwt>
<totfact> 0.28083962E+00</totfact>
</mgrwt>
</event>
<event>
 4    2  0.6914693E-007  0.6770014E+03  0.7818608E-02  0.1011073E+00
          2   -1    0    0  501    0  0.00000000000E+00  0.00000000000E+00  0.14012637091E+04  0.14012637091E+04  0.25500000000E-02 0. -1.
         -2   -1    0    0    0  501 -0.00000000000E+00 -0.00000000000E+00 -0.16529562073E+03  0.16529562075E+03  0.25500000000E-02 0.  1.
    8880023    1    1    2    0    0  0.97458139248E+02 -0.12256692169E+03  0.63985207740E+03  0.93152650334E+03  0.65864270000E+03 0.  1.
    8880022    1    1    2    0    0 -0.97458139248E+02  0.12256692169E+03  0.59611601095E+03  0.63503282649E+03  0.15294330000E+03 0.  0.
<mgrwt>
<rscale>  0 0.51050285E+03</rscale>
<asrwt>0</asrwt>
<pdfrwt beam="1">  1        2 0.21557903E+00 0.67700144E+03</pdfrwt>
<pdfrwt beam="2">  1       -2 0.25430096E-01 0.67700144E+03</pdfrwt>
<totfact> 0.20457505E+02</totfact>
</mgrwt>
</event>
<event>
 4    2  0.8854084E-007  0.9979935E+03  0.7818608E-02  0.9384188E-01
         -2   -1    0    0    0  501 -0.00000000000E+00  0.00000000000E+00  0.14761032167E+04  0.14761032167E+04  0.25500000000E-02 0.  1.
          2   -1    0    0  501    0  0.00000000000E+00 -0.00000000000E+00 -0.14517922701E+04  0.14517922701E+04  0.25500000000E-02 0. -1.
    8880023    1    1    2    0    0  0.74908396815E+03 -0.32465555576E+02  0.11777351887E+04  0.15437134399E+04  0.65864270000E+03 0.  0.
    8880022    1    1    2    0    0 -0.74908396815E+03  0.32465555576E+02 -0.11534242421E+04  0.13841820469E+04  0.15294330000E+03 0.  0.
<mgrwt>
<rscale>  0 0.93388492E+03</rscale>
<asrwt>0</asrwt>
<pdfrwt beam="1">  1        2 0.22335266E+00 0.99799349E+03</pdfrwt>
<pdfrwt beam="2">  1       -2 0.22709280E+00 0.99799349E+03</pdfrwt>
<totfact> 0.12001490E+00</totfact>
</mgrwt>
</event>
<event>
 4    2  0.6914693E-007  0.8857937E+03  0.7818608E-02  0.9549233E-01
         -2   -1    0    0    0  501 -0.00000000000E+00  0.00000000000E+00  0.50503168214E+03  0.50503168214E+03  0.25500000000E-02 0.  1.
          2   -1    0    0  501    0  0.00000000000E+00 -0.00000000000E+00 -0.12870175520E+04  0.12870175520E+04  0.25500000000E-02 0. -1.
    8880023    1    1    2    0    0 -0.57110885036E+03 -0.15701884082E+03 -0.12535135379E+03  0.89461913879E+03  0.65864270000E+03 0.  1.
    8880022    1    1    2    0    0  0.57110885036E+03  0.15701884082E+03 -0.65663451605E+03  0.89743009533E+03  0.15294330000E+03 0.  0.
<mgrwt>
<rscale>  0 0.80749368E+03</rscale>
<asrwt>0</asrwt>
<pdfrwt beam="1">  1        2 0.19800270E+00 0.88579368E+03</pdfrwt>
<pdfrwt beam="2">  1       -2 0.77697183E-01 0.88579368E+03</pdfrwt>
<totfact> 0.24983530E+01</totfact>
</mgrwt>
</event>
<event>
 4    2  0.6914693E-007  0.1577950E+04  0.7818608E-02  0.8856468E-01
         -2   -1    0    0    0  501 -0.00000000000E+00  0.00000000000E+00  0.11685336189E+04  0.11685336189E+04  0.25500000000E-02 0.  1.
          2   -1    0    0  501    0  0.00000000000E+00 -0.00000000000E+00 -0.19517444102E+04  0.19517444102E+04  0.25500000000E-02 0. -1.
    8880023    1    1    2    0    0  0.10490166496E+04  0.97758817195E+03 -0.43409231702E+03  0.16365698613E+04  0.65864270000E+03 0.  1.
    8880022    1    1    2    0    0 -0.10490166496E+04 -0.97758817195E+03 -0.34911847431E+03  0.14837081678E+04  0.15294330000E+03 0. -1.
<mgrwt>
<rscale>  0 0.15428186E+04</rscale>
<asrwt>0</asrwt>
<pdfrwt beam="1">  1        2 0.30026837E+00 0.15779495E+04</pdfrwt>
<pdfrwt beam="2">  1       -2 0.17977440E+00 0.15779495E+04</pdfrwt>
<totfact> 0.12087080E+00</totfact>
</mgrwt>
</event>
<event>
 4    2  0.6914693E-007  0.7058320E+03  0.7818608E-02  0.9973817E-01
          2   -1    0    0  501    0  0.00000000000E+00  0.00000000000E+00  0.10649045684E+04  0.10649045684E+04  0.25500000000E-02 0. -1.
         -2   -1    0    0    0  501 -0.00000000000E+00 -0.00000000000E+00 -0.70786324126E+03  0.70786324126E+03  0.25500000000E-02 0.  1.
    8880023    1    1    2    0    0  0.35060131454E+02  0.25131528046E+03 -0.50064021447E+03  0.86535507950E+03  0.65864270000E+03 0.  1.
    8880022    1    1    2    0    0 -0.35060131454E+02 -0.25131528046E+03  0.85768154166E+03  0.90741273020E+03  0.15294330000E+03 0.  0.
<mgrwt>
<rscale>  0 0.56813376E+03</rscale>
<asrwt>0</asrwt>
<pdfrwt beam="1">  1        2 0.16383147E+00 0.70583198E+03</pdfrwt>
<pdfrwt beam="2">  1       -2 0.10890204E+00 0.70583198E+03</pdfrwt>
<totfact> 0.15772619E+01</totfact>
</mgrwt>
</event>
<event>
 4    2  0.6914693E-007  0.8030483E+03  0.7818608E-02  0.9704243E-01
          2   -1    0    0  501    0  0.00000000000E+00  0.00000000000E+00  0.53681354471E+03  0.53681354472E+03  0.25500000000E-02 0. -1.
         -2   -1    0    0    0  501 -0.00000000000E+00 -0.00000000000E+00 -0.10948775301E+04  0.10948775301E+04  0.25500000000E-02 0.  1.
    8880023    1    1    2    0    0  0.22092376999E+03 -0.40282631199E+03 -0.76129546933E+03  0.11065520086E+04  0.65864270000E+03 0.  0.
    8880022    1    1    2    0    0 -0.22092376999E+03  0.40282631199E+03  0.20323148397E+03  0.52513906622E+03  0.15294330000E+03 0. -1.
<mgrwt>
<rscale>  0 0.70764704E+03</rscale>
<asrwt>0</asrwt>
<pdfrwt beam="1">  1        2 0.82586699E-01 0.80304829E+03</pdfrwt>
<pdfrwt beam="2">  1       -2 0.16844270E+00 0.80304829E+03</pdfrwt>
<totfact> 0.12517135E+01</totfact>
</mgrwt>
</event>
<event>
 4    2  0.6914693E-007  0.7880937E+03  0.7818608E-02  0.9737157E-01
          2   -1    0    0  501    0  0.00000000000E+00  0.00000000000E+00  0.29553518040E+04  0.29553518040E+04  0.25500000000E-02 0. -1.
         -2   -1    0    0    0  501 -0.00000000000E+00 -0.00000000000E+00 -0.51735392322E+03  0.51735392323E+03  0.25500000000E-02 0.  1.
    8880023    1    1    2    0    0 -0.20003894656E+03 -0.38375241023E+03 -0.18527639279E+03  0.80957954550E+03  0.65864270000E+03 0.  1.
    8880022    1    1    2    0    0  0.20003894656E+03  0.38375241023E+03  0.26232742735E+04  0.26631261817E+04  0.15294330000E+03 0.  0.
<mgrwt>
<rscale>  0 0.68846924E+03</rscale>
<asrwt>0</asrwt>
<pdfrwt beam="1">  1        2 0.45466952E+00 0.78809371E+03</pdfrwt>
<pdfrwt beam="2">  1       -2 0.79592910E-01 0.78809371E+03</pdfrwt>
<totfact> 0.27455585E+00</totfact>
</mgrwt>
</event>
<event>
 4    2  0.6914693E-007  0.1063755E+04  0.7818608E-02  0.9302526E-01
          2   -1    0    0  501    0  0.00000000000E+00  0.00000000000E+00  0.28908802234E+04  0.28908802234E+04  0.25500000000E-02 0. -1.
         -2   -1    0    0    0  501 -0.00000000000E+00 -0.00000000000E+00 -0.38565802612E+03  0.38565802613E+03  0.25500000000E-02 0.  1.
    8880023    1    1    2    0    0  0.73337357738E+03 -0.39991040984E+03  0.20582356052E+04  0.23168748677E+04  0.65864270000E+03 0. -1.
    8880022    1    1    2    0    0 -0.73337357738E+03  0.39991040984E+03  0.44698659208E+03  0.95966338182E+03  0.15294330000E+03 0.  0.
<mgrwt>
<rscale>  0 0.10055068E+04</rscale>
<asrwt>0</asrwt>
<pdfrwt beam="1">  1        2 0.44475081E+00 0.10637553E+04</pdfrwt>
<pdfrwt beam="2">  1       -2 0.59332003E-01 0.10637553E+04</pdfrwt>
<totfact> 0.54589154E+00</totfact>
</mgrwt>
</event>
<event>
 4    2  0.6914693E-007  0.1253272E+04  0.7818608E-02  0.9107001E-01
          2   -1    0    0  501    0  0.00000000000E+00  0.00000000000E+00  0.12256511813E+04  0.12256511813E+04  0.25500000000E-02 0. -1.
         -2   -1    0    0    0  501 -0.00000000000E+00 -0.00000000000E+00 -0.13562899345E+04  0.13562899345E+04  0.25500000000E-02 0.  1.
    8880023    1    1    2    0    0  0.46353440296E+03 -0.96021654753E+03 -0.62068467663E+03  0.13985491178E+04  0.65864270000E+03 0.  0.
    8880022    1    1    2    0    0 -0.46353440296E+03  0.96021654753E+03  0.49004592341E+03  0.11833919980E+04  0.15294330000E+03 0.  0.
<mgrwt>
<rscale>  0 0.12067128E+04</rscale>
<asrwt>0</asrwt>
<pdfrwt beam="1">  1        2 0.18856172E+00 0.12532718E+04</pdfrwt>
<pdfrwt beam="2">  1       -2 0.20865999E+00 0.12532718E+04</pdfrwt>
<totfact> 0.20628650E+00</totfact>
</mgrwt>
</event>
<event>
 4    2  0.6914693E-007  0.8890809E+03  0.7818608E-02  0.9543793E-01
          2   -1    0    0  501    0  0.00000000000E+00  0.00000000000E+00  0.26583664641E+04  0.26583664641E+04  0.25500000000E-02 0. -1.
         -2   -1    0    0    0  501 -0.00000000000E+00 -0.00000000000E+00 -0.31446970929E+03  0.31446970930E+03  0.25500000000E-02 0.  1.
    8880023    1    1    2    0    0  0.59644565864E+03  0.30119172683E+02  0.48156881536E+03  0.10111247789E+04  0.65864270000E+03 0.  0.
    8880022    1    1    2    0    0 -0.59644565864E+03 -0.30119172683E+02  0.18623279394E+04  0.19617113945E+04  0.15294330000E+03 0.  0.
<mgrwt>
<rscale>  0 0.81130753E+03</rscale>
<asrwt>0</asrwt>
<pdfrwt beam="1">  1        2 0.40897945E+00 0.88908087E+03</pdfrwt>
<pdfrwt beam="2">  1       -2 0.48379956E-01 0.88908087E+03</pdfrwt>
<totfact> 0.11720304E+01</totfact>
</mgrwt>
</event>
<event>
 4    2  0.6914693E-007  0.6887044E+03  0.7818608E-02  0.1004775E+00
         -2   -1    0    0    0  501 -0.00000000000E+00  0.00000000000E+00  0.31409026738E+03  0.31409026739E+03  0.25500000000E-02 0.  1.
          2   -1    0    0  501    0  0.00000000000E+00 -0.00000000000E+00 -0.71949264864E+03  0.71949264865E+03  0.25500000000E-02 0. -1.
    8880023    1    1    2    0    0  0.65813967972E+02  0.19018964776E+03 -0.23072443121E+03  0.72632468629E+03  0.65864270000E+03 0.  1.
    8880022    1    1    2    0    0 -0.65813967972E+02 -0.19018964776E+03 -0.17467795006E+03  0.30725822975E+03  0.15294330000E+03 0. -1.
<mgrwt>
<rscale>  0 0.53605360E+03</rscale>
<asrwt>0</asrwt>
<pdfrwt beam="1">  1        2 0.11069118E+00 0.68870443E+03</pdfrwt>
<pdfrwt beam="2">  1       -2 0.48321580E-01 0.68870443E+03</pdfrwt>
<totfact> 0.16271597E+02</totfact>
</mgrwt>
</event>
<event>
 4    2  0.6914693E-007  0.9912492E+03  0.7818608E-02  0.9393097E-01
          2   -1    0    0  501    0  0.00000000000E+00  0.00000000000E+00  0.12422439600E+04  0.12422439600E+04  0.25500000000E-02 0. -1.
         -2   -1    0    0    0  501 -0.00000000000E+00 -0.00000000000E+00 -0.84907415399E+03  0.84907415399E+03  0.25500000000E-02 0.  1.
    8880023    1    1    2    0    0  0.39167052153E+03 -0.62877577745E+03 -0.33009557868E+03  0.10447669946E+04  0.65864270000E+03 0.  1.
    8880022    1    1    2    0    0 -0.39167052153E+03  0.62877577745E+03  0.72326538474E+03  0.10465511194E+04  0.15294330000E+03 0.  0.
<mgrwt>
<rscale>  0 0.92645960E+03</rscale>
<asrwt>0</asrwt>
<pdfrwt beam="1">  1        2 0.19111446E+00 0.99124920E+03</pdfrwt>
<pdfrwt beam="2">  1       -2 0.13062679E+00 0.99124920E+03</pdfrwt>
<totfact> 0.76159688E+00</totfact>
</mgrwt>
</event>
<event>
 4    2  0.6914693E-007  0.8274781E+03  0.7818608E-02  0.9654259E-01
          2   -1    0    0  501    0  0.00000000000E+00  0.00000000000E+00  0.22622380720E+04  0.22622380720E+04  0.25500000000E-02 0. -1.
         -2   -1    0    0    0  501 -0.00000000000E+00 -0.00000000000E+00 -0.57732092598E+03  0.57732092599E+03  0.25500000000E-02 0.  1.
    8880023    1    1    2    0    0 -0.39773798105E+03  0.30449009342E+03 -0.22631242157E+03  0.85786784354E+03  0.65864270000E+03 0.  0.
    8880022    1    1    2    0    0  0.39773798105E+03 -0.30449009342E+03  0.19112295676E+04  0.19816911545E+04  0.15294330000E+03 0.  0.
<mgrwt>
<rscale>  0 0.73806712E+03</rscale>
<asrwt>0</asrwt>
<pdfrwt beam="1">  1        2 0.34803663E+00 0.82747805E+03</pdfrwt>
<pdfrwt beam="2">  1       -2 0.88818604E-01 0.82747805E+03</pdfrwt>
<totfact> 0.53436126E+00</totfact>
</mgrwt>
</event>
<event>
 4    2  0.6914693E-007  0.9470723E+03  0.7818608E-02  0.9454339E-01
          2   -1    0    0  501    0  0.00000000000E+00  0.00000000000E+00  0.28953723848E+04  0.28953723848E+04  0.25500000000E-02 0. -1.
         -2   -1    0    0    0  501 -0.00000000000E+00 -0.00000000000E+00 -0.23974963874E+03  0.23974963875E+03  0.25500000000E-02 0.  1.
    8880023    1    1    2    0    0 -0.67478861836E+03  0.88295187173E+02  0.12745162384E+04  0.15878720250E+04  0.65864270000E+03 0.  0.
    8880022    1    1    2    0    0  0.67478861836E+03 -0.88295187173E+02  0.13811065077E+04  0.15472499986E+04  0.15294330000E+03 0.  0.
<mgrwt>
<rscale>  0 0.87735581E+03</rscale>
<asrwt>0</asrwt>
<pdfrwt beam="1">  1        2 0.44544192E+00 0.94707229E+03</pdfrwt>
<pdfrwt beam="2">  1       -2 0.36884559E-01 0.94707229E+03</pdfrwt>
<totfact> 0.14387827E+01</totfact>
</mgrwt>
</event>
<event>
 4    2  0.6914693E-007  0.6847771E+03  0.7818608E-02  0.1006741E+00
          2   -1    0    0  501    0  0.00000000000E+00  0.00000000000E+00  0.10460292948E+04  0.10460292948E+04  0.25500000000E-02 0. -1.
         -2   -1    0    0    0  501 -0.00000000000E+00 -0.00000000000E+00 -0.44535735631E+03  0.44535735631E+03  0.25500000000E-02 0.  1.
    8880023    1    1    2    0    0  0.23782758291E+01 -0.18736024267E+03 -0.15145474335E+03  0.70132607414E+03  0.65864270000E+03 0.  1.
    8880022    1    1    2    0    0 -0.23782758291E+01  0.18736024267E+03  0.75212668189E+03  0.79006057702E+03  0.15294330000E+03 0.  0.
<mgrwt>
<rscale>  0 0.52790710E+03</rscale>
<asrwt>0</asrwt>
<pdfrwt beam="1">  1        2 0.16092758E+00 0.68477713E+03</pdfrwt>
<pdfrwt beam="2">  1       -2 0.68516516E-01 0.68477713E+03</pdfrwt>
<totfact> 0.46884169E+01</totfact>
</mgrwt>
</event>
<event>
 4    2  0.6914693E-007  0.7749602E+03  0.7818608E-02  0.9767812E-01
          2   -1    0    0  501    0  0.00000000000E+00  0.00000000000E+00  0.23773291407E+04  0.23773291407E+04  0.25500000000E-02 0. -1.
         -2   -1    0    0    0  501 -0.00000000000E+00 -0.00000000000E+00 -0.28591906093E+03  0.28591906094E+03  0.25500000000E-02 0.  1.
    8880023    1    1    2    0    0  0.35699868067E+03  0.19825483538E+03  0.31910485097E+03  0.83808779369E+03  0.65864270000E+03 0.  1.
    8880022    1    1    2    0    0 -0.35699868067E+03 -0.19825483538E+03  0.17723052288E+04  0.18251604080E+04  0.15294330000E+03 0.  0.
<mgrwt>
<rscale>  0 0.67118935E+03</rscale>
<asrwt>0</asrwt>
<pdfrwt beam="1">  1        2 0.36574295E+00 0.77496016E+03</pdfrwt>
<pdfrwt beam="2">  1       -2 0.43987547E-01 0.77496016E+03</pdfrwt>
<totfact> 0.20853767E+01</totfact>
</mgrwt>
</event>
<event>
 4    2  0.6914693E-007  0.7688164E+03  0.7818608E-02  0.9782795E-01
          2   -1    0    0  501    0  0.00000000000E+00  0.00000000000E+00  0.23100847779E+04  0.23100847779E+04  0.25500000000E-02 0. -1.
         -2   -1    0    0    0  501 -0.00000000000E+00 -0.00000000000E+00 -0.24109005923E+03  0.24109005924E+03  0.25500000000E-02 0.  1.
    8880023    1    1    2    0    0 -0.39494651297E+03  0.35857325578E+02  0.48009112870E+03  0.90640288726E+03  0.65864270000E+03 0.  1.
    8880022    1    1    2    0    0  0.39494651297E+03 -0.35857325578E+02  0.15889035900E+04  0.16447719499E+04  0.15294330000E+03 0. -1.
<mgrwt>
<rscale>  0 0.66294086E+03</rscale>
<asrwt>0</asrwt>
<pdfrwt beam="1">  1        2 0.35539766E+00 0.76881643E+03</pdfrwt>
<pdfrwt beam="2">  1       -2 0.37090778E-01 0.76881643E+03</pdfrwt>
<totfact> 0.31759757E+01</totfact>
</mgrwt>
</event>
<event>
 4    2  0.6914693E-007  0.7744045E+03  0.7818608E-02  0.9769149E-01
         -2   -1    0    0    0  501 -0.00000000000E+00  0.00000000000E+00  0.38255657770E+03  0.38255657771E+03  0.25500000000E-02 0.  1.
          2   -1    0    0  501    0  0.00000000000E+00 -0.00000000000E+00 -0.20900367474E+04  0.20900367474E+04  0.25500000000E-02 0. -1.
    8880023    1    1    2    0    0  0.30644882472E+03  0.26829327360E+03 -0.69156678716E+02  0.77748634413E+03  0.65864270000E+03 0.  1.
    8880022    1    1    2    0    0 -0.30644882472E+03 -0.26829327360E+03 -0.16383234910E+04  0.16951069810E+04  0.15294330000E+03 0.  0.
<mgrwt>
<rscale>  0 0.67044800E+03</rscale>
<asrwt>0</asrwt>
<pdfrwt beam="1">  1        2 0.32154411E+00 0.77440453E+03</pdfrwt>
<pdfrwt beam="2">  1       -2 0.58854859E-01 0.77440453E+03</pdfrwt>
<totfact> 0.16585163E+01</totfact>
</mgrwt>
</event>
<event>
 4    2  0.6914693E-007  0.7381704E+03  0.7818608E-02  0.9865309E-01
          2   -1    0    0  501    0  0.00000000000E+00  0.00000000000E+00  0.25811929172E+03  0.25811929173E+03  0.25500000000E-02 0. -1.
         -2   -1    0    0    0  501 -0.00000000000E+00 -0.00000000000E+00 -0.15687154094E+04  0.15687154094E+04  0.25500000000E-02 0.  1.
    8880023    1    1    2    0    0  0.28896361459E+03 -0.16608846978E+03 -0.12549136054E+04  0.14559202291E+04  0.65864270000E+03 0.  1.
    8880022    1    1    2    0    0 -0.28896361459E+03  0.16608846978E+03 -0.55682512299E+02  0.37091447200E+03  0.15294330000E+03 0.  0.
<mgrwt>
<rscale>  0 0.61972423E+03</rscale>
<asrwt>0</asrwt>
<pdfrwt beam="1">  1        2 0.39710661E-01 0.73817041E+03</pdfrwt>
<pdfrwt beam="2">  1       -2 0.24134083E+00 0.73817041E+03</pdfrwt>
<totfact> 0.96823500E+00</totfact>
</mgrwt>
</event>
<event>
 4    2  0.6914693E-007  0.6618759E+03  0.7818608E-02  0.1022312E+00
         -2   -1    0    0    0  501 -0.00000000000E+00  0.00000000000E+00  0.16690498219E+03  0.16690498221E+03  0.25500000000E-02 0.  1.
          2   -1    0    0  501    0  0.00000000000E+00 -0.00000000000E+00 -0.45734248217E+04  0.45734248217E+04  0.25500000000E-02 0. -1.
    8880023    1    1    2    0    0 -0.36365335297E+02  0.54286898521E+02 -0.49807216578E+03  0.82834509327E+03  0.65864270000E+03 0.  1.
    8880022    1    1    2    0    0  0.36365335297E+02 -0.54286898521E+02 -0.39084476738E+04  0.39119847107E+04  0.15294330000E+03 0.  0.
<mgrwt>
<rscale>  0 0.46861504E+03</rscale>
<asrwt>0</asrwt>
<pdfrwt beam="1">  1        2 0.70360372E+00 0.66187590E+03</pdfrwt>
<pdfrwt beam="2">  1       -2 0.25677693E-01 0.66187590E+03</pdfrwt>
<totfact> 0.16586487E+00</totfact>
</mgrwt>
</event>
<event>
 4    2  0.6914693E-007  0.1210030E+04  0.7818608E-02  0.9147434E-01
          2   -1    0    0  501    0  0.00000000000E+00  0.00000000000E+00  0.21346707505E+04  0.21346707505E+04  0.25500000000E-02 0. -1.
         -2   -1    0    0    0  501 -0.00000000000E+00 -0.00000000000E+00 -0.82300137624E+03  0.82300137625E+03  0.25500000000E-02 0.  1.
    8880023    1    1    2    0    0  0.76312816382E+03 -0.66932616049E+03 -0.97838497071E+02  0.12139788636E+04  0.65864270000E+03 0.  0.
    8880022    1    1    2    0    0 -0.76312816382E+03  0.66932616049E+03  0.14095078713E+04  0.17436932631E+04  0.15294330000E+03 0.  0.
<mgrwt>
<rscale>  0 0.11612867E+04</rscale>
<asrwt>0</asrwt>
<pdfrwt beam="1">  1        2 0.32841088E+00 0.12100299E+04</pdfrwt>
<pdfrwt beam="2">  1       -2 0.12661560E+00 0.12100299E+04</pdfrwt>
<totfact> 0.25443522E+00</totfact>
</mgrwt>
</event>
<event>
 4    2  0.6914693E-007  0.7007205E+03  0.7818608E-02  0.9994225E-01
         -2   -1    0    0    0  501 -0.00000000000E+00  0.00000000000E+00  0.14481771869E+03  0.14481771872E+03  0.25500000000E-02 0.  1.
          2   -1    0    0  501    0  0.00000000000E+00 -0.00000000000E+00 -0.20296436970E+04  0.20296436970E+04  0.25500000000E-02 0. -1.
    8880023    1    1    2    0    0  0.12668242250E+03 -0.20285598033E+03 -0.85099423085E+03  0.11023612712E+04  0.65864270000E+03 0.  0.
    8880022    1    1    2    0    0 -0.12668242250E+03  0.20285598033E+03 -0.10338317475E+04  0.10721001446E+04  0.15294330000E+03 0.  0.
<mgrwt>
<rscale>  0 0.55904167E+03</rscale>
<asrwt>0</asrwt>
<pdfrwt beam="1">  1        2 0.31225286E+00 0.70072048E+03</pdfrwt>
<pdfrwt beam="2">  1       -2 0.22279651E-01 0.70072048E+03</pdfrwt>
<totfact> 0.11698358E+02</totfact>
</mgrwt>
</event>
<event>
 4    2  0.6914693E-007  0.8416485E+03  0.7818608E-02  0.9627080E-01
         -2   -1    0    0    0  501 -0.00000000000E+00  0.00000000000E+00  0.55932455284E+03  0.55932455284E+03  0.25500000000E-02 0.  1.
          2   -1    0    0  501    0  0.00000000000E+00 -0.00000000000E+00 -0.14753530229E+04  0.14753530229E+04  0.25500000000E-02 0. -1.
    8880023    1    1    2    0    0 -0.50566568978E+03  0.13734686819E+03  0.13303800809E+03  0.85209815742E+03  0.65864270000E+03 0.  1.
    8880022    1    1    2    0    0  0.50566568978E+03 -0.13734686819E+03 -0.10490664782E+04  0.11825794183E+04  0.15294330000E+03 0.  0.
<mgrwt>
<rscale>  0 0.75529505E+03</rscale>
<asrwt>0</asrwt>
<pdfrwt beam="1">  1        2 0.22697739E+00 0.84164848E+03</pdfrwt>
<pdfrwt beam="2">  1       -2 0.86049932E-01 0.84164848E+03</pdfrwt>
<totfact> 0.15553022E+01</totfact>
</mgrwt>
</event>
<event>
 4    2  0.6914693E-007  0.9111104E+03  0.7818608E-02  0.9508426E-01
          2   -1    0    0  501    0  0.00000000000E+00  0.00000000000E+00  0.25756097386E+04  0.25756097386E+04  0.25500000000E-02 0. -1.
         -2   -1    0    0    0  501 -0.00000000000E+00 -0.00000000000E+00 -0.26317151990E+03  0.26317151992E+03  0.25500000000E-02 0.  1.
    8880023    1    1    2    0    0 -0.25822458113E+03  0.57413585221E+03  0.88019832383E+03  0.12668351142E+04  0.65864270000E+03 0. -1.
    8880022    1    1    2    0    0  0.25822458113E+03 -0.57413585221E+03  0.14322398949E+04  0.15719461443E+04  0.15294330000E+03 0.  0.
<mgrwt>
<rscale>  0 0.83665436E+03</rscale>
<asrwt>0</asrwt>
<pdfrwt beam="1">  1        2 0.39624763E+00 0.91111038E+03</pdfrwt>
<pdfrwt beam="2">  1       -2 0.40487928E-01 0.91111038E+03</pdfrwt>
<totfact> 0.18609012E+01</totfact>
</mgrwt>
</event>
<event>
 4    2  0.6914693E-007  0.7262814E+03  0.7818608E-02  0.9901878E-01
         -2   -1    0    0    0  501 -0.00000000000E+00  0.00000000000E+00  0.59198034956E+03  0.59198034957E+03  0.25500000000E-02 0.  1.
          2   -1    0    0  501    0  0.00000000000E+00 -0.00000000000E+00 -0.11985889787E+04  0.11985889787E+04  0.25500000000E-02 0. -1.
    8880023    1    1    2    0    0 -0.96602454894E+02 -0.29041763955E+03  0.32680653634E+03  0.79642147015E+03  0.65864270000E+03 0.  1.
    8880022    1    1    2    0    0  0.96602454894E+02  0.29041763955E+03 -0.93341516543E+03  0.99414785808E+03  0.15294330000E+03 0.  0.
<mgrwt>
<rscale>  0 0.60170355E+03</rscale>
<asrwt>0</asrwt>
<pdfrwt beam="1">  1        2 0.18439830E+00 0.72628138E+03</pdfrwt>
<pdfrwt beam="2">  1       -2 0.91073901E-01 0.72628138E+03</pdfrwt>
<totfact> 0.19939218E+01</totfact>
</mgrwt>
</event>
<event>
 4    2  0.6914693E-007  0.8434938E+03  0.7818608E-02  0.9623627E-01
         -2   -1    0    0    0  501 -0.00000000000E+00  0.00000000000E+00  0.43348559590E+03  0.43348559591E+03  0.25500000000E-02 0.  1.
          2   -1    0    0  501    0  0.00000000000E+00 -0.00000000000E+00 -0.11379065131E+04  0.11379065131E+04  0.25500000000E-02 0. -1.
    8880023    1    1    2    0    0  0.34285165220E+03 -0.40015546688E+03 -0.32333248990E+03  0.90334144064E+03  0.65864270000E+03 0. -1.
    8880022    1    1    2    0    0 -0.34285165220E+03  0.40015546688E+03 -0.38108842732E+03  0.66805066839E+03  0.15294330000E+03 0.  1.
<mgrwt>
<rscale>  0 0.75751924E+03</rscale>
<asrwt>0</asrwt>
<pdfrwt beam="1">  1        2 0.17506254E+00 0.84349384E+03</pdfrwt>
<pdfrwt beam="2">  1       -2 0.66690092E-01 0.84349384E+03</pdfrwt>
<totfact> 0.43027517E+01</totfact>
</mgrwt>
</event>
<event>
 4    2  0.6914693E-007  0.8346957E+03  0.7818608E-02  0.9640264E-01
         -2   -1    0    0    0  501 -0.00000000000E+00  0.00000000000E+00  0.74986080791E+03  0.74986080791E+03  0.25500000000E-02 0.  1.
          2   -1    0    0  501    0  0.00000000000E+00 -0.00000000000E+00 -0.16415275762E+04  0.16415275762E+04  0.25500000000E-02 0. -1.
    8880023    1    1    2    0    0 -0.45161904064E+03 -0.24278995105E+03  0.44906722320E+03  0.94782819931E+03  0.65864270000E+03 0.  1.
    8880022    1    1    2    0    0  0.45161904064E+03  0.24278995105E+03 -0.13407339915E+04  0.14435601848E+04  0.15294330000E+03 0.  0.
<mgrwt>
<rscale>  0 0.74687598E+03</rscale>
<asrwt>0</asrwt>
<pdfrwt beam="1">  1        2 0.25254270E+00 0.83469571E+03</pdfrwt>
<pdfrwt beam="2">  1       -2 0.11536320E+00 0.83469571E+03</pdfrwt>
<totfact> 0.62821574E+00</totfact>
</mgrwt>
</event>
<event>
 4    2  0.6914693E-007  0.6655345E+03  0.7818608E-02  0.1019089E+00
          2   -1    0    0  501    0  0.00000000000E+00  0.00000000000E+00  0.10213964014E+04  0.10213964014E+04  0.25500000000E-02 0. -1.
         -2   -1    0    0    0  501 -0.00000000000E+00 -0.00000000000E+00 -0.24694439662E+03  0.24694439663E+03  0.25500000000E-02 0.  1.
    8880023    1    1    2    0    0 -0.95508859276E+02 -0.20013287482E+01  0.24529138400E+03  0.70929825662E+03  0.65864270000E+03 0.  1.
    8880022    1    1    2    0    0  0.95508859276E+02  0.20013287482E+01  0.52916062082E+03  0.55904254146E+03  0.15294330000E+03 0.  0.
<mgrwt>
<rscale>  0 0.48016747E+03</rscale>
<asrwt>0</asrwt>
<pdfrwt beam="1">  1        2 0.15713791E+00 0.66553449E+03</pdfrwt>
<pdfrwt beam="2">  1       -2 0.37991446E-01 0.66553449E+03</pdfrwt>
<totfact> 0.16235572E+02</totfact>
</mgrwt>
</event>
<event>
 4    2  0.6914693E-007  0.7623193E+03  0.7818608E-02  0.9799140E-01
         -2   -1    0    0    0  501 -0.00000000000E+00  0.00000000000E+00  0.35650577035E+03  0.35650577036E+03  0.25500000000E-02 0.  1.
          2   -1    0    0  501    0  0.00000000000E+00 -0.00000000000E+00 -0.21841858214E+04  0.21841858214E+04  0.25500000000E-02 0. -1.
    8880023    1    1    2    0    0 -0.29501430668E+03  0.24553410173E+03 -0.10543147818E+03  0.76957549280E+03  0.65864270000E+03 0.  1.
    8880022    1    1    2    0    0  0.29501430668E+03 -0.24553410173E+03 -0.17222485728E+04  0.17711160989E+04  0.15294330000E+03 0.  0.
<mgrwt>
<rscale>  0 0.65408728E+03</rscale>
<asrwt>0</asrwt>
<pdfrwt beam="1">  1        2 0.33602858E+00 0.76231925E+03</pdfrwt>
<pdfrwt beam="2">  1       -2 0.54847043E-01 0.76231925E+03</pdfrwt>
<totfact> 0.17089349E+01</totfact>
</mgrwt>
</event>
<event>
 4    2  0.6914693E-007  0.7251914E+03  0.7818608E-02  0.9905396E-01
         -2   -1    0    0    0  501 -0.00000000000E+00  0.00000000000E+00  0.27474127413E+03  0.27474127415E+03  0.25500000000E-02 0.  1.
          2   -1    0    0  501    0  0.00000000000E+00 -0.00000000000E+00 -0.11268628225E+04  0.11268628225E+04  0.25500000000E-02 0. -1.
    8880023    1    1    2    0    0 -0.27788784189E+03 -0.12194565752E+03 -0.37663727733E+03  0.81716475756E+03  0.65864270000E+03 0.  1.
    8880022    1    1    2    0    0  0.27788784189E+03  0.12194565752E+03 -0.47548427101E+03  0.58443933906E+03  0.15294330000E+03 0. -1.
<mgrwt>
<rscale>  0 0.60000483E+03</rscale>
<asrwt>0</asrwt>
<pdfrwt beam="1">  1        2 0.17336351E+00 0.72519142E+03</pdfrwt>
<pdfrwt beam="2">  1       -2 0.42267889E-01 0.72519142E+03</pdfrwt>
<totfact> 0.11303167E+02</totfact>
</mgrwt>
</event>
<event>
 4    2  0.6914693E-007  0.8569581E+03  0.7818608E-02  0.9598997E-01
         -2   -1    0    0    0  501 -0.00000000000E+00  0.00000000000E+00  0.10250160049E+04  0.10250160049E+04  0.25500000000E-02 0.  1.
          2   -1    0    0  501    0  0.00000000000E+00 -0.00000000000E+00 -0.91816475701E+03  0.91816475702E+03  0.25500000000E-02 0. -1.
    8880023    1    1    2    0    0  0.10294937320E+03 -0.53848720275E+03  0.71073709084E+03  0.11133393281E+04  0.65864270000E+03 0.  1.
    8880022    1    1    2    0    0 -0.10294937320E+03  0.53848720275E+03 -0.60388584294E+03  0.82984143382E+03  0.15294330000E+03 0.  0.
<mgrwt>
<rscale>  0 0.77362574E+03</rscale>
<asrwt>0</asrwt>
<pdfrwt beam="1">  1        2 0.14125612E+00 0.85695814E+03</pdfrwt>
<pdfrwt beam="2">  1       -2 0.15769477E+00 0.85695814E+03</pdfrwt>
<totfact> 0.75108853E+00</totfact>
</mgrwt>
</event>
<event>
 4    2  0.6914693E-007  0.7048116E+03  0.7818608E-02  0.9977797E-01
          2   -1    0    0  501    0  0.00000000000E+00  0.00000000000E+00  0.13841090445E+04  0.13841090445E+04  0.25500000000E-02 0. -1.
         -2   -1    0    0    0  501 -0.00000000000E+00 -0.00000000000E+00 -0.27319533598E+03  0.27319533599E+03  0.25500000000E-02 0.  1.
    8880023    1    1    2    0    0  0.23940016482E+03 -0.75078053492E+02  0.25034256711E+03  0.74795104131E+03  0.65864270000E+03 0.  1.
    8880022    1    1    2    0    0 -0.23940016482E+03  0.75078053492E+02  0.86057114143E+03  0.90935333919E+03  0.15294330000E+03 0.  0.
<mgrwt>
<rscale>  0 0.56634593E+03</rscale>
<asrwt>0</asrwt>
<pdfrwt beam="1">  1        2 0.21293986E+00 0.70481158E+03</pdfrwt>
<pdfrwt beam="2">  1       -2 0.42030051E-01 0.70481158E+03</pdfrwt>
<totfact> 0.81055521E+01</totfact>
</mgrwt>
</event>
<event>
 4    2  0.6914693E-007  0.9599386E+03  0.7818608E-02  0.9435956E-01
         -2   -1    0    0    0  501 -0.00000000000E+00  0.00000000000E+00  0.52089172980E+03  0.52089172981E+03  0.25500000000E-02 0.  1.
          2   -1    0    0  501    0  0.00000000000E+00 -0.00000000000E+00 -0.16337052018E+04  0.16337052018E+04  0.25500000000E-02 0. -1.
    8880023    1    1    2    0    0  0.90569184579E+02  0.69243710076E+03 -0.17562048992E+03  0.97587124071E+03  0.65864270000E+03 0.  0.
    8880022    1    1    2    0    0 -0.90569184579E+02 -0.69243710076E+03 -0.93719298210E+03  0.11787256909E+04  0.15294330000E+03 0.  0.
<mgrwt>
<rscale>  0 0.89174762E+03</rscale>
<asrwt>0</asrwt>
<pdfrwt beam="1">  1        2 0.25133926E+00 0.95993860E+03</pdfrwt>
<pdfrwt beam="2">  1       -2 0.80137190E-01 0.95993860E+03</pdfrwt>
<totfact> 0.14735298E+01</totfact>
</mgrwt>
</event>
<event>
 4    2  0.6914693E-007  0.8158838E+03  0.7818608E-02  0.9677449E-01
         -2   -1    0    0    0  501 -0.00000000000E+00  0.00000000000E+00  0.40426381051E+03  0.40426381052E+03  0.25500000000E-02 0.  1.
          2   -1    0    0  501    0  0.00000000000E+00 -0.00000000000E+00 -0.23111833871E+04  0.23111833871E+04  0.25500000000E-02 0. -1.
    8880023    1    1    2    0    0 -0.42257498534E+03 -0.23083869611E+03 -0.79814706469E+02  0.81977845513E+03  0.65864270000E+03 0.  1.
    8880022    1    1    2    0    0  0.42257498534E+03  0.23083869611E+03 -0.18271048701E+04  0.18956687425E+04  0.15294330000E+03 0.  0.
<mgrwt>
<rscale>  0 0.72375482E+03</rscale>
<asrwt>0</asrwt>
<pdfrwt beam="1">  1        2 0.35556667E+00 0.81588377E+03</pdfrwt>
<pdfrwt beam="2">  1       -2 0.62194434E-01 0.81588377E+03</pdfrwt>
<totfact> 0.11071788E+01</totfact>
</mgrwt>
</event>
<event>
 4    2  0.6914693E-007  0.6771919E+03  0.7818608E-02  0.1010959E+00
          2   -1    0    0  501    0  0.00000000000E+00  0.00000000000E+00  0.18294107061E+04  0.18294107061E+04  0.25500000000E-02 0. -1.
         -2   -1    0    0    0  501 -0.00000000000E+00 -0.00000000000E+00 -0.21837678065E+03  0.21837678067E+03  0.25500000000E-02 0.  1.
    8880023    1    1    2    0    0 -0.56385010813E+02  0.14696717178E+03  0.33964423181E+03  0.75759291806E+03  0.65864270000E+03 0.  1.
    8880022    1    1    2    0    0  0.56385010813E+02 -0.14696717178E+03  0.12713896936E+04  0.12901945687E+04  0.15294330000E+03 0.  0.
<mgrwt>
<rscale>  0 0.51095328E+03</rscale>
<asrwt>0</asrwt>
<pdfrwt beam="1">  1        2 0.28144782E+00 0.67719187E+03</pdfrwt>
<pdfrwt beam="2">  1       -2 0.33596426E-01 0.67719187E+03</pdfrwt>
<totfact> 0.71136634E+01</totfact>
</mgrwt>
</event>
<event>
 4    2  0.6914693E-007  0.8712513E+03  0.7818608E-02  0.9573855E-01
          2   -1    0    0  501    0  0.00000000000E+00  0.00000000000E+00  0.26342949572E+04  0.26342949572E+04  0.25500000000E-02 0. -1.
         -2   -1    0    0    0  501 -0.00000000000E+00 -0.00000000000E+00 -0.30866036991E+03  0.30866036992E+03  0.25500000000E-02 0.  1.
    8880023    1    1    2    0    0  0.21745800532E+03 -0.52723869930E+03  0.45819940570E+03  0.98439094457E+03  0.65864270000E+03 0. -1.
    8880022    1    1    2    0    0 -0.21745800532E+03  0.52723869930E+03  0.18674351816E+04  0.19585643826E+04  0.15294330000E+03 0.  0.
<mgrwt>
<rscale>  0 0.79051095E+03</rscale>
<asrwt>0</asrwt>
<pdfrwt beam="1">  1        2 0.40527616E+00 0.87125130E+03</pdfrwt>
<pdfrwt beam="2">  1       -2 0.47486209E-01 0.87125130E+03</pdfrwt>
<totfact> 0.12600001E+01</totfact>
</mgrwt>
</event>
<event>
 4    2  0.6914693E-007  0.7090623E+03  0.7818608E-02  0.9961500E-01
         -2   -1    0    0    0  501 -0.00000000000E+00  0.00000000000E+00  0.75066995173E+03  0.75066995173E+03  0.25500000000E-02 0.  1.
          2   -1    0    0  501    0  0.00000000000E+00 -0.00000000000E+00 -0.12053909526E+04  0.12053909526E+04  0.25500000000E-02 0. -1.
    8880023    1    1    2    0    0  0.12102713930E+03 -0.23304833395E+03  0.55573629677E+03  0.90089518381E+03  0.65864270000E+03 0.  1.
    8880022    1    1    2    0    0 -0.12102713930E+03  0.23304833395E+03 -0.10104572976E+04  0.10551657205E+04  0.15294330000E+03 0.  0.
<mgrwt>
<rscale>  0 0.57371121E+03</rscale>
<asrwt>0</asrwt>
<pdfrwt beam="1">  1        2 0.18544476E+00 0.70906227E+03</pdfrwt>
<pdfrwt beam="2">  1       -2 0.11548769E+00 0.70906227E+03</pdfrwt>
<totfact> 0.11246889E+01</totfact>
</mgrwt>
</event>
<event>
 4    2  0.6914693E-007  0.6794541E+03  0.7818608E-02  0.1009634E+00
         -2   -1    0    0    0  501 -0.00000000000E+00  0.00000000000E+00  0.19943034516E+03  0.19943034517E+03  0.25500000000E-02 0.  1.
          2   -1    0    0  501    0  0.00000000000E+00 -0.00000000000E+00 -0.16475624302E+04  0.16475624302E+04  0.25500000000E-02 0. -1.
    8880023    1    1    2    0    0 -0.85696498253E+02  0.14319130096E+03 -0.43019803597E+03  0.80419412762E+03  0.65864270000E+03 0.  1.
    8880022    1    1    2    0    0  0.85696498253E+02 -0.14319130096E+03 -0.10179340491E+04  0.10427986478E+04  0.15294330000E+03 0.  0.
<mgrwt>
<rscale>  0 0.51620294E+03</rscale>
<asrwt>0</asrwt>
<pdfrwt beam="1">  1        2 0.25347113E+00 0.67945408E+03</pdfrwt>
<pdfrwt beam="2">  1       -2 0.30681593E-01 0.67945408E+03</pdfrwt>
<totfact> 0.10590334E+02</totfact>
</mgrwt>
</event>
<event>
 4    2  0.6914693E-007  0.6850114E+03  0.7818608E-02  0.1006620E+00
         -2   -1    0    0    0  501 -0.00000000000E+00  0.00000000000E+00  0.26859324344E+03  0.26859324346E+03  0.25500000000E-02 0.  1.
          2   -1    0    0  501    0  0.00000000000E+00 -0.00000000000E+00 -0.15604754782E+04  0.15604754783E+04  0.25500000000E-02 0. -1.
    8880023    1    1    2    0    0  0.12163925644E+03  0.14364665010E+03 -0.20438127226E+03  0.71485129888E+03  0.65864270000E+03 0.  1.
    8880022    1    1    2    0    0 -0.12163925644E+03 -0.14364665010E+03 -0.10875009625E+04  0.11142174228E+04  0.15294330000E+03 0.  0.
<mgrwt>
<rscale>  0 0.52840383E+03</rscale>
<asrwt>0</asrwt>
<pdfrwt beam="1">  1        2 0.24007314E+00 0.68501144E+03</pdfrwt>
<pdfrwt beam="2">  1       -2 0.41322038E-01 0.68501144E+03</pdfrwt>
<totfact> 0.66952555E+01</totfact>
</mgrwt>
</event>
<event>
 4    2  0.6914693E-007  0.6775971E+03  0.7818608E-02  0.1010717E+00
         -2   -1    0    0    0  501 -0.00000000000E+00  0.00000000000E+00  0.19900845247E+03  0.19900845249E+03  0.25500000000E-02 0.  1.
          2   -1    0    0  501    0  0.00000000000E+00 -0.00000000000E+00 -0.21097128141E+04  0.21097128141E+04  0.25500000000E-02 0. -1.
    8880023    1    1    2    0    0  0.63765733919E+02  0.14581339822E+03 -0.41023719983E+03  0.79210629483E+03  0.65864270000E+03 0.  0.
    8880022    1    1    2    0    0 -0.63765733919E+02 -0.14581339822E+03 -0.15004671618E+04  0.15166149718E+04  0.15294330000E+03 0.  0.
<mgrwt>
<rscale>  0 0.51190721E+03</rscale>
<asrwt>0</asrwt>
<pdfrwt beam="1">  1        2 0.32457119E+00 0.67759709E+03</pdfrwt>
<pdfrwt beam="2">  1       -2 0.30616686E-01 0.67759709E+03</pdfrwt>
<totfact> 0.59587347E+01</totfact>
</mgrwt>
</event>
<event>
 4    2  0.6914693E-007  0.9380271E+03  0.7818608E-02  0.9467554E-01
          2   -1    0    0  501    0  0.00000000000E+00  0.00000000000E+00  0.87433523628E+03  0.87433523629E+03  0.25500000000E-02 0. -1.
         -2   -1    0    0    0  501 -0.00000000000E+00 -0.00000000000E+00 -0.89276172448E+03  0.89276172448E+03  0.25500000000E-02 0.  1.
    8880023    1    1    2    0    0  0.47134026065E+03  0.47320496354E+03 -0.35594950578E+03  0.10032919993E+04  0.65864270000E+03 0.  1.
    8880022    1    1    2    0    0 -0.47134026065E+03 -0.47320496354E+03  0.33752301758E+03  0.76380496152E+03  0.15294330000E+03 0.  0.
<mgrwt>
<rscale>  0 0.86718794E+03</rscale>
<asrwt>0</asrwt>
<pdfrwt beam="1">  1        2 0.13451311E+00 0.93802707E+03</pdfrwt>
<pdfrwt beam="2">  1       -2 0.13734796E+00 0.93802707E+03</pdfrwt>
<totfact> 0.11491652E+01</totfact>
</mgrwt>
</event>
<event>
 4    2  0.6914693E-007  0.7182287E+03  0.7818608E-02  0.9928626E-01
         -2   -1    0    0    0  501 -0.00000000000E+00  0.00000000000E+00  0.77970146649E+03  0.77970146649E+03  0.25500000000E-02 0.  1.
          2   -1    0    0  501    0  0.00000000000E+00 -0.00000000000E+00 -0.74368364966E+03  0.74368364966E+03  0.25500000000E-02 0. -1.
    8880023    1    1    2    0    0 -0.17379343304E+03 -0.22767986643E+03  0.55740882049E+03  0.90915184560E+03  0.65864270000E+03 0.  1.
    8880022    1    1    2    0    0  0.17379343304E+03  0.22767986643E+03 -0.52139100366E+03  0.61423327055E+03  0.15294330000E+03 0.  0.
<mgrwt>
<rscale>  0 0.58893806E+03</rscale>
<asrwt>0</asrwt>
<pdfrwt beam="1">  1        2 0.11441287E+00 0.71822871E+03</pdfrwt>
<pdfrwt beam="2">  1       -2 0.11995407E+00 0.71822871E+03</pdfrwt>
<totfact> 0.20499125E+01</totfact>
</mgrwt>
</event>
<event>
 4    2  0.6914693E-007  0.6746822E+03  0.7818608E-02  0.1012507E+00
          2   -1    0    0  501    0  0.00000000000E+00  0.00000000000E+00  0.47562488098E+04  0.47562488098E+04  0.25500000000E-02 0. -1.
         -2   -1    0    0    0  501 -0.00000000000E+00 -0.00000000000E+00 -0.61101051076E+02  0.61101051130E+02  0.25500000000E-02 0.  1.
    8880023    1    1    2    0    0 -0.12480081843E+03 -0.76226990474E+02  0.19377739535E+04  0.20518683923E+04  0.65864270000E+03 0.  1.
    8880022    1    1    2    0    0  0.12480081843E+03  0.76226990474E+02  0.27573738052E+04  0.27654814686E+04  0.15294330000E+03 0.  0.
<mgrwt>
<rscale>  0 0.50490170E+03</rscale>
<asrwt>0</asrwt>
<pdfrwt beam="1">  1        2 0.73173077E+00 0.67468215E+03</pdfrwt>
<pdfrwt beam="2">  1       -2 0.94001593E-02 0.67468215E+03</pdfrwt>
<totfact> 0.59261265E+00</totfact>
</mgrwt>
</event>
<event>
 4    2  0.6914693E-007  0.8928821E+03  0.7818608E-02  0.9537556E-01
          2   -1    0    0  501    0  0.00000000000E+00  0.00000000000E+00  0.30734843982E+04  0.30734843982E+04  0.25500000000E-02 0. -1.
         -2   -1    0    0    0  501 -0.00000000000E+00 -0.00000000000E+00 -0.26931762067E+03  0.26931762068E+03  0.25500000000E-02 0.  1.
    8880023    1    1    2    0    0  0.13044179716E+02  0.60270895954E+03  0.66021500033E+03  0.11104603971E+04  0.65864270000E+03 0.  1.
    8880022    1    1    2    0    0 -0.13044179716E+02 -0.60270895954E+03  0.21439517772E+04  0.22323416219E+04  0.15294330000E+03 0.  0.
<mgrwt>
<rscale>  0 0.81570700E+03</rscale>
<asrwt>0</asrwt>
<pdfrwt beam="1">  1        2 0.47284378E+00 0.89288210E+03</pdfrwt>
<pdfrwt beam="2">  1       -2 0.41433478E-01 0.89288210E+03</pdfrwt>
<totfact> 0.89867159E+00</totfact>
</mgrwt>
</event>
<event>
 4    2  0.6914693E-007  0.6653098E+03  0.7818608E-02  0.1019275E+00
          2   -1    0    0  501    0  0.00000000000E+00  0.00000000000E+00  0.20088878543E+04  0.20088878543E+04  0.25500000000E-02 0. -1.
         -2   -1    0    0    0  501 -0.00000000000E+00 -0.00000000000E+00 -0.91218765193E+02  0.91218765229E+02  0.25500000000E-02 0.  1.
    8880023    1    1    2    0    0  0.22797972075E+02  0.91143599477E+02  0.16359976558E+04  0.17661045946E+04  0.65864270000E+03 0.  0.
    8880022    1    1    2    0    0 -0.22797972075E+02 -0.91143599477E+02  0.28167143332E+03  0.33400202487E+03  0.15294330000E+03 0.  0.
<mgrwt>
<rscale>  0 0.47949181E+03</rscale>
<asrwt>0</asrwt>
<pdfrwt beam="1">  1        2 0.30905967E+00 0.66530978E+03</pdfrwt>
<pdfrwt beam="2">  1       -2 0.14033656E-01 0.66530978E+03</pdfrwt>
<totfact> 0.26709936E+02</totfact>
</mgrwt>
</event>
<event>
 4    2  0.6914693E-007  0.6853296E+03  0.7818608E-02  0.1006456E+00
          2   -1    0    0  501    0  0.00000000000E+00  0.00000000000E+00  0.15746002724E+03  0.15746002726E+03  0.25500000000E-02 0. -1.
         -2   -1    0    0    0  501 -0.00000000000E+00 -0.00000000000E+00 -0.15502743282E+04  0.15502743282E+04  0.25500000000E-02 0.  1.
    8880023    1    1    2    0    0 -0.10985519547E+03  0.15426687577E+03 -0.12498910226E+04  0.14254487741E+04  0.65864270000E+03 0. -1.
    8880022    1    1    2    0    0  0.10985519547E+03 -0.15426687577E+03 -0.14292327836E+03  0.28228558136E+03  0.15294330000E+03 0.  0.
<mgrwt>
<rscale>  0 0.52907600E+03</rscale>
<asrwt>0</asrwt>
<pdfrwt beam="1">  1        2 0.24224621E-01 0.68532958E+03</pdfrwt>
<pdfrwt beam="2">  1       -2 0.23850373E+00 0.68532958E+03</pdfrwt>
<totfact> 0.17708262E+01</totfact>
</mgrwt>
</event>
<event>
 4    2  0.6914693E-007  0.7650823E+03  0.7818608E-02  0.9792123E-01
         -2   -1    0    0    0  501 -0.00000000000E+00  0.00000000000E+00  0.27278338696E+03  0.27278338697E+03  0.25500000000E-02 0.  1.
          2   -1    0    0  501    0  0.00000000000E+00 -0.00000000000E+00 -0.17929787362E+04  0.17929787362E+04  0.25500000000E-02 0. -1.
    8880023    1    1    2    0    0  0.38268317210E+03 -0.71374522369E+02 -0.14530399336E+04  0.16421558962E+04  0.65864270000E+03 0. -1.
    8880022    1    1    2    0    0 -0.38268317210E+03  0.71374522369E+02 -0.67155415672E+02  0.42360622696E+03  0.15294330000E+03 0.  0.
<mgrwt>
<rscale>  0 0.65786972E+03</rscale>
<asrwt>0</asrwt>
<pdfrwt beam="1">  1        2 0.27584288E+00 0.76508231E+03</pdfrwt>
<pdfrwt beam="2">  1       -2 0.41966676E-01 0.76508231E+03</pdfrwt>
<totfact> 0.48008336E+01</totfact>
</mgrwt>
</event>
<event>
 4    2  0.6914693E-007  0.7745185E+03  0.7818608E-02  0.9768874E-01
          2   -1    0    0  501    0  0.00000000000E+00  0.00000000000E+00  0.25833484631E+04  0.25833484631E+04  0.25500000000E-02 0. -1.
         -2   -1    0    0    0  501 -0.00000000000E+00 -0.00000000000E+00 -0.14270837690E+03  0.14270837693E+03  0.25500000000E-02 0.  1.
    8880023    1    1    2    0    0 -0.35340500415E+03  0.20291287192E+03  0.14465458613E+04  0.16408454728E+04  0.65864270000E+03 0.  0.
    8880022    1    1    2    0    0  0.35340500415E+03 -0.20291287192E+03  0.99409422491E+03  0.10852113672E+04  0.15294330000E+03 0.  0.
<mgrwt>
<rscale>  0 0.67060017E+03</rscale>
<asrwt>0</asrwt>
<pdfrwt beam="1">  1        2 0.39743823E+00 0.77451852E+03</pdfrwt>
<pdfrwt beam="2">  1       -2 0.21955135E-01 0.77451852E+03</pdfrwt>
<totfact> 0.58524914E+01</totfact>
</mgrwt>
</event>
<event>
 4    2  0.6914693E-007  0.7026966E+03  0.7818608E-02  0.9986193E-01
          2   -1    0    0  501    0  0.00000000000E+00  0.00000000000E+00  0.14987282197E+04  0.14987282197E+04  0.25500000000E-02 0. -1.
         -2   -1    0    0    0  501 -0.00000000000E+00 -0.00000000000E+00 -0.27772817652E+03  0.27772817653E+03  0.25500000000E-02 0.  1.
    8880023    1    1    2    0    0 -0.17194098180E+03 -0.17438079697E+03  0.22254799928E+03  0.73709577520E+03  0.65864270000E+03 0.  1.
    8880022    1    1    2    0    0  0.17194098180E+03  0.17438079697E+03  0.99845204394E+03  0.10393606211E+04  0.15294330000E+03 0.  0.
<mgrwt>
<rscale>  0 0.56259807E+03</rscale>
<asrwt>0</asrwt>
<pdfrwt beam="1">  1        2 0.23057357E+00 0.70269664E+03</pdfrwt>
<pdfrwt beam="2">  1       -2 0.42727412E-01 0.70269664E+03</pdfrwt>
<totfact> 0.67695863E+01</totfact>
</mgrwt>
</event>
<event>
 4    2  0.6914693E-007  0.7205978E+03  0.7818608E-02  0.9920568E-01
          2   -1    0    0  501    0  0.00000000000E+00  0.00000000000E+00  0.77690885505E+03  0.77690885505E+03  0.25500000000E-02 0. -1.
         -2   -1    0    0    0  501 -0.00000000000E+00 -0.00000000000E+00 -0.67404047923E+03  0.67404047924E+03  0.25500000000E-02 0.  1.
    8880023    1    1    2    0    0 -0.10693614637E+03  0.27205826381E+03 -0.41898817507E+03  0.83355403869E+03  0.65864270000E+03 0.  0.
    8880022    1    1    2    0    0  0.10693614637E+03 -0.27205826381E+03  0.52185655089E+03  0.61739529560E+03  0.15294330000E+03 0.  0.
<mgrwt>
<rscale>  0 0.59274736E+03</rscale>
<asrwt>0</asrwt>
<pdfrwt beam="1">  1        2 0.11952444E+00 0.72059784E+03</pdfrwt>
<pdfrwt beam="2">  1       -2 0.10369854E+00 0.72059784E+03</pdfrwt>
<totfact> 0.27578364E+01</totfact>
</mgrwt>
</event>
<event>
 4    2  0.6914693E-007  0.7131633E+03  0.7818608E-02  0.9946437E-01
         -2   -1    0    0    0  501 -0.00000000000E+00  0.00000000000E+00  0.22810604022E+03  0.22810604023E+03  0.25500000000E-02 0.  1.
          2   -1    0    0  501    0  0.00000000000E+00 -0.00000000000E+00 -0.26912649599E+04  0.26912649599E+04  0.25500000000E-02 0. -1.
    8880023    1    1    2    0    0 -0.27338286048E+03 -0.73133031385E+01 -0.37102790310E+03  0.80390520831E+03  0.65864270000E+03 0.  0.
    8880022    1    1    2    0    0  0.27338286048E+03  0.73133031385E+01 -0.20921310166E+04  0.21154657918E+04  0.15294330000E+03 0.  0.
<mgrwt>
<rscale>  0 0.58062596E+03</rscale>
<asrwt>0</asrwt>
<pdfrwt beam="1">  1        2 0.41404074E+00 0.71316329E+03</pdfrwt>
<pdfrwt beam="2">  1       -2 0.35093239E-01 0.71316329E+03</pdfrwt>
<totfact> 0.21637429E+01</totfact>
</mgrwt>
</event>
<event>
 4    2  0.6914693E-007  0.6638605E+03  0.7818608E-02  0.1020509E+00
         -2   -1    0    0    0  501 -0.00000000000E+00  0.00000000000E+00  0.69399479184E+03  0.69399479184E+03  0.25500000000E-02 0.  1.
          2   -1    0    0  501    0  0.00000000000E+00 -0.00000000000E+00 -0.13218157618E+04  0.13218157618E+04  0.25500000000E-02 0. -1.
    8880023    1    1    2    0    0  0.32816328513E+01  0.83004740693E+02  0.52721073608E+03  0.84773930108E+03  0.65864270000E+03 0.  1.
    8880022    1    1    2    0    0 -0.32816328513E+01 -0.83004740693E+02 -0.11550317061E+04  0.11680712526E+04  0.15294330000E+03 0.  0.
<mgrwt>
<rscale>  0 0.47503323E+03</rscale>
<asrwt>0</asrwt>
<pdfrwt beam="1">  1        2 0.20335627E+00 0.66386050E+03</pdfrwt>
<pdfrwt beam="2">  1       -2 0.10676843E+00 0.66386050E+03</pdfrwt>
<totfact> 0.11715886E+01</totfact>
</mgrwt>
</event>
<event>
 4    2  0.6914693E-007  0.8145284E+03  0.7818608E-02  0.9680220E-01
         -2   -1    0    0    0  501 -0.00000000000E+00  0.00000000000E+00  0.21877477828E+03  0.21877477830E+03  0.25500000000E-02 0.  1.
          2   -1    0    0  501    0  0.00000000000E+00 -0.00000000000E+00 -0.28773396469E+04  0.28773396469E+04  0.25500000000E-02 0. -1.
    8880023    1    1    2    0    0 -0.21582169680E+03  0.42786362757E+03 -0.70002405127E+03  0.10740065955E+04  0.65864270000E+03 0.  0.
    8880022    1    1    2    0    0  0.21582169680E+03 -0.42786362757E+03 -0.19585408173E+04  0.20221078297E+04  0.15294330000E+03 0.  0.
<mgrwt>
<rscale>  0 0.72206763E+03</rscale>
<asrwt>0</asrwt>
<pdfrwt beam="1">  1        2 0.44266761E+00 0.81452839E+03</pdfrwt>
<pdfrwt beam="2">  1       -2 0.33657660E-01 0.81452839E+03</pdfrwt>
<totfact> 0.17904601E+01</totfact>
</mgrwt>
</event>
<event>
 4    2  0.6914693E-007  0.9931639E+03  0.7818608E-02  0.9390556E-01
         -2   -1    0    0    0  501 -0.00000000000E+00  0.00000000000E+00  0.68796052802E+03  0.68796052803E+03  0.25500000000E-02 0.  1.
          2   -1    0    0  501    0  0.00000000000E+00 -0.00000000000E+00 -0.20500570310E+04  0.20500570310E+04  0.25500000000E-02 0. -1.
    8880023    1    1    2    0    0  0.16043942077E+03 -0.72582614228E+03  0.18920718462E+03  0.10110261923E+04  0.65864270000E+03 0.  0.
    8880022    1    1    2    0    0 -0.16043942077E+03  0.72582614228E+03 -0.15513036876E+04  0.17269913667E+04  0.15294330000E+03 0.  0.
<mgrwt>
<rscale>  0 0.92856941E+03</rscale>
<asrwt>0</asrwt>
<pdfrwt beam="1">  1        2 0.31539339E+00 0.99316394E+03</pdfrwt>
<pdfrwt beam="2">  1       -2 0.10584008E+00 0.99316394E+03</pdfrwt>
<totfact> 0.45255606E+00</totfact>
</mgrwt>
</event>
<event>
 4    2  0.6914693E-007  0.9735595E+03  0.7818608E-02  0.9416998E-01
         -2   -1    0    0    0  501 -0.00000000000E+00  0.00000000000E+00  0.79845681609E+03  0.79845681609E+03  0.25500000000E-02 0.  1.
          2   -1    0    0  501    0  0.00000000000E+00 -0.00000000000E+00 -0.15595850056E+04  0.15595850056E+04  0.25500000000E-02 0. -1.
    8880023    1    1    2    0    0 -0.65146444522E+02  0.71397743598E+03  0.34342688673E+03  0.10323565620E+04  0.65864270000E+03 0.  0.
    8880022    1    1    2    0    0  0.65146444522E+02 -0.71397743598E+03 -0.11045550762E+04  0.13256852597E+04  0.15294330000E+03 0.  0.
<mgrwt>
<rscale>  0 0.90689920E+03</rscale>
<asrwt>0</asrwt>
<pdfrwt beam="1">  1        2 0.23993615E+00 0.97355947E+03</pdfrwt>
<pdfrwt beam="2">  1       -2 0.12283951E+00 0.97355947E+03</pdfrwt>
<totfact> 0.58689362E+00</totfact>
</mgrwt>
</event>
<event>
 4    2  0.6914693E-007  0.7953297E+03  0.7818608E-02  0.9720987E-01
          2   -1    0    0  501    0  0.00000000000E+00  0.00000000000E+00  0.35833141460E+03  0.35833141461E+03  0.25500000000E-02 0. -1.
         -2   -1    0    0    0  501 -0.00000000000E+00 -0.00000000000E+00 -0.12210059418E+04  0.12210059418E+04  0.25500000000E-02 0.  1.
    8880023    1    1    2    0    0  0.29045239869E+02  0.44485440831E+03 -0.75342017488E+03  0.10955323988E+04  0.65864270000E+03 0.  0.
    8880022    1    1    2    0    0 -0.29045239869E+02 -0.44485440831E+03 -0.10925435235E+03  0.48380495768E+03  0.15294330000E+03 0.  1.
<mgrwt>
<rscale>  0 0.69780884E+03</rscale>
<asrwt>0</asrwt>
<pdfrwt beam="1">  1        2 0.55127910E-01 0.79532967E+03</pdfrwt>
<pdfrwt beam="2">  1       -2 0.18784707E+00 0.79532967E+03</pdfrwt>
<totfact> 0.14601635E+01</totfact>
</mgrwt>
</event>
<event>
 4    2  0.6914693E-007  0.8505487E+03  0.7818608E-02  0.9610602E-01
          2   -1    0    0  501    0  0.00000000000E+00  0.00000000000E+00  0.37878412606E+04  0.37878412606E+04  0.25500000000E-02 0. -1.
         -2   -1    0    0    0  501 -0.00000000000E+00 -0.00000000000E+00 -0.16570473339E+03  0.16570473341E+03  0.25500000000E-02 0.  1.
    8880023    1    1    2    0    0  0.65028270613E+02 -0.53422293988E+03  0.29935549565E+04  0.31120418232E+04  0.65864270000E+03 0.  0.
    8880022    1    1    2    0    0 -0.65028270613E+02  0.53422293988E+03  0.62858157079E+03  0.84150417089E+03  0.15294330000E+03 0.  0.
<mgrwt>
<rscale>  0 0.76598441E+03</rscale>
<asrwt>0</asrwt>
<pdfrwt beam="1">  1        2 0.58274477E+00 0.85054867E+03</pdfrwt>
<pdfrwt beam="2">  1       -2 0.25493038E-01 0.85054867E+03</pdfrwt>
<totfact> 0.74401071E+00</totfact>
</mgrwt>
</event>
<event>
 4    2  0.6914693E-007  0.9709194E+03  0.7818608E-02  0.9420634E-01
         -2   -1    0    0    0  501 -0.00000000000E+00  0.00000000000E+00  0.47040226773E+03  0.47040226773E+03  0.25500000000E-02 0.  1.
          2   -1    0    0  501    0  0.00000000000E+00 -0.00000000000E+00 -0.26902653047E+04  0.26902653047E+04  0.25500000000E-02 0. -1.
    8880023    1    1    2    0    0  0.15491899550E+03 -0.69632916801E+03 -0.17109862394E+03  0.98587988658E+03  0.65864270000E+03 0.  1.
    8880022    1    1    2    0    0 -0.15491899550E+03  0.69632916801E+03 -0.20487644130E+04  0.21747876859E+04  0.15294330000E+03 0.  0.
<mgrwt>
<rscale>  0 0.90396881E+03</rscale>
<asrwt>0</asrwt>
<pdfrwt beam="1">  1        2 0.41388696E+00 0.97091936E+03</pdfrwt>
<pdfrwt beam="2">  1       -2 0.72369581E-01 0.97091936E+03</pdfrwt>
<totfact> 0.47380363E+00</totfact>
</mgrwt>
</event>
<event>
 4    2  0.6914693E-007  0.6741386E+03  0.7818608E-02  0.1012855E+00
          2   -1    0    0  501    0  0.00000000000E+00  0.00000000000E+00  0.47278388983E+03  0.47278388984E+03  0.25500000000E-02 0. -1.
         -2   -1    0    0    0  501 -0.00000000000E+00 -0.00000000000E+00 -0.50002422436E+03  0.50002422436E+03  0.25500000000E-02 0.  1.
    8880023    1    1    2    0    0  0.89320607989E+02  0.11258111340E+03 -0.19759758221E+03  0.70250102410E+03  0.65864270000E+03 0.  1.
    8880022    1    1    2    0    0 -0.89320607989E+02 -0.11258111340E+03  0.17035724768E+03  0.27030709010E+03  0.15294330000E+03 0.  0.
<mgrwt>
<rscale>  0 0.50355645E+03</rscale>
<asrwt>0</asrwt>
<pdfrwt beam="1">  1        2 0.72735983E-01 0.67413862E+03</pdfrwt>
<pdfrwt beam="2">  1       -2 0.76926804E-01 0.67413862E+03</pdfrwt>
<totfact> 0.10066000E+02</totfact>
</mgrwt>
</event>
<event>
 4    2  0.6914693E-007  0.6604660E+03  0.7818608E-02  0.1023684E+00
          2   -1    0    0  501    0  0.00000000000E+00  0.00000000000E+00  0.32628078572E+03  0.32628078573E+03  0.25500000000E-02 0. -1.
         -2   -1    0    0    0  501 -0.00000000000E+00 -0.00000000000E+00 -0.59419093855E+03  0.59419093855E+03  0.25500000000E-02 0.  1.
    8880023    1    1    2    0    0  0.30151049173E+02 -0.38678945672E+02 -0.34180943966E+03  0.74367267390E+03  0.65864270000E+03 0.  1.
    8880022    1    1    2    0    0 -0.30151049173E+02  0.38678945672E+02  0.73899286834E+02  0.17679905038E+03  0.15294330000E+03 0.  0.
<mgrwt>
<rscale>  0 0.46380303E+03</rscale>
<asrwt>0</asrwt>
<pdfrwt beam="1">  1        2 0.50197044E-01 0.66046601E+03</pdfrwt>
<pdfrwt beam="2">  1       -2 0.91413991E-01 0.66046601E+03</pdfrwt>
<totfact> 0.10334882E+02</totfact>
</mgrwt>
</event>
<event>
 4    2  0.6914693E-007  0.8388694E+03  0.7818608E-02  0.9632316E-01
          2   -1    0    0  501    0  0.00000000000E+00  0.00000000000E+00  0.26820786631E+04  0.26820786631E+04  0.25500000000E-02 0. -1.
         -2   -1    0    0    0  501 -0.00000000000E+00 -0.00000000000E+00 -0.45737299035E+03  0.45737299036E+03  0.25500000000E-02 0.  1.
    8880023    1    1    2    0    0 -0.38035965439E+03  0.35386174667E+03 -0.11150903955E+02  0.83894347329E+03  0.65864270000E+03 0.  1.
    8880022    1    1    2    0    0  0.38035965439E+03 -0.35386174667E+03  0.22358565767E+04  0.23005081801E+04  0.15294330000E+03 0. -1.
<mgrwt>
<rscale>  0 0.75193735E+03</rscale>
<asrwt>0</asrwt>
<pdfrwt beam="1">  1        2 0.41262749E+00 0.83886936E+03</pdfrwt>
<pdfrwt beam="2">  1       -2 0.70365075E-01 0.83886936E+03</pdfrwt>
<totfact> 0.51984483E+00</totfact>
</mgrwt>
</event>
<event>
 4    2  0.6914693E-007  0.7048040E+03  0.7818608E-02  0.9977827E-01
          2   -1    0    0  501    0  0.00000000000E+00  0.00000000000E+00  0.47684685311E+04  0.47684685311E+04  0.25500000000E-02 0. -1.
         -2   -1    0    0    0  501 -0.00000000000E+00 -0.00000000000E+00 -0.59818478379E+02  0.59818478434E+02  0.25500000000E-02 0.  1.
    8880023    1    1    2    0    0 -0.21839800806E+03 -0.12345367528E+03  0.24103481770E+04  0.25112799606E+04  0.65864270000E+03 0.  1.
    8880022    1    1    2    0    0  0.21839800806E+03  0.12345367528E+03  0.22983018757E+04  0.23170070490E+04  0.15294330000E+03 0.  0.
<mgrwt>
<rscale>  0 0.56633264E+03</rscale>
<asrwt>0</asrwt>
<pdfrwt beam="1">  1        2 0.73361049E+00 0.70480402E+03</pdfrwt>
<pdfrwt beam="2">  1       -2 0.92028435E-02 0.70480402E+03</pdfrwt>
<totfact> 0.59040952E+00</totfact>
</mgrwt>
</event>
<event>
 4    2  0.6914693E-007  0.6910096E+03  0.7818608E-02  0.1003676E+00
          2   -1    0    0  501    0  0.00000000000E+00  0.00000000000E+00  0.16441512633E+04  0.16441512633E+04  0.25500000000E-02 0. -1.
         -2   -1    0    0    0  501 -0.00000000000E+00 -0.00000000000E+00 -0.36948956525E+03  0.36948956526E+03  0.25500000000E-02 0.  1.
    8880023    1    1    2    0    0  0.63044054202E+02  0.19927240317E+03 -0.22007506556E+02  0.69135994969E+03  0.65864270000E+03 0.  1.
    8880022    1    1    2    0    0 -0.63044054202E+02 -0.19927240317E+03  0.12966692046E+04  0.13222808789E+04  0.15294330000E+03 0.  0.
<mgrwt>
<rscale>  0 0.54067178E+03</rscale>
<asrwt>0</asrwt>
<pdfrwt beam="1">  1        2 0.25294634E+00 0.69100959E+03</pdfrwt>
<pdfrwt beam="2">  1       -2 0.56844550E-01 0.69100959E+03</pdfrwt>
<totfact> 0.31587626E+01</totfact>
</mgrwt>
</event>
<event>
 4    2  0.6914693E-007  0.7155020E+03  0.7818608E-02  0.9938110E-01
          2   -1    0    0  501    0  0.00000000000E+00  0.00000000000E+00  0.60533354119E+03  0.60533354119E+03  0.25500000000E-02 0. -1.
         -2   -1    0    0    0  501 -0.00000000000E+00 -0.00000000000E+00 -0.15307463110E+04  0.15307463110E+04  0.25500000000E-02 0.  1.
    8880023    1    1    2    0    0  0.20740456478E+03  0.18739321409E+03 -0.13954694540E+04  0.15682085555E+04  0.65864270000E+03 0.  1.
    8880022    1    1    2    0    0 -0.20740456478E+03 -0.18739321409E+03  0.47005668423E+03  0.56787129667E+03  0.15294330000E+03 0.  0.
<mgrwt>
<rscale>  0 0.58449325E+03</rscale>
<asrwt>0</asrwt>
<pdfrwt beam="1">  1        2 0.93128238E-01 0.71550198E+03</pdfrwt>
<pdfrwt beam="2">  1       -2 0.23549943E+00 0.71550198E+03</pdfrwt>
<totfact> 0.39991525E+00</totfact>
</mgrwt>
</event>
<event>
 4    2  0.6914693E-007  0.7064383E+03  0.7818608E-02  0.9971473E-01
         -2   -1    0    0    0  501 -0.00000000000E+00  0.00000000000E+00  0.13612214610E+04  0.13612214610E+04  0.25500000000E-02 0.  1.
          2   -1    0    0  501    0  0.00000000000E+00 -0.00000000000E+00 -0.49316318121E+03  0.49316318122E+03  0.25500000000E-02 0. -1.
    8880023    1    1    2    0    0  0.25434030762E+03  0.23576533372E+02  0.12099198485E+04  0.14010571334E+04  0.65864270000E+03 0.  1.
    8880022    1    1    2    0    0 -0.25434030762E+03 -0.23576533372E+02 -0.34186156876E+03  0.45332750877E+03  0.15294330000E+03 0.  0.
<mgrwt>
<rscale>  0 0.56918998E+03</rscale>
<asrwt>0</asrwt>
<pdfrwt beam="1">  1        2 0.75871259E-01 0.70643829E+03</pdfrwt>
<pdfrwt beam="2">  1       -2 0.20941869E+00 0.70643829E+03</pdfrwt>
<totfact> 0.74162007E+00</totfact>
</mgrwt>
</event>
<event>
 4    2  0.6914693E-007  0.7207964E+03  0.7818608E-02  0.9919900E-01
          2   -1    0    0  501    0  0.00000000000E+00  0.00000000000E+00  0.39411483553E+03  0.39411483554E+03  0.25500000000E-02 0. -1.
         -2   -1    0    0    0  501 -0.00000000000E+00 -0.00000000000E+00 -0.10347213367E+04  0.10347213367E+04  0.25500000000E-02 0.  1.
    8880023    1    1    2    0    0 -0.14325304630E+03  0.25537392606E+03 -0.78726686456E+03  0.10673971143E+04  0.65864270000E+03 0.  0.
    8880022    1    1    2    0    0  0.14325304630E+03 -0.25537392606E+03  0.14666036338E+03  0.36143905792E+03  0.15294330000E+03 0.  0.
<mgrwt>
<rscale>  0 0.59306454E+03</rscale>
<asrwt>0</asrwt>
<pdfrwt beam="1">  1        2 0.60633052E-01 0.72079642E+03</pdfrwt>
<pdfrwt beam="2">  1       -2 0.15918790E+00 0.72079642E+03</pdfrwt>
<totfact> 0.20983576E+01</totfact>
</mgrwt>
</event>
<event>
 4    2  0.6914693E-007  0.8168235E+03  0.7818608E-02  0.9675535E-01
         -2   -1    0    0    0  501 -0.00000000000E+00  0.00000000000E+00  0.39149862080E+03  0.39149862081E+03  0.25500000000E-02 0.  1.
          2   -1    0    0  501    0  0.00000000000E+00 -0.00000000000E+00 -0.18272649956E+04  0.18272649956E+04  0.25500000000E-02 0. -1.
    8880023    1    1    2    0    0 -0.34634667306E+03  0.33680016883E+03 -0.14170538800E+03  0.82902412203E+03  0.65864270000E+03 0.  0.
    8880022    1    1    2    0    0  0.34634667306E+03 -0.33680016883E+03 -0.12940609868E+04  0.13897394944E+04  0.15294330000E+03 0.  0.
<mgrwt>
<rscale>  0 0.72492276E+03</rscale>
<asrwt>0</asrwt>
<pdfrwt beam="1">  1        2 0.28111769E+00 0.81682347E+03</pdfrwt>
<pdfrwt beam="2">  1       -2 0.60230558E-01 0.81682347E+03</pdfrwt>
<totfact> 0.21868359E+01</totfact>
</mgrwt>
</event>
<event>
 4    2  0.6914693E-007  0.7891494E+03  0.7818608E-02  0.9734768E-01
         -2   -1    0    0    0  501 -0.00000000000E+00  0.00000000000E+00  0.11425594566E+04  0.11425594566E+04  0.25500000000E-02 0.  1.
          2   -1    0    0  501    0  0.00000000000E+00 -0.00000000000E+00 -0.40830059002E+03  0.40830059003E+03  0.25500000000E-02 0. -1.
    8880023    1    1    2    0    0  0.73426513736E+02  0.42843334284E+03  0.75150963185E+03  0.10897355253E+04  0.65864270000E+03 0.  1.
    8880022    1    1    2    0    0 -0.73426513736E+02 -0.42843334284E+03 -0.17250765308E+02  0.46112452124E+03  0.15294330000E+03 0.  0.
<mgrwt>
<rscale>  0 0.68983933E+03</rscale>
<asrwt>0</asrwt>
<pdfrwt beam="1">  1        2 0.62815477E-01 0.78914941E+03</pdfrwt>
<pdfrwt beam="2">  1       -2 0.17577837E+00 0.78914941E+03</pdfrwt>
<totfact> 0.15252248E+01</totfact>
</mgrwt>
</event>
<event>
 4    2  0.6914693E-007  0.8042849E+03  0.7818608E-02  0.9701607E-01
         -2   -1    0    0    0  501 -0.00000000000E+00  0.00000000000E+00  0.36444281141E+03  0.36444281142E+03  0.25500000000E-02 0.  1.
          2   -1    0    0  501    0  0.00000000000E+00 -0.00000000000E+00 -0.20165373648E+04  0.20165373648E+04  0.25500000000E-02 0. -1.
    8880023    1    1    2    0    0  0.30094763960E+03 -0.34999213300E+03 -0.17121401604E+03  0.82230676788E+03  0.65864270000E+03 0.  1.
    8880022    1    1    2    0    0 -0.30094763960E+03  0.34999213300E+03 -0.14808805373E+04  0.15586734083E+04  0.15294330000E+03 0.  0.
<mgrwt>
<rscale>  0 0.70921210E+03</rscale>
<asrwt>0</asrwt>
<pdfrwt beam="1">  1        2 0.31023651E+00 0.80428489E+03</pdfrwt>
<pdfrwt beam="2">  1       -2 0.56068126E-01 0.80428489E+03</pdfrwt>
<totfact> 0.20061714E+01</totfact>
</mgrwt>
</event>
<event>
 4    2  0.6914693E-007  0.1041093E+04  0.7818608E-02  0.9329666E-01
         -2   -1    0    0    0  501 -0.00000000000E+00  0.00000000000E+00  0.69611586989E+03  0.69611586989E+03  0.25500000000E-02 0.  1.
          2   -1    0    0  501    0  0.00000000000E+00 -0.00000000000E+00 -0.22804128716E+04  0.22804128716E+04  0.25500000000E-02 0. -1.
    8880023    1    1    2    0    0 -0.68063704635E+03 -0.43220197145E+03  0.15574415088E+03  0.10526783838E+04  0.65864270000E+03 0.  1.
    8880022    1    1    2    0    0  0.68063704635E+03  0.43220197145E+03 -0.17400411526E+04  0.19238503577E+04  0.15294330000E+03 0.  0.
<mgrwt>
<rscale>  0 0.98097065E+03</rscale>
<asrwt>0</asrwt>
<pdfrwt beam="1">  1        2 0.35083275E+00 0.10410934E+04</pdfrwt>
<pdfrwt beam="2">  1       -2 0.10709475E+00 0.10410934E+04</pdfrwt>
<totfact> 0.32559601E+00</totfact>
</mgrwt>
</event>
<event>
 4    2  0.6914693E-007  0.1062257E+04  0.7818608E-02  0.9304290E-01
         -2   -1    0    0    0  501 -0.00000000000E+00  0.00000000000E+00  0.54336266784E+03  0.54336266784E+03  0.25500000000E-02 0.  1.
          2   -1    0    0  501    0  0.00000000000E+00 -0.00000000000E+00 -0.21951734205E+04  0.21951734205E+04  0.25500000000E-02 0. -1.
    8880023    1    1    2    0    0  0.78527705651E+03 -0.27913974433E+03 -0.23540442178E+03  0.10880278031E+04  0.65864270000E+03 0.  0.
    8880022    1    1    2    0    0 -0.78527705651E+03  0.27913974433E+03 -0.14164063309E+04  0.16505082852E+04  0.15294330000E+03 0.  0.
<mgrwt>
<rscale>  0 0.10038884E+04</rscale>
<asrwt>0</asrwt>
<pdfrwt beam="1">  1        2 0.33771898E+00 0.10622567E+04</pdfrwt>
<pdfrwt beam="2">  1       -2 0.83594258E-01 0.10622567E+04</pdfrwt>
<totfact> 0.64853537E+00</totfact>
</mgrwt>
</event>
<event>
 4    2  0.6914693E-007  0.6720091E+03  0.7818608E-02  0.1014262E+00
         -2   -1    0    0    0  501 -0.00000000000E+00  0.00000000000E+00  0.26868077611E+03  0.26868077613E+03  0.25500000000E-02 0.  1.
          2   -1    0    0  501    0  0.00000000000E+00 -0.00000000000E+00 -0.35080430638E+04  0.35080430638E+04  0.25500000000E-02 0. -1.
    8880023    1    1    2    0    0 -0.11047398994E+03  0.74709577128E+02 -0.16014513356E+03  0.69082754247E+03  0.65864270000E+03 0.  1.
    8880022    1    1    2    0    0  0.11047398994E+03 -0.74709577128E+02 -0.30792171541E+04  0.30858962974E+04  0.15294330000E+03 0.  0.
<mgrwt>
<rscale>  0 0.49815454E+03</rscale>
<asrwt>0</asrwt>
<pdfrwt beam="1">  1        2 0.53969890E+00 0.67200910E+03</pdfrwt>
<pdfrwt beam="2">  1       -2 0.41335506E-01 0.67200910E+03</pdfrwt>
<totfact> 0.49080254E+00</totfact>
</mgrwt>
</event>
<event>
 4    2  0.6914693E-007  0.8033767E+03  0.7818608E-02  0.9703542E-01
          2   -1    0    0  501    0  0.00000000000E+00  0.00000000000E+00  0.76199703772E+03  0.76199703773E+03  0.25500000000E-02 0. -1.
         -2   -1    0    0    0  501 -0.00000000000E+00 -0.00000000000E+00 -0.79806002438E+03  0.79806002438E+03  0.25500000000E-02 0.  1.
    8880023    1    1    2    0    0 -0.33209973805E+03  0.31829800837E+03 -0.45156837259E+03  0.92158996280E+03  0.65864270000E+03 0.  1.
    8880022    1    1    2    0    0  0.33209973805E+03 -0.31829800837E+03  0.41550538594E+03  0.63846709931E+03  0.15294330000E+03 0.  0.
<mgrwt>
<rscale>  0 0.70806293E+03</rscale>
<asrwt>0</asrwt>
<pdfrwt beam="1">  1        2 0.11723031E+00 0.80337666E+03</pdfrwt>
<pdfrwt beam="2">  1       -2 0.12277846E+00 0.80337666E+03</pdfrwt>
<totfact> 0.18593984E+01</totfact>
</mgrwt>
</event>
<event>
 4    2  0.6914693E-007  0.7228330E+03  0.7818608E-02  0.9913114E-01
         -2   -1    0    0    0  501 -0.00000000000E+00  0.00000000000E+00  0.27089747352E+03  0.27089747353E+03  0.25500000000E-02 0.  1.
          2   -1    0    0  501    0  0.00000000000E+00 -0.00000000000E+00 -0.12621600188E+04  0.12621600188E+04  0.25500000000E-02 0. -1.
    8880023    1    1    2    0    0  0.25873546326E+03  0.14742227257E+03 -0.33573728058E+03  0.79699880441E+03  0.65864270000E+03 0.  1.
    8880022    1    1    2    0    0 -0.25873546326E+03 -0.14742227257E+03 -0.65552526471E+03  0.73605868794E+03  0.15294330000E+03 0.  0.
<mgrwt>
<rscale>  0 0.59629914E+03</rscale>
<asrwt>0</asrwt>
<pdfrwt beam="1">  1        2 0.19417846E+00 0.72283302E+03</pdfrwt>
<pdfrwt beam="2">  1       -2 0.41676535E-01 0.72283302E+03</pdfrwt>
<totfact> 0.96638962E+01</totfact>
</mgrwt>
</event>
<event>
 4    2  0.6914693E-007  0.9585910E+03  0.7818608E-02  0.9437860E-01
         -2   -1    0    0    0  501 -0.00000000000E+00  0.00000000000E+00  0.83334450573E+03  0.83334450573E+03  0.25500000000E-02 0.  1.
          2   -1    0    0  501    0  0.00000000000E+00 -0.00000000000E+00 -0.11458305777E+04  0.11458305777E+04  0.25500000000E-02 0. -1.
    8880023    1    1    2    0    0 -0.69619129289E+03  0.20103304477E+02  0.33555175136E+03  0.10156237705E+04  0.65864270000E+03 0.  1.
    8880022    1    1    2    0    0  0.69619129289E+03 -0.20103304477E+02 -0.64803782336E+03  0.96355131294E+03  0.15294330000E+03 0.  0.
<mgrwt>
<rscale>  0 0.89024396E+03</rscale>
<asrwt>0</asrwt>
<pdfrwt beam="1">  1        2 0.17628163E+00 0.95859098E+03</pdfrwt>
<pdfrwt beam="2">  1       -2 0.12820685E+00 0.95859098E+03</pdfrwt>
<totfact> 0.91500877E+00</totfact>
</mgrwt>
</event>
<event>
 4    2  0.6914693E-007  0.6653972E+03  0.7818608E-02  0.1019203E+00
          2   -1    0    0  501    0  0.00000000000E+00  0.00000000000E+00  0.22503667528E+04  0.22503667528E+04  0.25500000000E-02 0. -1.
         -2   -1    0    0    0  501 -0.00000000000E+00 -0.00000000000E+00 -0.11612752125E+03  0.11612752128E+03  0.25500000000E-02 0.  1.
    8880023    1    1    2    0    0  0.60606207171E+02 -0.72595185285E+02  0.90021533386E+03  0.11194378173E+04  0.65864270000E+03 0.  1.
    8880022    1    1    2    0    0 -0.60606207171E+02  0.72595185285E+02  0.12340238977E+04  0.12470564568E+04  0.15294330000E+03 0.  0.
<mgrwt>
<rscale>  0 0.47975502E+03</rscale>
<asrwt>0</asrwt>
<pdfrwt beam="1">  1        2 0.34621028E+00 0.66539716E+03</pdfrwt>
<pdfrwt beam="2">  1       -2 0.17865772E-01 0.66539716E+03</pdfrwt>
<totfact> 0.13077277E+02</totfact>
</mgrwt>
</event>
<event>
 4    2  0.6914693E-007  0.6611440E+03  0.7818608E-02  0.1023014E+00
         -2   -1    0    0    0  501 -0.00000000000E+00  0.00000000000E+00  0.25478814188E+03  0.25478814189E+03  0.25500000000E-02 0.  1.
          2   -1    0    0  501    0  0.00000000000E+00 -0.00000000000E+00 -0.27144853418E+04  0.27144853418E+04  0.25500000000E-02 0. -1.
    8880023    1    1    2    0    0 -0.35879622650E+02 -0.44875467761E+02 -0.18201761685E+03  0.68574176921E+03  0.65864270000E+03 0.  1.
    8880022    1    1    2    0    0  0.35879622650E+02  0.44875467761E+02 -0.22776795831E+04  0.22835317145E+04  0.15294330000E+03 0.  0.
<mgrwt>
<rscale>  0 0.46614531E+03</rscale>
<asrwt>0</asrwt>
<pdfrwt beam="1">  1        2 0.41761311E+00 0.66114398E+03</pdfrwt>
<pdfrwt beam="2">  1       -2 0.39198178E-01 0.66114398E+03</pdfrwt>
<totfact> 0.17115394E+01</totfact>
</mgrwt>
</event>
<event>
 4    2  0.6914693E-007  0.7570002E+03  0.7818608E-02  0.9812936E-01
         -2   -1    0    0    0  501 -0.00000000000E+00  0.00000000000E+00  0.48841143799E+03  0.48841143800E+03  0.25500000000E-02 0.  1.
          2   -1    0    0  501    0  0.00000000000E+00 -0.00000000000E+00 -0.11939705538E+04  0.11939705538E+04  0.25500000000E-02 0. -1.
    8880023    1    1    2    0    0 -0.35909601619E+03 -0.10143572957E+03  0.11728184866E+03  0.76603158836E+03  0.65864270000E+03 0.  1.
    8880022    1    1    2    0    0  0.35909601619E+03  0.10143572957E+03 -0.82284096450E+03  0.91635040348E+03  0.15294330000E+03 0.  0.
<mgrwt>
<rscale>  0 0.64672904E+03</rscale>
<asrwt>0</asrwt>
<pdfrwt beam="1">  1        2 0.18368778E+00 0.75700024E+03</pdfrwt>
<pdfrwt beam="2">  1       -2 0.75140221E-01 0.75700024E+03</pdfrwt>
<totfact> 0.30912424E+01</totfact>
</mgrwt>
</event>
<event>
 4    2  0.6914693E-007  0.8036104E+03  0.7818608E-02  0.9703043E-01
         -2   -1    0    0    0  501 -0.00000000000E+00  0.00000000000E+00  0.84761140032E+03  0.84761140032E+03  0.25500000000E-02 0.  1.
          2   -1    0    0  501    0  0.00000000000E+00 -0.00000000000E+00 -0.11755080918E+04  0.11755080918E+04  0.25500000000E-02 0. -1.
    8880023    1    1    2    0    0 -0.18533672510E+03  0.42146152305E+03  0.58182069293E+03  0.99212148554E+03  0.65864270000E+03 0.  1.
    8880022    1    1    2    0    0  0.18533672510E+03 -0.42146152305E+03 -0.90971738446E+03  0.10309980066E+04  0.15294330000E+03 0.  0.
<mgrwt>
<rscale>  0 0.70835886E+03</rscale>
<asrwt>0</asrwt>
<pdfrwt beam="1">  1        2 0.18084740E+00 0.80361043E+03</pdfrwt>
<pdfrwt beam="2">  1       -2 0.13040175E+00 0.80361043E+03</pdfrwt>
<totfact> 0.85534515E+00</totfact>
</mgrwt>
</event>
<event>
 4    2  0.6914693E-007  0.9939249E+03  0.7818608E-02  0.9389549E-01
         -2   -1    0    0    0  501 -0.00000000000E+00  0.00000000000E+00  0.15562047865E+04  0.15562047865E+04  0.25500000000E-02 0.  1.
          2   -1    0    0  501    0  0.00000000000E+00 -0.00000000000E+00 -0.92152469953E+03  0.92152469953E+03  0.25500000000E-02 0. -1.
    8880023    1    1    2    0    0 -0.57563253209E+03  0.47193614480E+03  0.11796896996E+04  0.15425804778E+04  0.65864270000E+03 0.  0.
    8880022    1    1    2    0    0  0.57563253209E+03 -0.47193614480E+03 -0.54500961263E+03  0.93514900826E+03  0.15294330000E+03 0.  0.
<mgrwt>
<rscale>  0 0.92940754E+03</rscale>
<asrwt>0</asrwt>
<pdfrwt beam="1">  1        2 0.14177303E+00 0.99392492E+03</pdfrwt>
<pdfrwt beam="2">  1       -2 0.23941612E+00 0.99392492E+03</pdfrwt>
<totfact> 0.21108346E+00</totfact>
</mgrwt>
</event>
<event>
 4    2  0.6914693E-007  0.1223606E+04  0.7818608E-02  0.9134511E-01
         -2   -1    0    0    0  501 -0.00000000000E+00  0.00000000000E+00  0.13540017585E+04  0.13540017585E+04  0.25500000000E-02 0.  1.
          2   -1    0    0  501    0  0.00000000000E+00 -0.00000000000E+00 -0.19511113112E+04  0.19511113112E+04  0.25500000000E-02 0. -1.
    8880023    1    1    2    0    0 -0.43967928502E+03 -0.93278237800E+03  0.87284106039E+03  0.15030178180E+04  0.65864270000E+03 0.  0.
    8880022    1    1    2    0    0  0.43967928502E+03  0.93278237800E+03 -0.14699506131E+04  0.18020952517E+04  0.15294330000E+03 0.  0.
<mgrwt>
<rscale>  0 0.11755726E+04</rscale>
<asrwt>0</asrwt>
<pdfrwt beam="1">  1        2 0.30017097E+00 0.12236058E+04</pdfrwt>
<pdfrwt beam="2">  1       -2 0.20830796E+00 0.12236058E+04</pdfrwt>
<totfact> 0.80870585E-01</totfact>
</mgrwt>
</event>
<event>
 4    2  0.6914693E-007  0.8639700E+03  0.7818608E-02  0.9586540E-01
          2   -1    0    0  501    0  0.00000000000E+00  0.00000000000E+00  0.16364142214E+04  0.16364142214E+04  0.25500000000E-02 0. -1.
         -2   -1    0    0    0  501 -0.00000000000E+00 -0.00000000000E+00 -0.80668346648E+03  0.80668346649E+03  0.25500000000E-02 0.  1.
    8880023    1    1    2    0    0 -0.45702024745E+03  0.32212793664E+03 -0.49596553681E+03  0.99620576896E+03  0.65864270000E+03 0.  0.
    8880022    1    1    2    0    0  0.45702024745E+03 -0.32212793664E+03  0.13256962918E+04  0.14468919189E+04  0.15294330000E+03 0.  0.
<mgrwt>
<rscale>  0 0.78193478E+03</rscale>
<asrwt>0</asrwt>
<pdfrwt beam="1">  1        2 0.25175603E+00 0.86396998E+03</pdfrwt>
<pdfrwt beam="2">  1       -2 0.12410515E+00 0.86396998E+03</pdfrwt>
<totfact> 0.52546284E+00</totfact>
</mgrwt>
</event>
<event>
 4    2  0.6914693E-007  0.7281406E+03  0.7818608E-02  0.9895946E-01
         -2   -1    0    0    0  501 -0.00000000000E+00  0.00000000000E+00  0.84319088081E+03  0.84319088081E+03  0.25500000000E-02 0.  1.
          2   -1    0    0  501    0  0.00000000000E+00 -0.00000000000E+00 -0.87755300135E+03  0.87755300135E+03  0.25500000000E-02 0. -1.
    8880023    1    1    2    0    0 -0.31033227785E+03  0.85132758218E+01  0.63569531213E+03  0.96659057241E+03  0.65864270000E+03 0.  0.
    8880022    1    1    2    0    0  0.31033227785E+03 -0.85132758218E+01 -0.67005743266E+03  0.75415330976E+03  0.15294330000E+03 0.  0.
<mgrwt>
<rscale>  0 0.60458181E+03</rscale>
<asrwt>0</asrwt>
<pdfrwt beam="1">  1        2 0.13500815E+00 0.72814065E+03</pdfrwt>
<pdfrwt beam="2">  1       -2 0.12972167E+00 0.72814065E+03</pdfrwt>
<totfact> 0.13505914E+01</totfact>
</mgrwt>
</event>
<event>
 4    2  0.6914693E-007  0.6737478E+03  0.7818608E-02  0.1013107E+00
         -2   -1    0    0    0  501 -0.00000000000E+00  0.00000000000E+00  0.15441868933E+03  0.15441868936E+03  0.25500000000E-02 0.  1.
          2   -1    0    0  501    0  0.00000000000E+00 -0.00000000000E+00 -0.26047702850E+04  0.26047702850E+04  0.25500000000E-02 0. -1.
    8880023    1    1    2    0    0  0.11147665199E+03  0.87743415061E+02 -0.61565356575E+03  0.91266941995E+03  0.65864270000E+03 0.  0.
    8880022    1    1    2    0    0 -0.11147665199E+03 -0.87743415061E+02 -0.18346980299E+04  0.18465195544E+04  0.15294330000E+03 0. -1.
<mgrwt>
<rscale>  0 0.50258111E+03</rscale>
<asrwt>0</asrwt>
<pdfrwt beam="1">  1        2 0.40073386E+00 0.67374784E+03</pdfrwt>
<pdfrwt beam="2">  1       -2 0.23756723E-01 0.67374784E+03</pdfrwt>
<totfact> 0.50137718E+01</totfact>
</mgrwt>
</event>
<event>
 4    2  0.6914693E-007  0.6588752E+03  0.7818608E-02  0.1025340E+00
         -2   -1    0    0    0  501 -0.00000000000E+00  0.00000000000E+00  0.68275375327E+03  0.68275375328E+03  0.25500000000E-02 0.  1.
          2   -1    0    0  501    0  0.00000000000E+00 -0.00000000000E+00 -0.10091790050E+04  0.10091790050E+04  0.25500000000E-02 0. -1.
    8880023    1    1    2    0    0 -0.25535049171E+01 -0.17315020066E+02  0.51517188165E+03  0.83637228804E+03  0.65864270000E+03 0.  1.
    8880022    1    1    2    0    0  0.25535049171E+01  0.17315020066E+02 -0.84159713333E+03  0.85556047019E+03  0.15294330000E+03 0.  0.
<mgrwt>
<rscale>  0 0.45807996E+03</rscale>
<asrwt>0</asrwt>
<pdfrwt beam="1">  1        2 0.15525831E+00 0.65887521E+03</pdfrwt>
<pdfrwt beam="2">  1       -2 0.10503904E+00 0.65887521E+03</pdfrwt>
<totfact> 0.18747956E+01</totfact>
</mgrwt>
</event>
<event>
 4    2  0.1034119E-006  0.6998116E+03  0.7818608E-02  0.9997983E-01
         -2   -1    0    0    0  501 -0.00000000000E+00  0.00000000000E+00  0.88639080403E+03  0.88639080403E+03  0.25500000000E-02 0.  1.
          2   -1    0    0  501    0  0.00000000000E+00 -0.00000000000E+00 -0.18863404771E+04  0.18863404771E+04  0.25500000000E-02 0. -1.
    8880023    1    1    2    0    0  0.14241461492E+03  0.18879675333E+03  0.73511763725E+03  0.10149553111E+04  0.65864270000E+03 0.  1.
    8880022    1    1    2    0    0 -0.14241461492E+03 -0.18879675333E+03 -0.17350673104E+04  0.17577759701E+04  0.15294330000E+03 0.  0.
<mgrwt>
<rscale>  0 0.55738747E+03</rscale>
<asrwt>0</asrwt>
<pdfrwt beam="1">  1        2 0.29020623E+00 0.69981165E+03</pdfrwt>
<pdfrwt beam="2">  1       -2 0.13636782E+00 0.69981165E+03</pdfrwt>
<totfact> 0.31002644E+00</totfact>
</mgrwt>
</event>
<event>
 4    2  0.6914693E-007  0.8432841E+03  0.7818608E-02  0.9624019E-01
         -2   -1    0    0    0  501 -0.00000000000E+00  0.00000000000E+00  0.57358269304E+03  0.57358269305E+03  0.25500000000E-02 0.  1.
          2   -1    0    0  501    0  0.00000000000E+00 -0.00000000000E+00 -0.11724929353E+04  0.11724929353E+04  0.25500000000E-02 0. -1.
    8880023    1    1    2    0    0  0.40826835161E+03  0.33261801908E+03  0.10934550778E+03  0.85034371867E+03  0.65864270000E+03 0.  0.
    8880022    1    1    2    0    0 -0.40826835161E+03 -0.33261801908E+03 -0.70825575005E+03  0.89573190969E+03  0.15294330000E+03 0.  0.
<mgrwt>
<rscale>  0 0.75726660E+03</rscale>
<asrwt>0</asrwt>
<pdfrwt beam="1">  1        2 0.18038353E+00 0.84328406E+03</pdfrwt>
<pdfrwt beam="2">  1       -2 0.88243492E-01 0.84328406E+03</pdfrwt>
<totfact> 0.21953846E+01</totfact>
</mgrwt>
</event>
<event>
 4    2  0.6914693E-007  0.1252382E+04  0.7818608E-02  0.9107812E-01
          2   -1    0    0  501    0  0.00000000000E+00  0.00000000000E+00  0.19290526182E+04  0.19290526182E+04  0.25500000000E-02 0. -1.
         -2   -1    0    0    0  501 -0.00000000000E+00 -0.00000000000E+00 -0.88941215528E+03  0.88941215529E+03  0.25500000000E-02 0.  1.
    8880023    1    1    2    0    0 -0.10585918951E+04  0.11846867506E+03 -0.93363335287E+02  0.12558576933E+04  0.65864270000E+03 0. -1.
    8880022    1    1    2    0    0  0.10585918951E+04 -0.11846867506E+03  0.11330037982E+04  0.15626070802E+04  0.15294330000E+03 0.  0.
<mgrwt>
<rscale>  0 0.12057807E+04</rscale>
<asrwt>0</asrwt>
<pdfrwt beam="1">  1        2 0.29677733E+00 0.12523825E+04</pdfrwt>
<pdfrwt beam="2">  1       -2 0.13683264E+00 0.12523825E+04</pdfrwt>
<totfact> 0.27012720E+00</totfact>
</mgrwt>
</event>
<event>
 4    2  0.6914693E-007  0.1006557E+04  0.7818608E-02  0.9373029E-01
         -2   -1    0    0    0  501 -0.00000000000E+00  0.00000000000E+00  0.39026187099E+03  0.39026187100E+03  0.25500000000E-02 0.  1.
          2   -1    0    0  501    0  0.00000000000E+00 -0.00000000000E+00 -0.28319154126E+04  0.28319154126E+04  0.25500000000E-02 0. -1.
    8880023    1    1    2    0    0 -0.73088047591E+03  0.21250932938E+03 -0.48536691037E+03  0.11174693415E+04  0.65864270000E+03 0.  1.
    8880022    1    1    2    0    0  0.73088047591E+03 -0.21250932938E+03 -0.19562866312E+04  0.21047079421E+04  0.15294330000E+03 0.  0.
<mgrwt>
<rscale>  0 0.94328910E+03</rscale>
<asrwt>0</asrwt>
<pdfrwt beam="1">  1        2 0.43567928E+00 0.10065568E+04</pdfrwt>
<pdfrwt beam="2">  1       -2 0.60040290E-01 0.10065568E+04</pdfrwt>
<totfact> 0.58214060E+00</totfact>
</mgrwt>
</event>
<event>
 4    2  0.6914693E-007  0.7869139E+03  0.7818608E-02  0.9739840E-01
          2   -1    0    0  501    0  0.00000000000E+00  0.00000000000E+00  0.10298231987E+04  0.10298231987E+04  0.25500000000E-02 0. -1.
         -2   -1    0    0    0  501 -0.00000000000E+00 -0.00000000000E+00 -0.45254763218E+03  0.45254763219E+03  0.25500000000E-02 0.  1.
    8880023    1    1    2    0    0  0.42511249643E+03  0.68575596856E+02  0.64874285046E+03  0.10198532931E+04  0.65864270000E+03 0.  0.
    8880022    1    1    2    0    0 -0.42511249643E+03 -0.68575596856E+02 -0.71467283931E+02  0.46251753783E+03  0.15294330000E+03 0.  0.
<mgrwt>
<rscale>  0 0.68693491E+03</rscale>
<asrwt>0</asrwt>
<pdfrwt beam="1">  1        2 0.15843434E+00 0.78691388E+03</pdfrwt>
<pdfrwt beam="2">  1       -2 0.69622714E-01 0.78691388E+03</pdfrwt>
<totfact> 0.45918348E+01</totfact>
</mgrwt>
</event>
<event>
 4    2  0.6914693E-007  0.8439027E+03  0.7818608E-02  0.9622865E-01
          2   -1    0    0  501    0  0.00000000000E+00  0.00000000000E+00  0.19706387234E+04  0.19706387234E+04  0.25500000000E-02 0. -1.
         -2   -1    0    0    0  501 -0.00000000000E+00 -0.00000000000E+00 -0.42194965610E+03  0.42194965611E+03  0.25500000000E-02 0.  1.
    8880023    1    1    2    0    0  0.81742333026E+02  0.52122906837E+03  0.10807297653E+03  0.85079464340E+03  0.65864270000E+03 0.  0.
    8880022    1    1    2    0    0 -0.81742333026E+02 -0.52122906837E+03  0.14406160908E+04  0.15417937361E+04  0.15294330000E+03 0.  0.
<mgrwt>
<rscale>  0 0.75801145E+03</rscale>
<asrwt>0</asrwt>
<pdfrwt beam="1">  1        2 0.30317519E+00 0.84390269E+03</pdfrwt>
<pdfrwt beam="2">  1       -2 0.64915332E-01 0.84390269E+03</pdfrwt>
<totfact> 0.15507847E+01</totfact>
</mgrwt>
</event>
<event>
 4    2  0.6914693E-007  0.1231337E+04  0.7818608E-02  0.9127247E-01
         -2   -1    0    0    0  501 -0.00000000000E+00  0.00000000000E+00  0.28844138318E+04  0.28844138318E+04  0.25500000000E-02 0.  1.
          2   -1    0    0  501    0  0.00000000000E+00 -0.00000000000E+00 -0.60266215463E+03  0.60266215464E+03  0.25500000000E-02 0. -1.
    8880023    1    1    2    0    0 -0.26145282770E+03 -0.10069868619E+04  0.20788010879E+04  0.24161134680E+04  0.65864270000E+03 0.  0.
    8880022    1    1    2    0    0  0.26145282770E+03  0.10069868619E+04  0.20295058927E+03  0.10709625184E+04  0.15294330000E+03 0.  0.
<mgrwt>
<rscale>  0 0.11836978E+04</rscale>
<asrwt>0</asrwt>
<pdfrwt beam="1">  1        2 0.92717254E-01 0.12313368E+04</pdfrwt>
<pdfrwt beam="2">  1       -2 0.44375598E+00 0.12313368E+04</pdfrwt>
<totfact> 0.18595456E-01</totfact>
</mgrwt>
</event>
<event>
 4    2  0.6914693E-007  0.1075938E+04  0.7818608E-02  0.9288331E-01
          2   -1    0    0  501    0  0.00000000000E+00  0.00000000000E+00  0.17509211646E+04  0.17509211646E+04  0.25500000000E-02 0. -1.
         -2   -1    0    0    0  501 -0.00000000000E+00 -0.00000000000E+00 -0.56782940008E+03  0.56782940009E+03  0.25500000000E-02 0.  1.
    8880023    1    1    2    0    0  0.73775196874E+03 -0.42373911691E+03  0.38648265841E+03  0.11432461931E+04  0.65864270000E+03 0.  0.
    8880022    1    1    2    0    0 -0.73775196874E+03  0.42373911691E+03  0.79660910606E+03  0.11755043715E+04  0.15294330000E+03 0.  0.
<mgrwt>
<rscale>  0 0.10186427E+04</rscale>
<asrwt>0</asrwt>
<pdfrwt beam="1">  1        2 0.26937248E+00 0.10759382E+04</pdfrwt>
<pdfrwt beam="2">  1       -2 0.87358370E-01 0.10759382E+04</pdfrwt>
<totfact> 0.10304645E+01</totfact>
</mgrwt>
</event>
<event>
 4    2  0.6914693E-007  0.6854064E+03  0.7818608E-02  0.1006417E+00
         -2   -1    0    0    0  501 -0.00000000000E+00  0.00000000000E+00  0.72920728328E+03  0.72920728329E+03  0.25500000000E-02 0.  1.
          2   -1    0    0  501    0  0.00000000000E+00 -0.00000000000E+00 -0.34921283960E+03  0.34921283961E+03  0.25500000000E-02 0. -1.
    8880023    1    1    2    0    0 -0.10992258109E+03 -0.15455970984E+03  0.45595087213E+03  0.82320901465E+03  0.65864270000E+03 0.  1.
    8880022    1    1    2    0    0  0.10992258109E+03  0.15455970984E+03 -0.75956428441E+02  0.25521110825E+03  0.15294330000E+03 0.  0.
<mgrwt>
<rscale>  0 0.52923783E+03</rscale>
<asrwt>0</asrwt>
<pdfrwt beam="1">  1        2 0.53725053E-01 0.68540636E+03</pdfrwt>
<pdfrwt beam="2">  1       -2 0.11218573E+00 0.68540636E+03</pdfrwt>
<totfact> 0.58874684E+01</totfact>
</mgrwt>
</event>
<event>
 4    2  0.6914693E-007  0.1058986E+04  0.7818608E-02  0.9308156E-01
         -2   -1    0    0    0  501 -0.00000000000E+00  0.00000000000E+00  0.17892217598E+04  0.17892217598E+04  0.25500000000E-02 0.  1.
          2   -1    0    0  501    0  0.00000000000E+00 -0.00000000000E+00 -0.62508993609E+03  0.62508993609E+03  0.25500000000E-02 0. -1.
    8880023    1    1    2    0    0 -0.75660268407E+03 -0.33940181886E+03  0.11039983657E+03  0.10647251037E+04  0.65864270000E+03 0.  0.
    8880022    1    1    2    0    0  0.75660268407E+03  0.33940181886E+03  0.10537319871E+04  0.13495865922E+04  0.15294330000E+03 0.  0.
<mgrwt>
<rscale>  0 0.10003544E+04</rscale>
<asrwt>0</asrwt>
<pdfrwt beam="1">  1        2 0.96167683E-01 0.10589860E+04</pdfrwt>
<pdfrwt beam="2">  1       -2 0.27526488E+00 0.10589860E+04</pdfrwt>
<totfact> 0.21140552E+00</totfact>
</mgrwt>
</event>
<event>
 4    2  0.6914693E-007  0.7655314E+03  0.7818608E-02  0.9790992E-01
          2   -1    0    0  501    0  0.00000000000E+00  0.00000000000E+00  0.30972529932E+04  0.30972529932E+04  0.25500000000E-02 0. -1.
         -2   -1    0    0    0  501 -0.00000000000E+00 -0.00000000000E+00 -0.16255912059E+03  0.16255912061E+03  0.25500000000E-02 0.  1.
    8880023    1    1    2    0    0  0.23805110043E+03 -0.30912740801E+03  0.89602001172E+03  0.11785118364E+04  0.65864270000E+03 0.  1.
    8880022    1    1    2    0    0 -0.23805110043E+03  0.30912740801E+03  0.20386738608E+04  0.20813002774E+04  0.15294330000E+03 0.  0.
<mgrwt>
<rscale>  0 0.65848200E+03</rscale>
<asrwt>0</asrwt>
<pdfrwt beam="1">  1        2 0.47650047E+00 0.76553138E+03</pdfrwt>
<pdfrwt beam="2">  1       -2 0.25009095E-01 0.76553138E+03</pdfrwt>
<totfact> 0.22920096E+01</totfact>
</mgrwt>
</event>
<event>
 4    2  0.6914693E-007  0.1054989E+04  0.7818608E-02  0.9312908E-01
          2   -1    0    0  501    0  0.00000000000E+00  0.00000000000E+00  0.10617091171E+04  0.10617091171E+04  0.25500000000E-02 0. -1.
         -2   -1    0    0    0  501 -0.00000000000E+00 -0.00000000000E+00 -0.11356180913E+04  0.11356180913E+04  0.25500000000E-02 0.  1.
    8880023    1    1    2    0    0  0.46060973057E+03  0.68339580681E+03 -0.59415973782E+03  0.12107960823E+04  0.65864270000E+03 0.  0.
    8880022    1    1    2    0    0 -0.46060973057E+03 -0.68339580681E+03  0.52025076361E+03  0.98653112607E+03  0.15294330000E+03 0.  0.
<mgrwt>
<rscale>  0 0.99603150E+03</rscale>
<asrwt>0</asrwt>
<pdfrwt beam="1">  1        2 0.16333986E+00 0.10549888E+04</pdfrwt>
<pdfrwt beam="2">  1       -2 0.17471048E+00 0.10549888E+04</pdfrwt>
<totfact> 0.44780052E+00</totfact>
</mgrwt>
</event>
<event>
 4    2  0.6914693E-007  0.8823818E+03  0.7818608E-02  0.9554928E-01
         -2   -1    0    0    0  501 -0.00000000000E+00  0.00000000000E+00  0.12655647924E+04  0.12655647924E+04  0.25500000000E-02 0.  1.
          2   -1    0    0  501    0  0.00000000000E+00 -0.00000000000E+00 -0.12229207305E+04  0.12229207305E+04  0.25500000000E-02 0. -1.
    8880023    1    1    2    0    0 -0.49909136429E+03 -0.30934661551E+03  0.10133855739E+04  0.13437068304E+04  0.65864270000E+03 0.  0.
    8880022    1    1    2    0    0  0.49909136429E+03  0.30934661551E+03 -0.97074151209E+03  0.11447786925E+04  0.15294330000E+03 0.  0.
<mgrwt>
<rscale>  0 0.80352580E+03</rscale>
<asrwt>0</asrwt>
<pdfrwt beam="1">  1        2 0.18814165E+00 0.88238185E+03</pdfrwt>
<pdfrwt beam="2">  1       -2 0.19470227E+00 0.88238185E+03</pdfrwt>
<totfact> 0.26642537E+00</totfact>
</mgrwt>
</event>
<event>
 4    2  0.6914693E-007  0.6853792E+03  0.7818608E-02  0.1006431E+00
         -2   -1    0    0    0  501 -0.00000000000E+00  0.00000000000E+00  0.68678940647E+02  0.68678940695E+02  0.25500000000E-02 0.  1.
          2   -1    0    0  501    0  0.00000000000E+00 -0.00000000000E+00 -0.34480127731E+04  0.34480127731E+04  0.25500000000E-02 0. -1.
    8880023    1    1    2    0    0 -0.12217360545E+03  0.14494145576E+03 -0.19544435622E+04  0.20711335688E+04  0.65864270000E+03 0.  1.
    8880022    1    1    2    0    0  0.12217360545E+03 -0.14494145576E+03 -0.14248902702E+04  0.14455581450E+04  0.15294330000E+03 0.  0.
<mgrwt>
<rscale>  0 0.52918055E+03</rscale>
<asrwt>0</asrwt>
<pdfrwt beam="1">  1        2 0.53046337E+00 0.68537918E+03</pdfrwt>
<pdfrwt beam="2">  1       -2 0.10565994E-01 0.68537918E+03</pdfrwt>
<totfact> 0.60117563E+01</totfact>
</mgrwt>
</event>
<event>
 4    2  0.6914693E-007  0.8858941E+03  0.7818608E-02  0.9549066E-01
         -2   -1    0    0    0  501 -0.00000000000E+00  0.00000000000E+00  0.79108486096E+03  0.79108486097E+03  0.25500000000E-02 0.  1.
          2   -1    0    0  501    0  0.00000000000E+00 -0.00000000000E+00 -0.10617232732E+04  0.10617232732E+04  0.25500000000E-02 0. -1.
    8880023    1    1    2    0    0 -0.28243613863E+03  0.52079548228E+03 -0.67986218606E+03  0.11167009022E+04  0.65864270000E+03 0.  0.
    8880022    1    1    2    0    0  0.28243613863E+03 -0.52079548228E+03  0.40922377385E+03  0.73610723191E+03  0.15294330000E+03 0.  0.
<mgrwt>
<rscale>  0 0.80761029E+03</rscale>
<asrwt>0</asrwt>
<pdfrwt beam="1">  1        2 0.16334204E+00 0.88589408E+03</pdfrwt>
<pdfrwt beam="2">  1       -2 0.12170536E+00 0.88589408E+03</pdfrwt>
<totfact> 0.11834135E+01</totfact>
</mgrwt>
</event>
<event>
 4    2  0.6914693E-007  0.6811643E+03  0.7818608E-02  0.1008673E+00
          2   -1    0    0  501    0  0.00000000000E+00  0.00000000000E+00  0.44756485487E+03  0.44756485487E+03  0.25500000000E-02 0. -1.
         -2   -1    0    0    0  501 -0.00000000000E+00 -0.00000000000E+00 -0.48355085653E+03  0.48355085653E+03  0.25500000000E-02 0.  1.
    8880023    1    1    2    0    0  0.16763065513E+03 -0.45546667404E+02  0.52843087825E+02  0.68321089983E+03  0.65864270000E+03 0. -1.
    8880022    1    1    2    0    0 -0.16763065513E+03  0.45546667404E+02 -0.88829089483E+02  0.24790481158E+03  0.15294330000E+03 0.  1.
<mgrwt>
<rscale>  0 0.52005614E+03</rscale>
<asrwt>0</asrwt>
<pdfrwt beam="1">  1        2 0.68856131E-01 0.68116425E+03</pdfrwt>
<pdfrwt beam="2">  1       -2 0.74392440E-01 0.68116425E+03</pdfrwt>
<totfact> 0.11538628E+02</totfact>
</mgrwt>
</event>
<event>
 4    2  0.6914693E-007  0.6941528E+03  0.7818608E-02  0.1002238E+00
          2   -1    0    0  501    0  0.00000000000E+00  0.00000000000E+00  0.26362862642E+04  0.26362862642E+04  0.25500000000E-02 0. -1.
         -2   -1    0    0    0  501 -0.00000000000E+00 -0.00000000000E+00 -0.15956699157E+03  0.15956699159E+03  0.25500000000E-02 0.  1.
    8880023    1    1    2    0    0  0.78089424869E+02  0.20479255215E+03  0.65421996382E+03  0.95386158063E+03  0.65864270000E+03 0.  1.
    8880022    1    1    2    0    0 -0.78089424869E+02 -0.20479255215E+03  0.18224993088E+04  0.18419916752E+04  0.15294330000E+03 0.  0.
<mgrwt>
<rscale>  0 0.54679697E+03</rscale>
<asrwt>0</asrwt>
<pdfrwt beam="1">  1        2 0.40558250E+00 0.69415283E+03</pdfrwt>
<pdfrwt beam="2">  1       -2 0.24548768E-01 0.69415283E+03</pdfrwt>
<totfact> 0.45205609E+01</totfact>
</mgrwt>
</event>
<event>
 4    2  0.6914693E-007  0.1227504E+04  0.7818608E-02  0.9130839E-01
         -2   -1    0    0    0  501 -0.00000000000E+00  0.00000000000E+00  0.62789349799E+03  0.62789349800E+03  0.25500000000E-02 0.  1.
          2   -1    0    0  501    0  0.00000000000E+00 -0.00000000000E+00 -0.30237942203E+04  0.30237942203E+04  0.25500000000E-02 0. -1.
    8880023    1    1    2    0    0 -0.54820897881E+02 -0.10343844189E+04 -0.22913264304E+04  0.25994121401E+04  0.65864270000E+03 0.  0.
    8880022    1    1    2    0    0  0.54820897881E+02  0.10343844189E+04 -0.10457429191E+03  0.10522755782E+04  0.15294330000E+03 0.  0.
<mgrwt>
<rscale>  0 0.11796707E+04</rscale>
<asrwt>0</asrwt>
<pdfrwt beam="1">  1        2 0.46519910E+00 0.12275042E+04</pdfrwt>
<pdfrwt beam="2">  1       -2 0.96599001E-01 0.12275042E+04</pdfrwt>
<totfact> 0.14894181E+00</totfact>
</mgrwt>
</event>
<event>
 4    2  0.7403893E-007  0.6602898E+03  0.7818608E-02  0.1023861E+00
         -2   -1    0    0    0  501 -0.00000000000E+00  0.00000000000E+00  0.19822823279E+03  0.19822823280E+03  0.25500000000E-02 0.  1.
          2   -1    0    0  501    0  0.00000000000E+00 -0.00000000000E+00 -0.25299445197E+04  0.25299445197E+04  0.25500000000E-02 0. -1.
    8880023    1    1    2    0    0  0.46541776926E+02 -0.24972373004E+01 -0.36400757731E+03  0.75397884307E+03  0.65864270000E+03 0.  1.
    8880022    1    1    2    0    0 -0.46541776926E+02  0.24972373004E+01 -0.19677087096E+04  0.19741939094E+04  0.15294330000E+03 0.  0.
<mgrwt>
<rscale>  0 0.46318510E+03</rscale>
<asrwt>0</asrwt>
<pdfrwt beam="1">  1        2 0.38922221E+00 0.66028977E+03</pdfrwt>
<pdfrwt beam="2">  1       -2 0.30496653E-01 0.66028977E+03</pdfrwt>
<totfact> 0.35166758E+01</totfact>
</mgrwt>
</event>
<event>
 4    2  0.6914693E-007  0.9526230E+03  0.7818608E-02  0.9446350E-01
         -2   -1    0    0    0  501 -0.00000000000E+00  0.00000000000E+00  0.12606371215E+04  0.12606371215E+04  0.25500000000E-02 0.  1.
          2   -1    0    0  501    0  0.00000000000E+00 -0.00000000000E+00 -0.76350899164E+03  0.76350899165E+03  0.25500000000E-02 0. -1.
    8880023    1    1    2    0    0  0.62218971302E+03  0.29421142096E+03  0.81224889577E+03  0.12518941146E+04  0.65864270000E+03 0.  0.
    8880022    1    1    2    0    0 -0.62218971302E+03 -0.29421142096E+03 -0.31512076588E+03  0.77225199858E+03  0.15294330000E+03 0.  0.
<mgrwt>
<rscale>  0 0.88357459E+03</rscale>
<asrwt>0</asrwt>
<pdfrwt beam="1">  1        2 0.11746292E+00 0.95262301E+03</pdfrwt>
<pdfrwt beam="2">  1       -2 0.19394417E+00 0.95262301E+03</pdfrwt>
<totfact> 0.53299640E+00</totfact>
</mgrwt>
</event>
<event>
 4    2  0.6914693E-007  0.8184214E+03  0.7818608E-02  0.9672295E-01
          2   -1    0    0  501    0  0.00000000000E+00  0.00000000000E+00  0.23581550824E+04  0.23581550824E+04  0.25500000000E-02 0. -1.
         -2   -1    0    0    0  501 -0.00000000000E+00 -0.00000000000E+00 -0.21149319623E+03  0.21149319625E+03  0.25500000000E-02 0.  1.
    8880023    1    1    2    0    0  0.36736267262E+03 -0.31788053528E+03  0.86655558325E+03  0.11919446938E+04  0.65864270000E+03 0. -1.
    8880022    1    1    2    0    0 -0.36736267262E+03  0.31788053528E+03  0.12801063029E+04  0.13777035849E+04  0.15294330000E+03 0.  0.
<mgrwt>
<rscale>  0 0.72690546E+03</rscale>
<asrwt>0</asrwt>
<pdfrwt beam="1">  1        2 0.36279310E+00 0.81842139E+03</pdfrwt>
<pdfrwt beam="2">  1       -2 0.32537414E-01 0.81842139E+03</pdfrwt>
<totfact> 0.38068267E+01</totfact>
</mgrwt>
</event>
<event>
 4    2  0.6914693E-007  0.9961459E+03  0.7818608E-02  0.9386618E-01
          2   -1    0    0  501    0  0.00000000000E+00  0.00000000000E+00  0.10019395598E+04  0.10019395598E+04  0.25500000000E-02 0. -1.
         -2   -1    0    0    0  501 -0.00000000000E+00 -0.00000000000E+00 -0.79759484073E+03  0.79759484073E+03  0.25500000000E-02 0.  1.
    8880023    1    1    2    0    0 -0.67490812954E+03  0.32092894537E+03 -0.44545914899E+02  0.99714137217E+03  0.65864270000E+03 0. -1.
    8880022    1    1    2    0    0  0.67490812954E+03 -0.32092894537E+03  0.24889063398E+03  0.80239302838E+03  0.15294330000E+03 0.  0.
<mgrwt>
<rscale>  0 0.93185240E+03</rscale>
<asrwt>0</asrwt>
<pdfrwt beam="1">  1        2 0.15414455E+00 0.99614586E+03</pdfrwt>
<pdfrwt beam="2">  1       -2 0.12270690E+00 0.99614586E+03</pdfrwt>
<totfact> 0.12523532E+01</totfact>
</mgrwt>
</event>
<event>
 4    2  0.6914693E-007  0.6685508E+03  0.7818608E-02  0.1016724E+00
         -2   -1    0    0    0  501 -0.00000000000E+00  0.00000000000E+00  0.10261930259E+04  0.10261930259E+04  0.25500000000E-02 0.  1.
          2   -1    0    0  501    0  0.00000000000E+00 -0.00000000000E+00 -0.24571684993E+03  0.24571684995E+03  0.25500000000E-02 0. -1.
    8880023    1    1    2    0    0  0.97973818705E+02 -0.59591585105E+02  0.83825606168E+03  0.10722096145E+04  0.65864270000E+03 0.  1.
    8880022    1    1    2    0    0 -0.97973818705E+02  0.59591585105E+02 -0.57779885749E+02  0.19970026134E+03  0.15294330000E+03 0.  0.
<mgrwt>
<rscale>  0 0.48887676E+03</rscale>
<asrwt>0</asrwt>
<pdfrwt beam="1">  1        2 0.37802592E-01 0.66855085E+03</pdfrwt>
<pdfrwt beam="2">  1       -2 0.15787585E+00 0.66855085E+03</pdfrwt>
<totfact> 0.36461049E+01</totfact>
</mgrwt>
</event>
<event>
 4    2  0.7636471E-007  0.8208505E+03  0.7818608E-02  0.9667404E-01
          2   -1    0    0  501    0  0.00000000000E+00  0.00000000000E+00  0.29749803264E+04  0.29749803264E+04  0.25500000000E-02 0. -1.
         -2   -1    0    0    0  501 -0.00000000000E+00 -0.00000000000E+00 -0.68037080551E+03  0.68037080552E+03  0.25500000000E-02 0.  1.
    8880023    1    1    2    0    0 -0.48874186378E+03 -0.33418630762E+02 -0.39942380981E+03  0.91287184226E+03  0.65864270000E+03 0.  1.
    8880022    1    1    2    0    0  0.48874186378E+03  0.33418630762E+02  0.26940333307E+04  0.27424792897E+04  0.15294330000E+03 0.  0.
<mgrwt>
<rscale>  0 0.72991168E+03</rscale>
<asrwt>0</asrwt>
<pdfrwt beam="1">  1        2 0.45768928E+00 0.82085055E+03</pdfrwt>
<pdfrwt beam="2">  1       -2 0.10467243E+00 0.82085055E+03</pdfrwt>
<totfact> 0.14056719E+00</totfact>
</mgrwt>
</event>
<event>
 4    2  0.6914693E-007  0.7315952E+03  0.7818608E-02  0.9885143E-01
          2   -1    0    0  501    0  0.00000000000E+00  0.00000000000E+00  0.19019774856E+04  0.19019774856E+04  0.25500000000E-02 0. -1.
         -2   -1    0    0    0  501 -0.00000000000E+00 -0.00000000000E+00 -0.28220509189E+03  0.28220509190E+03  0.25500000000E-02 0.  1.
    8880023    1    1    2    0    0  0.31752451634E+03  0.24483476986E+02  0.25552808999E+03  0.77493617167E+03  0.65864270000E+03 0.  1.
    8880022    1    1    2    0    0 -0.31752451634E+03 -0.24483476986E+02  0.13642443037E+04  0.14092464058E+04  0.15294330000E+03 0.  0.
<mgrwt>
<rscale>  0 0.60986759E+03</rscale>
<asrwt>0</asrwt>
<pdfrwt beam="1">  1        2 0.29261192E+00 0.73159515E+03</pdfrwt>
<pdfrwt beam="2">  1       -2 0.43416168E-01 0.73159515E+03</pdfrwt>
<totfact> 0.39311070E+01</totfact>
</mgrwt>
</event>
<event>
 4    2  0.6914693E-007  0.9928547E+03  0.7818608E-02  0.9390966E-01
         -2   -1    0    0    0  501 -0.00000000000E+00  0.00000000000E+00  0.60929441204E+03  0.60929441204E+03  0.25500000000E-02 0.  1.
          2   -1    0    0  501    0  0.00000000000E+00 -0.00000000000E+00 -0.14515324453E+04  0.14515324453E+04  0.25500000000E-02 0. -1.
    8880023    1    1    2    0    0 -0.72702625024E+03  0.15291532091E+03 -0.97180478763E+02  0.99759937632E+03  0.65864270000E+03 0.  0.
    8880022    1    1    2    0    0  0.72702625024E+03 -0.15291532091E+03 -0.74505755454E+03  0.10632274811E+04  0.15294330000E+03 0.  0.
<mgrwt>
<rscale>  0 0.92822877E+03</rscale>
<asrwt>0</asrwt>
<pdfrwt beam="1">  1        2 0.22331268E+00 0.99285471E+03</pdfrwt>
<pdfrwt beam="2">  1       -2 0.93737602E-01 0.99285471E+03</pdfrwt>
<totfact> 0.12956150E+01</totfact>
</mgrwt>
</event>
<event>
 4    2  0.6914693E-007  0.7426203E+03  0.7818608E-02  0.9852379E-01
          2   -1    0    0  501    0  0.00000000000E+00  0.00000000000E+00  0.14210405806E+04  0.14210405806E+04  0.25500000000E-02 0. -1.
         -2   -1    0    0    0  501 -0.00000000000E+00 -0.00000000000E+00 -0.29290585890E+03  0.29290585891E+03  0.25500000000E-02 0.  1.
    8880023    1    1    2    0    0  0.33688495567E+03  0.64678344347E+02  0.29316695518E+03  0.79839328119E+03  0.65864270000E+03 0.  1.
    8880022    1    1    2    0    0 -0.33688495567E+03 -0.64678344347E+02  0.83496776656E+03  0.91555315836E+03  0.15294330000E+03 0.  0.
<mgrwt>
<rscale>  0 0.62625771E+03</rscale>
<asrwt>0</asrwt>
<pdfrwt beam="1">  1        2 0.21862162E+00 0.74262034E+03</pdfrwt>
<pdfrwt beam="2">  1       -2 0.45062440E-01 0.74262034E+03</pdfrwt>
<totfact> 0.67055902E+01</totfact>
</mgrwt>
</event>
<event>
 4    2  0.6914693E-007  0.6663173E+03  0.7818608E-02  0.1018453E+00
         -2   -1    0    0    0  501 -0.00000000000E+00  0.00000000000E+00  0.18011583744E+03  0.18011583745E+03  0.25500000000E-02 0.  1.
          2   -1    0    0  501    0  0.00000000000E+00 -0.00000000000E+00 -0.20796954559E+04  0.20796954559E+04  0.25500000000E-02 0. -1.
    8880023    1    1    2    0    0 -0.71471471464E+02  0.71136665356E+02 -0.46249751140E+03  0.81109971687E+03  0.65864270000E+03 0.  1.
    8880022    1    1    2    0    0  0.71471471464E+02 -0.71136665356E+02 -0.14370821071E+04  0.14487115765E+04  0.15294330000E+03 0.  0.
<mgrwt>
<rscale>  0 0.48249074E+03</rscale>
<asrwt>0</asrwt>
<pdfrwt beam="1">  1        2 0.31995313E+00 0.66631734E+03</pdfrwt>
<pdfrwt beam="2">  1       -2 0.27710130E-01 0.66631734E+03</pdfrwt>
<totfact> 0.74485736E+01</totfact>
</mgrwt>
</event>
<event>
 4    2  0.6914693E-007  0.6671387E+03  0.7818608E-02  0.1017803E+00
         -2   -1    0    0    0  501 -0.00000000000E+00  0.00000000000E+00  0.20639796137E+03  0.20639796138E+03  0.25500000000E-02 0.  1.
          2   -1    0    0  501    0  0.00000000000E+00 -0.00000000000E+00 -0.95646999679E+03  0.95646999679E+03  0.25500000000E-02 0. -1.
    8880023    1    1    2    0    0 -0.30449992104E+02  0.10166916070E+03 -0.43348017925E+03  0.79559983177E+03  0.65864270000E+03 0.  1.
    8880022    1    1    2    0    0  0.30449992104E+02 -0.10166916070E+03 -0.31659185617E+03  0.36726812640E+03  0.15294330000E+03 0.  1.
<mgrwt>
<rscale>  0 0.48487922E+03</rscale>
<asrwt>0</asrwt>
<pdfrwt beam="1">  1        2 0.14714923E+00 0.66713869E+03</pdfrwt>
<pdfrwt beam="2">  1       -2 0.31753533E-01 0.66713869E+03</pdfrwt>
<totfact> 0.25107536E+02</totfact>
</mgrwt>
</event>
<event>
 4    2  0.6914693E-007  0.1476062E+04  0.7818608E-02  0.8926727E-01
          2   -1    0    0  501    0  0.00000000000E+00  0.00000000000E+00  0.22125103140E+04  0.22125103140E+04  0.25500000000E-02 0. -1.
         -2   -1    0    0    0  501 -0.00000000000E+00 -0.00000000000E+00 -0.16016150885E+04  0.16016150885E+04  0.25500000000E-02 0.  1.
    8880023    1    1    2    0    0 -0.46753802799E+03 -0.12354579927E+04  0.15848929020E+04  0.21657894580E+04  0.65864270000E+03 0.  0.
    8880022    1    1    2    0    0  0.46753802799E+03  0.12354579927E+04 -0.97399767644E+03  0.16483359445E+04  0.15294330000E+03 0.  0.
<mgrwt>
<rscale>  0 0.14380505E+04</rscale>
<asrwt>0</asrwt>
<pdfrwt beam="1">  1        2 0.34038620E+00 0.14760618E+04</pdfrwt>
<pdfrwt beam="2">  1       -2 0.24640232E+00 0.14760618E+04</pdfrwt>
<totfact> 0.32296855E-01</totfact>
</mgrwt>
</event>
<event>
 4    2  0.6914693E-007  0.6733464E+03  0.7818608E-02  0.1013369E+00
         -2   -1    0    0    0  501 -0.00000000000E+00  0.00000000000E+00  0.24282409098E+03  0.24282409100E+03  0.25500000000E-02 0.  1.
          2   -1    0    0  501    0  0.00000000000E+00 -0.00000000000E+00 -0.20093138173E+04  0.20093138173E+04  0.25500000000E-02 0. -1.
    8880023    1    1    2    0    0 -0.97701221863E+02 -0.10019803524E+03 -0.24491329272E+03  0.71650394433E+03  0.65864270000E+03 0.  1.
    8880022    1    1    2    0    0  0.97701221863E+02  0.10019803524E+03 -0.15215764335E+04  0.15356339639E+04  0.15294330000E+03 0.  0.
<mgrwt>
<rscale>  0 0.50157191E+03</rscale>
<asrwt>0</asrwt>
<pdfrwt beam="1">  1        2 0.30912519E+00 0.67334641E+03</pdfrwt>
<pdfrwt beam="2">  1       -2 0.37357554E-01 0.67334641E+03</pdfrwt>
<totfact> 0.46426258E+01</totfact>
</mgrwt>
</event>
<event>
 4    2  0.6914693E-007  0.7099163E+03  0.7818608E-02  0.9958312E-01
         -2   -1    0    0    0  501 -0.00000000000E+00  0.00000000000E+00  0.10592215216E+03  0.10592215219E+03  0.25500000000E-02 0.  1.
          2   -1    0    0  501    0  0.00000000000E+00 -0.00000000000E+00 -0.33395532619E+04  0.33395532619E+04  0.25500000000E-02 0. -1.
    8880023    1    1    2    0    0  0.35335874644E+02 -0.26253069713E+03 -0.12426896390E+04  0.14311739014E+04  0.65864270000E+03 0.  0.
    8880022    1    1    2    0    0 -0.35335874644E+02  0.26253069713E+03 -0.19909414708E+04  0.20143015127E+04  0.15294330000E+03 0.  0.
<mgrwt>
<rscale>  0 0.57516597E+03</rscale>
<asrwt>0</asrwt>
<pdfrwt beam="1">  1        2 0.51377734E+00 0.70991633E+03</pdfrwt>
<pdfrwt beam="2">  1       -2 0.16295718E-01 0.70991633E+03</pdfrwt>
<totfact> 0.34309786E+01</totfact>
</mgrwt>
</event>
<event>
 4    2  0.6914693E-007  0.8154599E+03  0.7818608E-02  0.9678314E-01
         -2   -1    0    0    0  501 -0.00000000000E+00  0.00000000000E+00  0.95703935753E+03  0.95703935753E+03  0.25500000000E-02 0.  1.
          2   -1    0    0  501    0  0.00000000000E+00 -0.00000000000E+00 -0.72888116771E+03  0.72888116772E+03  0.25500000000E-02 0. -1.
    8880023    1    1    2    0    0 -0.47090929627E+03  0.97000494869E+02  0.63841427275E+03  0.10356387648E+04  0.65864270000E+03 0.  1.
    8880022    1    1    2    0    0  0.47090929627E+03 -0.97000494869E+02 -0.41025608294E+03  0.65028176041E+03  0.15294330000E+03 0.  0.
<mgrwt>
<rscale>  0 0.72322752E+03</rscale>
<asrwt>0</asrwt>
<pdfrwt beam="1">  1        2 0.11213556E+00 0.81545991E+03</pdfrwt>
<pdfrwt beam="2">  1       -2 0.14723682E+00 0.81545991E+03</pdfrwt>
<totfact> 0.12351844E+01</totfact>
</mgrwt>
</event>
<event>
 4    2  0.6914693E-007  0.7604604E+03  0.7818608E-02  0.9803917E-01
          2   -1    0    0  501    0  0.00000000000E+00  0.00000000000E+00  0.13664444446E+04  0.13664444446E+04  0.25500000000E-02 0. -1.
         -2   -1    0    0    0  501 -0.00000000000E+00 -0.00000000000E+00 -0.39591848225E+03  0.39591848226E+03  0.25500000000E-02 0.  1.
    8880023    1    1    2    0    0  0.22193810208E+03  0.30859895245E+03  0.58716317426E+02  0.76272383390E+03  0.65864270000E+03 0.  0.
    8880022    1    1    2    0    0 -0.22193810208E+03 -0.30859895245E+03  0.91180964496E+03  0.99963909300E+03  0.15294330000E+03 0.  0.
<mgrwt>
<rscale>  0 0.65152759E+03</rscale>
<asrwt>0</asrwt>
<pdfrwt beam="1">  1        2 0.21022222E+00 0.76046041E+03</pdfrwt>
<pdfrwt beam="2">  1       -2 0.60910536E-01 0.76046041E+03</pdfrwt>
<totfact> 0.38686903E+01</totfact>
</mgrwt>
</event>
<event>
 4    2  0.6914693E-007  0.1169396E+04  0.7818608E-02  0.9187461E-01
          2   -1    0    0  501    0  0.00000000000E+00  0.00000000000E+00  0.28855175310E+04  0.28855175310E+04  0.25500000000E-02 0. -1.
         -2   -1    0    0    0  501 -0.00000000000E+00 -0.00000000000E+00 -0.72898752687E+03  0.72898752688E+03  0.25500000000E-02 0.  1.
    8880023    1    1    2    0    0 -0.66033940458E+03 -0.70542866134E+03 -0.81260157776E+02  0.11722163388E+04  0.65864270000E+03 0.  0.
    8880022    1    1    2    0    0  0.66033940458E+03  0.70542866134E+03  0.22377901619E+04  0.24422887190E+04  0.15294330000E+03 0.  0.
<mgrwt>
<rscale>  0 0.11183796E+04</rscale>
<asrwt>0</asrwt>
<pdfrwt beam="1">  1        2 0.44392577E+00 0.11693964E+04</pdfrwt>
<pdfrwt beam="2">  1       -2 0.11215193E+00 0.11693964E+04</pdfrwt>
<totfact> 0.12739624E+00</totfact>
</mgrwt>
</event>
<event>
 4    2  0.6914693E-007  0.1173498E+04  0.7818608E-02  0.9183325E-01
          2   -1    0    0  501    0  0.00000000000E+00  0.00000000000E+00  0.81213715141E+03  0.81213715142E+03  0.25500000000E-02 0. -1.
         -2   -1    0    0    0  501 -0.00000000000E+00 -0.00000000000E+00 -0.19514005197E+04  0.19514005197E+04  0.25500000000E-02 0.  1.
    8880023    1    1    2    0    0 -0.11656191015E+03  0.96420962888E+03 -0.13174701327E+04  0.17643198815E+04  0.65864270000E+03 0.  0.
    8880022    1    1    2    0    0  0.11656191015E+03 -0.96420962888E+03  0.17820676438E+03  0.99921778968E+03  0.15294330000E+03 0.  0.
<mgrwt>
<rscale>  0 0.11227213E+04</rscale>
<asrwt>0</asrwt>
<pdfrwt beam="1">  1        2 0.12494418E+00 0.11734978E+04</pdfrwt>
<pdfrwt beam="2">  1       -2 0.30021546E+00 0.11734978E+04</pdfrwt>
<totfact> 0.10519552E+00</totfact>
</mgrwt>
</event>
<event>
 4    2  0.6914693E-007  0.8139750E+03  0.7818608E-02  0.9681356E-01
          2   -1    0    0  501    0  0.00000000000E+00  0.00000000000E+00  0.22172572960E+04  0.22172572960E+04  0.25500000000E-02 0. -1.
         -2   -1    0    0    0  501 -0.00000000000E+00 -0.00000000000E+00 -0.28124180248E+03  0.28124180249E+03  0.25500000000E-02 0.  1.
    8880023    1    1    2    0    0  0.28460735391E+03  0.38437442286E+03  0.45031033678E+03  0.93023365265E+03  0.65864270000E+03 0.  1.
    8880022    1    1    2    0    0 -0.28460735391E+03 -0.38437442286E+03  0.14857051567E+04  0.15682654458E+04  0.15294330000E+03 0.  0.
<mgrwt>
<rscale>  0 0.72137784E+03</rscale>
<asrwt>0</asrwt>
<pdfrwt beam="1">  1        2 0.34111651E+00 0.81397497E+03</pdfrwt>
<pdfrwt beam="2">  1       -2 0.43267969E-01 0.81397497E+03</pdfrwt>
<totfact> 0.26313448E+01</totfact>
</mgrwt>
</event>
<event>
 4    2  0.6914693E-007  0.9867062E+03  0.7818608E-02  0.9399160E-01
          2   -1    0    0  501    0  0.00000000000E+00  0.00000000000E+00  0.73149075985E+03  0.73149075986E+03  0.25500000000E-02 0. -1.
         -2   -1    0    0    0  501 -0.00000000000E+00 -0.00000000000E+00 -0.11405267316E+04  0.11405267316E+04  0.25500000000E-02 0.  1.
    8880023    1    1    2    0    0 -0.59066071781E+03  0.43691979491E+03 -0.51683010675E+03  0.11138682850E+04  0.65864270000E+03 0.  0.
    8880022    1    1    2    0    0  0.59066071781E+03 -0.43691979491E+03  0.10779413500E+03  0.75814920649E+03  0.15294330000E+03 0.  0.
<mgrwt>
<rscale>  0 0.92144816E+03</rscale>
<asrwt>0</asrwt>
<pdfrwt beam="1">  1        2 0.11253704E+00 0.98670624E+03</pdfrwt>
<pdfrwt beam="2">  1       -2 0.17546565E+00 0.98670624E+03</pdfrwt>
<totfact> 0.75039877E+00</totfact>
</mgrwt>
</event>
<event>
 4    2  0.6914693E-007  0.7659088E+03  0.7818608E-02  0.9790044E-01
         -2   -1    0    0    0  501 -0.00000000000E+00  0.00000000000E+00  0.79941139989E+03  0.79941139990E+03  0.25500000000E-02 0.  1.
          2   -1    0    0  501    0  0.00000000000E+00 -0.00000000000E+00 -0.65801724930E+03  0.65801724931E+03  0.25500000000E-02 0. -1.
    8880023    1    1    2    0    0 -0.36688377785E+03 -0.13491594483E+03  0.49216020403E+03  0.91040534451E+03  0.65864270000E+03 0.  1.
    8880022    1    1    2    0    0  0.36688377785E+03  0.13491594483E+03 -0.35076605344E+03  0.54702330469E+03  0.15294330000E+03 0. -1.
<mgrwt>
<rscale>  0 0.65899603E+03</rscale>
<asrwt>0</asrwt>
<pdfrwt beam="1">  1        2 0.10123342E+00 0.76590876E+03</pdfrwt>
<pdfrwt beam="2">  1       -2 0.12298637E+00 0.76590876E+03</pdfrwt>
<totfact> 0.22382335E+01</totfact>
</mgrwt>
</event>
<event>
 4    2  0.6914693E-007  0.1019215E+04  0.7818608E-02  0.9356839E-01
         -2   -1    0    0    0  501 -0.00000000000E+00  0.00000000000E+00  0.12008815103E+04  0.12008815104E+04  0.25500000000E-02 0.  1.
          2   -1    0    0  501    0  0.00000000000E+00 -0.00000000000E+00 -0.15460949899E+04  0.15460949899E+04  0.25500000000E-02 0. -1.
    8880023    1    1    2    0    0  0.11775391490E+03 -0.76884512186E+03  0.84023672336E+03  0.13209075529E+04  0.65864270000E+03 0.  0.
    8880022    1    1    2    0    0 -0.11775391490E+03  0.76884512186E+03 -0.11854502029E+04  0.14260689473E+04  0.15294330000E+03 0.  0.
<mgrwt>
<rscale>  0 0.95714373E+03</rscale>
<asrwt>0</asrwt>
<pdfrwt beam="1">  1        2 0.23786077E+00 0.10192149E+04</pdfrwt>
<pdfrwt beam="2">  1       -2 0.18475100E+00 0.10192149E+04</pdfrwt>
<totfact> 0.19926306E+00</totfact>
</mgrwt>
</event>
<event>
 4    2  0.6914693E-007  0.8359705E+03  0.7818608E-02  0.9637826E-01
         -2   -1    0    0    0  501 -0.00000000000E+00  0.00000000000E+00  0.30980645801E+03  0.30980645802E+03  0.25500000000E-02 0.  1.
          2   -1    0    0  501    0  0.00000000000E+00 -0.00000000000E+00 -0.29311733977E+04  0.29311733977E+04  0.25500000000E-02 0. -1.
    8880023    1    1    2    0    0  0.41036628503E+03  0.31086319260E+03 -0.34880449016E+03  0.90582072786E+03  0.65864270000E+03 0.  0.
    8880022    1    1    2    0    0 -0.41036628503E+03 -0.31086319260E+03 -0.22725624495E+04  0.23351591279E+04  0.15294330000E+03 0.  0.
<mgrwt>
<rscale>  0 0.74842432E+03</rscale>
<asrwt>0</asrwt>
<pdfrwt beam="1">  1        2 0.45094973E+00 0.83597047E+03</pdfrwt>
<pdfrwt beam="2">  1       -2 0.47662534E-01 0.83597047E+03</pdfrwt>
<totfact> 0.83886340E+00</totfact>
</mgrwt>
</event>
<event>
 4    2  0.6914693E-007  0.8828035E+03  0.7818608E-02  0.9554221E-01
          2   -1    0    0  501    0  0.00000000000E+00  0.00000000000E+00  0.65743435260E+03  0.65743435261E+03  0.25500000000E-02 0. -1.
         -2   -1    0    0    0  501 -0.00000000000E+00 -0.00000000000E+00 -0.13614366711E+04  0.13614366711E+04  0.25500000000E-02 0.  1.
    8880023    1    1    2    0    0 -0.32117486266E+03  0.49231961883E+03 -0.10077704385E+04  0.13397549636E+04  0.65864270000E+03 0.  1.
    8880022    1    1    2    0    0  0.32117486266E+03 -0.49231961883E+03  0.30376811993E+03  0.67911606018E+03  0.15294330000E+03 0.  0.
<mgrwt>
<rscale>  0 0.80401676E+03</rscale>
<asrwt>0</asrwt>
<pdfrwt beam="1">  1        2 0.10114375E+00 0.88280355E+03</pdfrwt>
<pdfrwt beam="2">  1       -2 0.20945180E+00 0.88280355E+03</pdfrwt>
<totfact> 0.51502396E+00</totfact>
</mgrwt>
</event>
<event>
 4    2  0.6914693E-007  0.1043887E+04  0.7818608E-02  0.9326266E-01
          2   -1    0    0  501    0  0.00000000000E+00  0.00000000000E+00  0.20959764088E+04  0.20959764088E+04  0.25500000000E-02 0. -1.
         -2   -1    0    0    0  501 -0.00000000000E+00 -0.00000000000E+00 -0.44485917600E+03  0.44485917600E+03  0.25500000000E-02 0.  1.
    8880023    1    1    2    0    0  0.39607624119E+03  0.70640901242E+03  0.59625370094E+03  0.12021725183E+04  0.65864270000E+03 0.  0.
    8880022    1    1    2    0    0 -0.39607624119E+03 -0.70640901242E+03  0.10548635318E+04  0.13386630665E+04  0.15294330000E+03 0.  0.
<mgrwt>
<rscale>  0 0.98400293E+03</rscale>
<asrwt>0</asrwt>
<pdfrwt beam="1">  1        2 0.32245791E+00 0.10438871E+04</pdfrwt>
<pdfrwt beam="2">  1       -2 0.68439873E-01 0.10438871E+04</pdfrwt>
<totfact> 0.11527687E+01</totfact>
</mgrwt>
</event>
<event>
 4    2  0.6914693E-007  0.1207803E+04  0.7818608E-02  0.9149574E-01
         -2   -1    0    0    0  501 -0.00000000000E+00  0.00000000000E+00  0.88577202914E+03  0.88577202914E+03  0.25500000000E-02 0.  1.
          2   -1    0    0  501    0  0.00000000000E+00 -0.00000000000E+00 -0.32074776917E+04  0.32074776917E+04  0.25500000000E-02 0. -1.
    8880023    1    1    2    0    0 -0.24780631992E+03  0.98161590660E+03 -0.27344304384E+04  0.29892972066E+04  0.65864270000E+03 0.  0.
    8880022    1    1    2    0    0  0.24780631992E+03 -0.98161590660E+03  0.41272477582E+03  0.11039525143E+04  0.15294330000E+03 0.  0.
<mgrwt>
<rscale>  0 0.11589411E+04</rscale>
<asrwt>0</asrwt>
<pdfrwt beam="1">  1        2 0.49345810E+00 0.12078030E+04</pdfrwt>
<pdfrwt beam="2">  1       -2 0.13627262E+00 0.12078030E+04</pdfrwt>
<totfact> 0.48829224E-01</totfact>
</mgrwt>
</event>
<event>
 4    2  0.6914693E-007  0.6599691E+03  0.7818608E-02  0.1024188E+00
         -2   -1    0    0    0  501 -0.00000000000E+00  0.00000000000E+00  0.13450873612E+03  0.13450873614E+03  0.25500000000E-02 0.  1.
          2   -1    0    0  501    0  0.00000000000E+00 -0.00000000000E+00 -0.13980494230E+04  0.13980494230E+04  0.25500000000E-02 0. -1.
    8880023    1    1    2    0    0  0.34738896692E+02 -0.23286653290E+02 -0.76977579262E+03  0.10139595832E+04  0.65864270000E+03 0.  1.
    8880022    1    1    2    0    0 -0.34738896692E+02  0.23286653290E+02 -0.49376489428E+03  0.51859857597E+03  0.15294330000E+03 0.  0.
<mgrwt>
<rscale>  0 0.46205100E+03</rscale>
<asrwt>0</asrwt>
<pdfrwt beam="1">  1        2 0.21508452E+00 0.65996914E+03</pdfrwt>
<pdfrwt beam="2">  1       -2 0.20693653E-01 0.65996914E+03</pdfrwt>
<totfact> 0.29681777E+02</totfact>
</mgrwt>
</event>
<event>
 4    2  0.6914693E-007  0.6654275E+03  0.7818608E-02  0.1019177E+00
         -2   -1    0    0    0  501 -0.00000000000E+00  0.00000000000E+00  0.17442135920E+04  0.17442135920E+04  0.25500000000E-02 0.  1.
          2   -1    0    0  501    0  0.00000000000E+00 -0.00000000000E+00 -0.27119904733E+03  0.27119904734E+03  0.25500000000E-02 0. -1.
    8880023    1    1    2    0    0 -0.94039880706E+02  0.11836075747E+02  0.16400483935E+04  0.17699018422E+04  0.65864270000E+03 0.  1.
    8880022    1    1    2    0    0  0.94039880706E+02 -0.11836075747E+02 -0.16703384880E+03  0.24551079714E+03  0.15294330000E+03 0.  0.
<mgrwt>
<rscale>  0 0.47984636E+03</rscale>
<asrwt>0</asrwt>
<pdfrwt beam="1">  1        2 0.41722930E-01 0.66542753E+03</pdfrwt>
<pdfrwt beam="2">  1       -2 0.26834055E+00 0.66542753E+03</pdfrwt>
<totfact> 0.63537226E+00</totfact>
</mgrwt>
</event>
<event>
 4    2  0.6914693E-007  0.6634699E+03  0.7818608E-02  0.1020853E+00
         -2   -1    0    0    0  501 -0.00000000000E+00  0.00000000000E+00  0.50891516952E+03  0.50891516953E+03  0.25500000000E-02 0.  1.
          2   -1    0    0  501    0  0.00000000000E+00 -0.00000000000E+00 -0.14225528369E+04  0.14225528369E+04  0.25500000000E-02 0. -1.
    8880023    1    1    2    0    0  0.64386983573E+02  0.47290465436E+02  0.28383068543E+03  0.72163157915E+03  0.65864270000E+03 0.  1.
    8880022    1    1    2    0    0 -0.64386983573E+02 -0.47290465436E+02 -0.11974683528E+04  0.12098364273E+04  0.15294330000E+03 0.  0.
<mgrwt>
<rscale>  0 0.47380000E+03</rscale>
<asrwt>0</asrwt>
<pdfrwt beam="1">  1        2 0.21885428E+00 0.66346988E+03</pdfrwt>
<pdfrwt beam="2">  1       -2 0.78294642E-01 0.66346988E+03</pdfrwt>
<totfact> 0.21069441E+01</totfact>
</mgrwt>
</event>
<event>
 4    2  0.6914693E-007  0.7468987E+03  0.7818608E-02  0.9840289E-01
         -2   -1    0    0    0  501 -0.00000000000E+00  0.00000000000E+00  0.46557749681E+03  0.46557749682E+03  0.25500000000E-02 0.  1.
          2   -1    0    0  501    0  0.00000000000E+00 -0.00000000000E+00 -0.85177021343E+03  0.85177021344E+03  0.25500000000E-02 0. -1.
    8880023    1    1    2    0    0 -0.61605563574E+02 -0.34677396066E+03  0.34592513567E+02  0.74769932026E+03  0.65864270000E+03 0.  0.
    8880022    1    1    2    0    0  0.61605563574E+02  0.34677396066E+03 -0.42078523019E+03  0.56964838999E+03  0.15294330000E+03 0.  0.
<mgrwt>
<rscale>  0 0.63244512E+03</rscale>
<asrwt>0</asrwt>
<pdfrwt beam="1">  1        2 0.13104157E+00 0.74689868E+03</pdfrwt>
<pdfrwt beam="2">  1       -2 0.71627307E-01 0.74689868E+03</pdfrwt>
<totfact> 0.56733545E+01</totfact>
</mgrwt>
</event>
<event>
 4    2  0.6914693E-007  0.7693846E+03  0.7818608E-02  0.9781391E-01
          2   -1    0    0  501    0  0.00000000000E+00  0.00000000000E+00  0.24332516096E+04  0.24332516096E+04  0.25500000000E-02 0. -1.
         -2   -1    0    0    0  501 -0.00000000000E+00 -0.00000000000E+00 -0.24392826138E+03  0.24392826139E+03  0.25500000000E-02 0.  1.
    8880023    1    1    2    0    0 -0.33018191286E+03 -0.22163565449E+03  0.46058632595E+03  0.89671200998E+03  0.65864270000E+03 0.  1.
    8880022    1    1    2    0    0  0.33018191286E+03  0.22163565449E+03  0.17287370223E+04  0.17804678610E+04  0.15294330000E+03 0.  0.
<mgrwt>
<rscale>  0 0.66370853E+03</rscale>
<asrwt>0</asrwt>
<pdfrwt beam="1">  1        2 0.37434639E+00 0.76938460E+03</pdfrwt>
<pdfrwt beam="2">  1       -2 0.37527426E-01 0.76938460E+03</pdfrwt>
<totfact> 0.26492136E+01</totfact>
</mgrwt>
</event>
<event>
 4    2  0.6914693E-007  0.7936542E+03  0.7818608E-02  0.9724689E-01
          2   -1    0    0  501    0  0.00000000000E+00  0.00000000000E+00  0.11102518807E+04  0.11102518807E+04  0.25500000000E-02 0. -1.
         -2   -1    0    0    0  501 -0.00000000000E+00 -0.00000000000E+00 -0.37701539926E+03  0.37701539927E+03  0.25500000000E-02 0.  1.
    8880023    1    1    2    0    0 -0.15898526599E+03  0.41328004731E+03  0.29782191181E+03  0.84769381838E+03  0.65864270000E+03 0.  0.
    8880022    1    1    2    0    0  0.15898526599E+03 -0.41328004731E+03  0.43541456964E+03  0.63957346159E+03  0.15294330000E+03 0.  0.
<mgrwt>
<rscale>  0 0.69565668E+03</rscale>
<asrwt>0</asrwt>
<pdfrwt beam="1">  1        2 0.17080798E+00 0.79365416E+03</pdfrwt>
<pdfrwt beam="2">  1       -2 0.58002370E-01 0.79365416E+03</pdfrwt>
<totfact> 0.60469625E+01</totfact>
</mgrwt>
</event>
<event>
 4    2  0.6914693E-007  0.9800748E+03  0.7818608E-02  0.9408103E-01
          2   -1    0    0  501    0  0.00000000000E+00  0.00000000000E+00  0.87745874234E+03  0.87745874234E+03  0.25500000000E-02 0. -1.
         -2   -1    0    0    0  501 -0.00000000000E+00 -0.00000000000E+00 -0.25702653355E+04  0.25702653355E+04  0.25500000000E-02 0.  1.
    8880023    1    1    2    0    0 -0.24283421092E+03 -0.68393567320E+03 -0.22929515402E+04  0.24936265621E+04  0.65864270000E+03 0.  0.
    8880022    1    1    2    0    0  0.24283421092E+03  0.68393567320E+03  0.60014494706E+03  0.95409751576E+03  0.15294330000E+03 0.  0.
<mgrwt>
<rscale>  0 0.91411830E+03</rscale>
<asrwt>0</asrwt>
<pdfrwt beam="1">  1        2 0.13499365E+00 0.98007483E+03</pdfrwt>
<pdfrwt beam="2">  1       -2 0.39542543E+00 0.98007483E+03</pdfrwt>
<totfact> 0.24644827E-01</totfact>
</mgrwt>
</event>
<event>
 4    2  0.6914693E-007  0.7168177E+03  0.7818608E-02  0.9933505E-01
         -2   -1    0    0    0  501 -0.00000000000E+00  0.00000000000E+00  0.70761907547E+03  0.70761907547E+03  0.25500000000E-02 0.  1.
          2   -1    0    0  501    0  0.00000000000E+00 -0.00000000000E+00 -0.11578858154E+04  0.11578858154E+04  0.25500000000E-02 0. -1.
    8880023    1    1    2    0    0 -0.18462341036E+03  0.21431646654E+03  0.49230176413E+03  0.86959104452E+03  0.65864270000E+03 0.  1.
    8880022    1    1    2    0    0  0.18462341036E+03 -0.21431646654E+03 -0.94256850404E+03  0.99591384633E+03  0.15294330000E+03 0.  0.
<mgrwt>
<rscale>  0 0.58664627E+03</rscale>
<asrwt>0</asrwt>
<pdfrwt beam="1">  1        2 0.17813628E+00 0.71681766E+03</pdfrwt>
<pdfrwt beam="2">  1       -2 0.10886447E+00 0.71681766E+03</pdfrwt>
<totfact> 0.13839137E+01</totfact>
</mgrwt>
</event>
<event>
 4    2  0.6914693E-007  0.7364838E+03  0.7818608E-02  0.9870310E-01
          2   -1    0    0  501    0  0.00000000000E+00  0.00000000000E+00  0.24559306720E+04  0.24559306720E+04  0.25500000000E-02 0. -1.
         -2   -1    0    0    0  501 -0.00000000000E+00 -0.00000000000E+00 -0.28989171395E+03  0.28989171396E+03  0.25500000000E-02 0.  1.
    8880023    1    1    2    0    0 -0.29219447065E+03  0.15238284017E+03  0.22356895617E+03  0.76966968440E+03  0.65864270000E+03 0.  0.
    8880022    1    1    2    0    0  0.29219447065E+03 -0.15238284017E+03  0.19424700019E+04  0.19761527016E+04  0.15294330000E+03 0. -1.
<mgrwt>
<rscale>  0 0.61721991E+03</rscale>
<asrwt>0</asrwt>
<pdfrwt beam="1">  1        2 0.37783550E+00 0.73648377E+03</pdfrwt>
<pdfrwt beam="2">  1       -2 0.44598724E-01 0.73648377E+03</pdfrwt>
<totfact> 0.18432587E+01</totfact>
</mgrwt>
</event>
<event>
 4    2  0.6914693E-007  0.6700486E+03  0.7818608E-02  0.1015628E+00
         -2   -1    0    0    0  501 -0.00000000000E+00  0.00000000000E+00  0.50090938038E+03  0.50090938038E+03  0.25500000000E-02 0.  1.
          2   -1    0    0  501    0  0.00000000000E+00 -0.00000000000E+00 -0.89692148754E+03  0.89692148754E+03  0.25500000000E-02 0. -1.
    8880023    1    1    2    0    0  0.11616588979E+03 -0.40748880969E+02  0.25570547464E+03  0.71718232081E+03  0.65864270000E+03 0.  1.
    8880022    1    1    2    0    0 -0.11616588979E+03  0.40748880969E+02 -0.65171758180E+03  0.68064854712E+03  0.15294330000E+03 0.  0.
<mgrwt>
<rscale>  0 0.49297860E+03</rscale>
<asrwt>0</asrwt>
<pdfrwt beam="1">  1        2 0.13798792E+00 0.67004865E+03</pdfrwt>
<pdfrwt beam="2">  1       -2 0.77062982E-01 0.67004865E+03</pdfrwt>
<totfact> 0.45260515E+01</totfact>
</mgrwt>
</event>
<event>
 4    2  0.6914693E-007  0.8051570E+03  0.7818608E-02  0.9699754E-01
          2   -1    0    0  501    0  0.00000000000E+00  0.00000000000E+00  0.27279233702E+04  0.27279233702E+04  0.25500000000E-02 0. -1.
         -2   -1    0    0    0  501 -0.00000000000E+00 -0.00000000000E+00 -0.41664739620E+03  0.41664739621E+03  0.25500000000E-02 0.  1.
    8880023    1    1    2    0    0  0.18789658709E+03 -0.42327593817E+03  0.24963073226E+04  0.26229426419E+04  0.65864270000E+03 0. -1.
    8880022    1    1    2    0    0 -0.18789658709E+03  0.42327593817E+03 -0.18503134866E+03  0.52162812451E+03  0.15294330000E+03 0.  0.
<mgrwt>
<rscale>  0 0.71031414E+03</rscale>
<asrwt>0</asrwt>
<pdfrwt beam="1">  1        2 0.41968053E+00 0.80515704E+03</pdfrwt>
<pdfrwt beam="2">  1       -2 0.64099598E-01 0.80515704E+03</pdfrwt>
<totfact> 0.60156266E+00</totfact>
</mgrwt>
</event>
<event>
 4    2  0.6914693E-007  0.7717175E+03  0.7818608E-02  0.9775665E-01
         -2   -1    0    0    0  501 -0.00000000000E+00  0.00000000000E+00  0.19657777840E+03  0.19657777842E+03  0.25500000000E-02 0.  1.
          2   -1    0    0  501    0  0.00000000000E+00 -0.00000000000E+00 -0.21724646871E+04  0.21724646871E+04  0.25500000000E-02 0. -1.
    8880023    1    1    2    0    0 -0.27469203470E+02  0.40122703987E+03 -0.77626885289E+03  0.10945963790E+04  0.65864270000E+03 0.  1.
    8880022    1    1    2    0    0  0.27469203470E+02 -0.40122703987E+03 -0.11996180558E+04  0.12744460866E+04  0.15294330000E+03 0.  0.
<mgrwt>
<rscale>  0 0.66685002E+03</rscale>
<asrwt>0</asrwt>
<pdfrwt beam="1">  1        2 0.33422532E+00 0.77171750E+03</pdfrwt>
<pdfrwt beam="2">  1       -2 0.30242737E-01 0.77171750E+03</pdfrwt>
<totfact> 0.55658845E+01</totfact>
</mgrwt>
</event>
<event>
 4    2  0.6914693E-007  0.6890320E+03  0.7818608E-02  0.1004616E+00
          2   -1    0    0  501    0  0.00000000000E+00  0.00000000000E+00  0.15942014141E+04  0.15942014141E+04  0.25500000000E-02 0. -1.
         -2   -1    0    0    0  501 -0.00000000000E+00 -0.00000000000E+00 -0.22712102099E+03  0.22712102100E+03  0.25500000000E-02 0.  1.
    8880023    1    1    2    0    0  0.31635842333E+01 -0.20234832732E+03  0.34950349215E+03  0.77260452440E+03  0.65864270000E+03 0.  1.
    8880022    1    1    2    0    0 -0.31635842333E+01  0.20234832732E+03  0.10175769009E+04  0.10487179107E+04  0.15294330000E+03 0.  0.
<mgrwt>
<rscale>  0 0.53671676E+03</rscale>
<asrwt>0</asrwt>
<pdfrwt beam="1">  1        2 0.24526175E+00 0.68903197E+03</pdfrwt>
<pdfrwt beam="2">  1       -2 0.34941696E-01 0.68903197E+03</pdfrwt>
<totfact> 0.88627125E+01</totfact>
</mgrwt>
</event>
<event>
 4    2  0.6914693E-007  0.8051899E+03  0.7818608E-02  0.9699685E-01
          2   -1    0    0  501    0  0.00000000000E+00  0.00000000000E+00  0.21474000383E+04  0.21474000383E+04  0.25500000000E-02 0. -1.
         -2   -1    0    0    0  501 -0.00000000000E+00 -0.00000000000E+00 -0.35564647249E+03  0.35564647250E+03  0.25500000000E-02 0.  1.
    8880023    1    1    2    0    0  0.25337547517E+03 -0.38771300301E+03  0.18811874398E+03  0.82687325039E+03  0.65864270000E+03 0.  0.
    8880022    1    1    2    0    0 -0.25337547517E+03  0.38771300301E+03  0.16036348218E+04  0.16761732604E+04  0.15294330000E+03 0. -1.
<mgrwt>
<rscale>  0 0.71035559E+03</rscale>
<asrwt>0</asrwt>
<pdfrwt beam="1">  1        2 0.33036924E+00 0.80518986E+03</pdfrwt>
<pdfrwt beam="2">  1       -2 0.54714842E-01 0.80518986E+03</pdfrwt>
<totfact> 0.17888350E+01</totfact>
</mgrwt>
</event>
<event>
 4    2  0.6914693E-007  0.7140615E+03  0.7818608E-02  0.9943217E-01
         -2   -1    0    0    0  501 -0.00000000000E+00  0.00000000000E+00  0.30567294750E+03  0.30567294751E+03  0.25500000000E-02 0.  1.
          2   -1    0    0  501    0  0.00000000000E+00 -0.00000000000E+00 -0.92718082761E+03  0.92718082761E+03  0.25500000000E-02 0. -1.
    8880023    1    1    2    0    0  0.26430890752E+03  0.78831591827E+02 -0.56919583331E+03  0.91316357866E+03  0.65864270000E+03 0. -1.
    8880022    1    1    2    0    0 -0.26430890752E+03 -0.78831591827E+02 -0.52312046793E+02  0.31969019647E+03  0.15294330000E+03 0.  1.
<mgrwt>
<rscale>  0 0.58211749E+03</rscale>
<asrwt>0</asrwt>
<pdfrwt beam="1">  1        2 0.14264320E+00 0.71406150E+03</pdfrwt>
<pdfrwt beam="2">  1       -2 0.47026608E-01 0.71406150E+03</pdfrwt>
<totfact> 0.12227493E+02</totfact>
</mgrwt>
</event>
<event>
 4    2  0.6914693E-007  0.1120848E+04  0.7818608E-02  0.9238192E-01
         -2   -1    0    0    0  501 -0.00000000000E+00  0.00000000000E+00  0.54099376734E+03  0.54099376735E+03  0.25500000000E-02 0.  1.
          2   -1    0    0  501    0  0.00000000000E+00 -0.00000000000E+00 -0.23822314648E+04  0.23822314648E+04  0.25500000000E-02 0. -1.
    8880023    1    1    2    0    0  0.90301153428E+03 -0.84022481740E+02 -0.35553239636E+03  0.11758839652E+04  0.65864270000E+03 0.  0.
    8880022    1    1    2    0    0 -0.90301153428E+03  0.84022481740E+02 -0.14857053011E+04  0.17473412670E+04  0.15294330000E+03 0.  0.
<mgrwt>
<rscale>  0 0.10667770E+04</rscale>
<asrwt>0</asrwt>
<pdfrwt beam="1">  1        2 0.36649714E+00 0.11208478E+04</pdfrwt>
<pdfrwt beam="2">  1       -2 0.83229812E-01 0.11208478E+04</pdfrwt>
<totfact> 0.51088718E+00</totfact>
</mgrwt>
</event>
<event>
 4    2  0.6914693E-007  0.6802153E+03  0.7818608E-02  0.1009202E+00
         -2   -1    0    0    0  501 -0.00000000000E+00  0.00000000000E+00  0.31793575276E+03  0.31793575277E+03  0.25500000000E-02 0.  1.
          2   -1    0    0  501    0  0.00000000000E+00 -0.00000000000E+00 -0.13559693200E+04  0.13559693200E+04  0.25500000000E-02 0. -1.
    8880023    1    1    2    0    0  0.23776687586E+01 -0.16993242363E+03 -0.75271648153E+02  0.68436737882E+03  0.65864270000E+03 0.  1.
    8880022    1    1    2    0    0 -0.23776687586E+01  0.16993242363E+03 -0.96276191906E+03  0.98953769393E+03  0.15294330000E+03 0.  0.
<mgrwt>
<rscale>  0 0.51792977E+03</rscale>
<asrwt>0</asrwt>
<pdfrwt beam="1">  1        2 0.20861066E+00 0.68021532E+03</pdfrwt>
<pdfrwt beam="2">  1       -2 0.48913193E-01 0.68021532E+03</pdfrwt>
<totfact> 0.62292703E+01</totfact>
</mgrwt>
</event>
<event>
 4    2  0.6914693E-007  0.1026902E+04  0.7818608E-02  0.9347178E-01
         -2   -1    0    0    0  501 -0.00000000000E+00  0.00000000000E+00  0.14210607823E+04  0.14210607823E+04  0.25500000000E-02 0.  1.
          2   -1    0    0  501    0  0.00000000000E+00 -0.00000000000E+00 -0.13747955648E+04  0.13747955648E+04  0.25500000000E-02 0. -1.
    8880023    1    1    2    0    0  0.56023084836E+03 -0.55394896248E+03  0.10779326872E+04  0.14887804207E+04  0.65864270000E+03 0.  0.
    8880022    1    1    2    0    0 -0.56023084836E+03  0.55394896248E+03 -0.10316674696E+04  0.13070759264E+04  0.15294330000E+03 0.  0.
<mgrwt>
<rscale>  0 0.96553232E+03</rscale>
<asrwt>0</asrwt>
<pdfrwt beam="1">  1        2 0.21150701E+00 0.10269023E+04</pdfrwt>
<pdfrwt beam="2">  1       -2 0.21862474E+00 0.10269023E+04</pdfrwt>
<totfact> 0.14946714E+00</totfact>
</mgrwt>
</event>
<event>
 4    2  0.6914693E-007  0.1273785E+04  0.7818608E-02  0.9088535E-01
          2   -1    0    0  501    0  0.00000000000E+00  0.00000000000E+00  0.17611905091E+04  0.17611905091E+04  0.25500000000E-02 0. -1.
         -2   -1    0    0    0  501 -0.00000000000E+00 -0.00000000000E+00 -0.88603344956E+03  0.88603344956E+03  0.25500000000E-02 0.  1.
    8880023    1    1    2    0    0 -0.88345452686E+03 -0.63892669876E+03  0.87658587459E+03  0.15462639585E+04  0.65864270000E+03 0.  0.
    8880022    1    1    2    0    0  0.88345452686E+03  0.63892669876E+03 -0.14288150947E+01  0.11009600002E+04  0.15294330000E+03 0.  0.
<mgrwt>
<rscale>  0 0.12281885E+04</rscale>
<asrwt>0</asrwt>
<pdfrwt beam="1">  1        2 0.27095238E+00 0.12737855E+04</pdfrwt>
<pdfrwt beam="2">  1       -2 0.13631284E+00 0.12737855E+04</pdfrwt>
<totfact> 0.33727175E+00</totfact>
</mgrwt>
</event>
<event>
 4    2  0.6914693E-007  0.7581305E+03  0.7818608E-02  0.9809972E-01
          2   -1    0    0  501    0  0.00000000000E+00  0.00000000000E+00  0.15675719069E+04  0.15675719069E+04  0.25500000000E-02 0. -1.
         -2   -1    0    0    0  501 -0.00000000000E+00 -0.00000000000E+00 -0.25907877945E+03  0.25907877946E+03  0.25500000000E-02 0.  1.
    8880023    1    1    2    0    0  0.35449627567E+02 -0.37375797652E+03  0.46126275084E+03  0.88742618436E+03  0.65864270000E+03 0.  1.
    8880022    1    1    2    0    0 -0.35449627567E+02  0.37375797652E+03  0.84723037657E+03  0.93922450197E+03  0.15294330000E+03 0.  0.
<mgrwt>
<rscale>  0 0.64830148E+03</rscale>
<asrwt>0</asrwt>
<pdfrwt beam="1">  1        2 0.24116491E+00 0.75813053E+03</pdfrwt>
<pdfrwt beam="2">  1       -2 0.39858273E-01 0.75813053E+03</pdfrwt>
<totfact> 0.70655954E+01</totfact>
</mgrwt>
</event>
<event>
 4    2  0.6914693E-007  0.9142314E+03  0.7818608E-02  0.9503561E-01
         -2   -1    0    0    0  501 -0.00000000000E+00  0.00000000000E+00  0.27920579269E+03  0.27920579270E+03  0.25500000000E-02 0.  1.
          2   -1    0    0  501    0  0.00000000000E+00 -0.00000000000E+00 -0.22819122225E+04  0.22819122225E+04  0.25500000000E-02 0. -1.
    8880023    1    1    2    0    0 -0.55837744263E+03 -0.30037215049E+03 -0.91911261742E+03  0.12963745628E+04  0.65864270000E+03 0. -1.
    8880022    1    1    2    0    0  0.55837744263E+03  0.30037215049E+03 -0.10835938124E+04  0.12647434525E+04  0.15294330000E+03 0.  0.
<mgrwt>
<rscale>  0 0.84021771E+03</rscale>
<asrwt>0</asrwt>
<pdfrwt beam="1">  1        2 0.35106341E+00 0.91423137E+03</pdfrwt>
<pdfrwt beam="2">  1       -2 0.42954739E-01 0.91423137E+03</pdfrwt>
<totfact> 0.24277944E+01</totfact>
</mgrwt>
</event>
<event>
 4    2  0.6914693E-007  0.8296374E+03  0.7818608E-02  0.9650038E-01
         -2   -1    0    0    0  501 -0.00000000000E+00  0.00000000000E+00  0.32358527185E+03  0.32358527186E+03  0.25500000000E-02 0.  1.
          2   -1    0    0  501    0  0.00000000000E+00 -0.00000000000E+00 -0.31163976439E+04  0.31163976439E+04  0.25500000000E-02 0. -1.
    8880023    1    1    2    0    0  0.17373806980E+03  0.47360653361E+03 -0.28478312757E+03  0.87715432028E+03  0.65864270000E+03 0.  1.
    8880022    1    1    2    0    0 -0.17373806980E+03 -0.47360653361E+03 -0.25080292444E+04  0.25628285954E+04  0.15294330000E+03 0.  0.
<mgrwt>
<rscale>  0 0.74071026E+03</rscale>
<asrwt>0</asrwt>
<pdfrwt beam="1">  1        2 0.47944577E+00 0.82963743E+03</pdfrwt>
<pdfrwt beam="2">  1       -2 0.49782352E-01 0.82963743E+03</pdfrwt>
<totfact> 0.59106529E+00</totfact>
</mgrwt>
</event>
<event>
 4    2  0.6914693E-007  0.7572791E+03  0.7818608E-02  0.9812203E-01
         -2   -1    0    0    0  501 -0.00000000000E+00  0.00000000000E+00  0.64672025820E+03  0.64672025820E+03  0.25500000000E-02 0.  1.
          2   -1    0    0  501    0  0.00000000000E+00 -0.00000000000E+00 -0.12160333178E+04  0.12160333178E+04  0.25500000000E-02 0. -1.
    8880023    1    1    2    0    0  0.35657533618E+03 -0.11187225518E+03  0.36814889218E+03  0.84202445625E+03  0.65864270000E+03 0.  1.
    8880022    1    1    2    0    0 -0.35657533618E+03  0.11187225518E+03 -0.93746195174E+03  0.10207291197E+04  0.15294330000E+03 0.  0.
<mgrwt>
<rscale>  0 0.64711739E+03</rscale>
<asrwt>0</asrwt>
<pdfrwt beam="1">  1        2 0.18708205E+00 0.75727906E+03</pdfrwt>
<pdfrwt beam="2">  1       -2 0.99495425E-01 0.75727906E+03</pdfrwt>
<totfact> 0.15778140E+01</totfact>
</mgrwt>
</event>
<event>
 4    2  0.6914693E-007  0.6805717E+03  0.7818608E-02  0.1009002E+00
         -2   -1    0    0    0  501 -0.00000000000E+00  0.00000000000E+00  0.35890259212E+03  0.35890259213E+03  0.25500000000E-02 0.  1.
          2   -1    0    0  501    0  0.00000000000E+00 -0.00000000000E+00 -0.10294697681E+04  0.10294697681E+04  0.25500000000E-02 0. -1.
    8880023    1    1    2    0    0 -0.16816035586E+03  0.33010097865E+02 -0.10737751172E+01  0.68057250246E+03  0.65864270000E+03 0.  1.
    8880022    1    1    2    0    0  0.16816035586E+03 -0.33010097865E+02 -0.66949340087E+03  0.70779985777E+03  0.15294330000E+03 0.  0.
<mgrwt>
<rscale>  0 0.51873159E+03</rscale>
<asrwt>0</asrwt>
<pdfrwt beam="1">  1        2 0.15837996E+00 0.68057166E+03</pdfrwt>
<pdfrwt beam="2">  1       -2 0.55215784E-01 0.68057166E+03</pdfrwt>
<totfact> 0.75914886E+01</totfact>
</mgrwt>
</event>
<event>
 4    2  0.6914693E-007  0.7328013E+03  0.7818608E-02  0.9881435E-01
         -2   -1    0    0    0  501 -0.00000000000E+00  0.00000000000E+00  0.43137130810E+03  0.43137130811E+03  0.25500000000E-02 0.  1.
          2   -1    0    0  501    0  0.00000000000E+00 -0.00000000000E+00 -0.78163413364E+03  0.78163413365E+03  0.25500000000E-02 0. -1.
    8880023    1    1    2    0    0  0.31479557536E+03 -0.63963504435E+02 -0.28576426664E+02  0.73335830437E+03  0.65864270000E+03 0.  1.
    8880022    1    1    2    0    0 -0.31479557536E+03  0.63963504435E+02 -0.32168639887E+03  0.47964713739E+03  0.15294330000E+03 0.  0.
<mgrwt>
<rscale>  0 0.61169509E+03</rscale>
<asrwt>0</asrwt>
<pdfrwt beam="1">  1        2 0.12025140E+00 0.73280133E+03</pdfrwt>
<pdfrwt beam="2">  1       -2 0.66364817E-01 0.73280133E+03</pdfrwt>
<totfact> 0.75204437E+01</totfact>
</mgrwt>
</event>
<event>
 4    2  0.6914693E-007  0.7282463E+03  0.7818608E-02  0.9895611E-01
          2   -1    0    0  501    0  0.00000000000E+00  0.00000000000E+00  0.55341400192E+04  0.55341400192E+04  0.25500000000E-02 0. -1.
         -2   -1    0    0    0  501 -0.00000000000E+00 -0.00000000000E+00 -0.24614720552E+03  0.24614720553E+03  0.25500000000E-02 0.  1.
    8880023    1    1    2    0    0 -0.23721790294E+03  0.20064928974E+03  0.31201341724E+03  0.79227208063E+03  0.65864270000E+03 0.  0.
    8880022    1    1    2    0    0  0.23721790294E+03 -0.20064928974E+03  0.49759793965E+04  0.49880151441E+04  0.15294330000E+03 0.  0.
<mgrwt>
<rscale>  0 0.60474465E+03</rscale>
<asrwt>0</asrwt>
<pdfrwt beam="1">  1        2 0.85140615E+00 0.72824630E+03</pdfrwt>
<pdfrwt beam="2">  1       -2 0.37868801E-01 0.72824630E+03</pdfrwt>
<totfact> 0.42593986E-02</totfact>
</mgrwt>
</event>
<event>
 4    2  0.6914693E-007  0.1146105E+04  0.7818608E-02  0.9211380E-01
          2   -1    0    0  501    0  0.00000000000E+00  0.00000000000E+00  0.30120791321E+04  0.30120791321E+04  0.25500000000E-02 0. -1.
         -2   -1    0    0    0  501 -0.00000000000E+00 -0.00000000000E+00 -0.64495154844E+03  0.64495154844E+03  0.25500000000E-02 0.  1.
    8880023    1    1    2    0    0 -0.76873587339E+03 -0.53739401638E+03  0.43899763767E+02  0.11469457561E+04  0.65864270000E+03 0.  0.
    8880022    1    1    2    0    0  0.76873587339E+03  0.53739401638E+03  0.23232278199E+04  0.25100849245E+04  0.15294330000E+03 0.  0.
<mgrwt>
<rscale>  0 0.10936735E+04</rscale>
<asrwt>0</asrwt>
<pdfrwt beam="1">  1        2 0.46339679E+00 0.11461053E+04</pdfrwt>
<pdfrwt beam="2">  1       -2 0.99223316E-01 0.11461053E+04</pdfrwt>
<totfact> 0.14369050E+00</totfact>
</mgrwt>
</event>
<event>
 4    2  0.6914693E-007  0.7887484E+03  0.7818608E-02  0.9735674E-01
          2   -1    0    0  501    0  0.00000000000E+00  0.00000000000E+00  0.20319071582E+04  0.20319071582E+04  0.25500000000E-02 0. -1.
         -2   -1    0    0    0  501 -0.00000000000E+00 -0.00000000000E+00 -0.52367062043E+03  0.52367062044E+03  0.25500000000E-02 0.  1.
    8880023    1    1    2    0    0  0.35365223065E+03 -0.25148357628E+03 -0.17724820362E+03  0.80841884029E+03  0.65864270000E+03 0.  1.
    8880022    1    1    2    0    0 -0.35365223065E+03  0.25148357628E+03  0.16854847414E+04  0.17471589383E+04  0.15294330000E+03 0.  0.
<mgrwt>
<rscale>  0 0.68931926E+03</rscale>
<asrwt>0</asrwt>
<pdfrwt beam="1">  1        2 0.31260109E+00 0.78874844E+03</pdfrwt>
<pdfrwt beam="2">  1       -2 0.80564714E-01 0.78874844E+03</pdfrwt>
<totfact> 0.89900474E+00</totfact>
</mgrwt>
</event>
<event>
 4    2  0.6914693E-007  0.6828876E+03  0.7818608E-02  0.1007735E+00
          2   -1    0    0  501    0  0.00000000000E+00  0.00000000000E+00  0.13930714512E+04  0.13930714512E+04  0.25500000000E-02 0. -1.
         -2   -1    0    0    0  501 -0.00000000000E+00 -0.00000000000E+00 -0.31622076775E+03  0.31622076776E+03  0.25500000000E-02 0.  1.
    8880023    1    1    2    0    0  0.58677849327E+02  0.17053490836E+03  0.83253244816E+02  0.68794371427E+03  0.65864270000E+03 0.  1.
    8880022    1    1    2    0    0 -0.58677849327E+02 -0.17053490836E+03  0.99359743864E+03  0.10213485047E+04  0.15294330000E+03 0.  0.
<mgrwt>
<rscale>  0 0.52384740E+03</rscale>
<asrwt>0</asrwt>
<pdfrwt beam="1">  1        2 0.21431868E+00 0.68288758E+03</pdfrwt>
<pdfrwt beam="2">  1       -2 0.48649349E-01 0.68288758E+03</pdfrwt>
<totfact> 0.59987883E+01</totfact>
</mgrwt>
</event>
<event>
 4    2  0.6914693E-007  0.9807612E+03  0.7818608E-02  0.9407172E-01
          2   -1    0    0  501    0  0.00000000000E+00  0.00000000000E+00  0.11491995547E+04  0.11491995547E+04  0.25500000000E-02 0. -1.
         -2   -1    0    0    0  501 -0.00000000000E+00 -0.00000000000E+00 -0.67589538175E+03  0.67589538176E+03  0.25500000000E-02 0.  1.
    8880023    1    1    2    0    0 -0.71733492332E+03 -0.11624546960E+03  0.45773494553E+03  0.10823187553E+04  0.65864270000E+03 0. -1.
    8880022    1    1    2    0    0  0.71733492332E+03  0.11624546960E+03  0.15569227380E+02  0.74277618114E+03  0.15294330000E+03 0.  0.
<mgrwt>
<rscale>  0 0.91487783E+03</rscale>
<asrwt>0</asrwt>
<pdfrwt beam="1">  1        2 0.17679993E+00 0.98076124E+03</pdfrwt>
<pdfrwt beam="2">  1       -2 0.10398391E+00 0.98076124E+03</pdfrwt>
<totfact> 0.15223393E+01</totfact>
</mgrwt>
</event>
<event>
 4    2  0.6914693E-007  0.7679130E+03  0.7818608E-02  0.9785036E-01
          2   -1    0    0  501    0  0.00000000000E+00  0.00000000000E+00  0.90822046516E+03  0.90822046517E+03  0.25500000000E-02 0. -1.
         -2   -1    0    0    0  501 -0.00000000000E+00 -0.00000000000E+00 -0.41448831354E+03  0.41448831354E+03  0.25500000000E-02 0.  1.
    8880023    1    1    2    0    0 -0.20817531159E+03  0.33547461387E+03  0.46633093036E+03  0.89841800949E+03  0.65864270000E+03 0. -1.
    8880022    1    1    2    0    0  0.20817531159E+03 -0.33547461387E+03  0.27401221270E+02  0.42429076922E+03  0.15294330000E+03 0.  1.
<mgrwt>
<rscale>  0 0.66171811E+03</rscale>
<asrwt>0</asrwt>
<pdfrwt beam="1">  1        2 0.13972622E+00 0.76791300E+03</pdfrwt>
<pdfrwt beam="2">  1       -2 0.63767434E-01 0.76791300E+03</pdfrwt>
<totfact> 0.66686761E+01</totfact>
</mgrwt>
</event>
<event>
 4    2  0.6914693E-007  0.7848591E+03  0.7818608E-02  0.9744544E-01
          2   -1    0    0  501    0  0.00000000000E+00  0.00000000000E+00  0.21691414541E+04  0.21691414541E+04  0.25500000000E-02 0. -1.
         -2   -1    0    0    0  501 -0.00000000000E+00 -0.00000000000E+00 -0.21809465018E+03  0.21809465019E+03  0.25500000000E-02 0.  1.
    8880023    1    1    2    0    0  0.35569268360E+03 -0.23595843067E+03  0.68253037985E+03  0.10401209506E+04  0.65864270000E+03 0.  0.
    8880022    1    1    2    0    0 -0.35569268360E+03  0.23595843067E+03  0.12685164240E+04  0.13471151537E+04  0.15294330000E+03 0.  0.
<mgrwt>
<rscale>  0 0.68425472E+03</rscale>
<asrwt>0</asrwt>
<pdfrwt beam="1">  1        2 0.33371409E+00 0.78485914E+03</pdfrwt>
<pdfrwt beam="2">  1       -2 0.33553021E-01 0.78485914E+03</pdfrwt>
<totfact> 0.45927576E+01</totfact>
</mgrwt>
</event>
<event>
 4    2  0.6914693E-007  0.7984607E+03  0.7818608E-02  0.9714134E-01
          2   -1    0    0  501    0  0.00000000000E+00  0.00000000000E+00  0.59831537393E+03  0.59831537393E+03  0.25500000000E-02 0. -1.
         -2   -1    0    0    0  501 -0.00000000000E+00 -0.00000000000E+00 -0.14630897147E+04  0.14630897147E+04  0.25500000000E-02 0.  1.
    8880023    1    1    2    0    0  0.44309860404E+03 -0.85982085340E+02 -0.12262219435E+04  0.14632702255E+04  0.65864270000E+03 0.  1.
    8880022    1    1    2    0    0 -0.44309860404E+03  0.85982085340E+02  0.36144760275E+03  0.59813486310E+03  0.15294330000E+03 0.  0.
<mgrwt>
<rscale>  0 0.70181446E+03</rscale>
<asrwt>0</asrwt>
<pdfrwt beam="1">  1        2 0.92048520E-01 0.79846071E+03</pdfrwt>
<pdfrwt beam="2">  1       -2 0.22509072E+00 0.79846071E+03</pdfrwt>
<totfact> 0.46515339E+00</totfact>
</mgrwt>
</event>
<event>
 4    2  0.6914693E-007  0.1184368E+04  0.7818608E-02  0.9172470E-01
         -2   -1    0    0    0  501 -0.00000000000E+00  0.00000000000E+00  0.10753634633E+04  0.10753634633E+04  0.25500000000E-02 0.  1.
          2   -1    0    0  501    0  0.00000000000E+00 -0.00000000000E+00 -0.11564545823E+04  0.11564545823E+04  0.25500000000E-02 0. -1.
    8880023    1    1    2    0    0  0.97900913709E+03  0.10226272887E+03 -0.27761946045E+03  0.12164700273E+04  0.65864270000E+03 0. -1.
    8880022    1    1    2    0    0 -0.97900913709E+03 -0.10226272887E+03  0.19652834150E+03  0.10153480183E+04  0.15294330000E+03 0.  1.
<mgrwt>
<rscale>  0 0.11342159E+04</rscale>
<asrwt>0</asrwt>
<pdfrwt beam="1">  1        2 0.17791609E+00 0.11843677E+04</pdfrwt>
<pdfrwt beam="2">  1       -2 0.16544053E+00 0.11843677E+04</pdfrwt>
<totfact> 0.45021653E+00</totfact>
</mgrwt>
</event>
<event>
 4    2  0.6914693E-007  0.9979807E+03  0.7818608E-02  0.9384204E-01
          2   -1    0    0  501    0  0.00000000000E+00  0.00000000000E+00  0.14856375411E+04  0.14856375411E+04  0.25500000000E-02 0. -1.
         -2   -1    0    0    0  501 -0.00000000000E+00 -0.00000000000E+00 -0.71158910868E+03  0.71158910868E+03  0.25500000000E-02 0.  1.
    8880023    1    1    2    0    0 -0.10373867792E+02 -0.74969842993E+03 -0.13712729576E+03  0.10073576597E+04  0.65864270000E+03 0.  1.
    8880022    1    1    2    0    0  0.10373867792E+02  0.74969842993E+03  0.91117572815E+03  0.11898689901E+04  0.15294330000E+03 0.  0.
<mgrwt>
<rscale>  0 0.93387090E+03</rscale>
<asrwt>0</asrwt>
<pdfrwt beam="1">  1        2 0.22855962E+00 0.99798074E+03</pdfrwt>
<pdfrwt beam="2">  1       -2 0.10947525E+00 0.99798074E+03</pdfrwt>
<totfact> 0.85525760E+00</totfact>
</mgrwt>
</event>
<event>
 4    2  0.6914693E-007  0.1101275E+04  0.7818608E-02  0.9259638E-01
          2   -1    0    0  501    0  0.00000000000E+00  0.00000000000E+00  0.35064320326E+04  0.35064320326E+04  0.25500000000E-02 0. -1.
         -2   -1    0    0    0  501 -0.00000000000E+00 -0.00000000000E+00 -0.28991287390E+03  0.28991287391E+03  0.25500000000E-02 0.  1.
    8880023    1    1    2    0    0 -0.84243723066E+03  0.26323994073E+03  0.15089096398E+04  0.18680509258E+04  0.65864270000E+03 0.  0.
    8880022    1    1    2    0    0  0.84243723066E+03 -0.26323994073E+03  0.17076095189E+04  0.19282939807E+04  0.15294330000E+03 0.  0.
<mgrwt>
<rscale>  0 0.10458509E+04</rscale>
<asrwt>0</asrwt>
<pdfrwt beam="1">  1        2 0.53945112E+00 0.11012747E+04</pdfrwt>
<pdfrwt beam="2">  1       -2 0.44601978E-01 0.11012747E+04</pdfrwt>
<totfact> 0.39201804E+00</totfact>
</mgrwt>
</event>
<event>
 4    2  0.6914693E-007  0.6683015E+03  0.7818608E-02  0.1016911E+00
         -2   -1    0    0    0  501 -0.00000000000E+00  0.00000000000E+00  0.12477959917E+03  0.12477959920E+03  0.25500000000E-02 0.  1.
          2   -1    0    0  501    0  0.00000000000E+00 -0.00000000000E+00 -0.14789725942E+04  0.14789725942E+04  0.25500000000E-02 0. -1.
    8880023    1    1    2    0    0 -0.11192009401E+03 -0.17046320506E+02 -0.10782212274E+04  0.12685377038E+04  0.65864270000E+03 0. -1.
    8880022    1    1    2    0    0  0.11192009401E+03  0.17046320506E+02 -0.27597176755E+03  0.33521448952E+03  0.15294330000E+03 0. -1.
<mgrwt>
<rscale>  0 0.48818047E+03</rscale>
<asrwt>0</asrwt>
<pdfrwt beam="1">  1        2 0.22753423E+00 0.66830150E+03</pdfrwt>
<pdfrwt beam="2">  1       -2 0.19196862E-01 0.66830150E+03</pdfrwt>
<totfact> 0.30470653E+02</totfact>
</mgrwt>
</event>
<event>
 4    2  0.6914693E-007  0.6725910E+03  0.7818608E-02  0.1013870E+00
         -2   -1    0    0    0  501 -0.00000000000E+00  0.00000000000E+00  0.17192720658E+03  0.17192720660E+03  0.25500000000E-02 0.  1.
          2   -1    0    0  501    0  0.00000000000E+00 -0.00000000000E+00 -0.30308619520E+04  0.30308619520E+04  0.25500000000E-02 0. -1.
    8880023    1    1    2    0    0  0.11141210801E+03  0.78458863929E+02 -0.50782329595E+03  0.84277111799E+03  0.65864270000E+03 0.  1.
    8880022    1    1    2    0    0 -0.11141210801E+03 -0.78458863929E+02 -0.23511114495E+04  0.23600180406E+04  0.15294330000E+03 0.  0.
<mgrwt>
<rscale>  0 0.49965226E+03</rscale>
<asrwt>0</asrwt>
<pdfrwt beam="1">  1        2 0.46628642E+00 0.67259100E+03</pdfrwt>
<pdfrwt beam="2">  1       -2 0.26450342E-01 0.67259100E+03</pdfrwt>
<totfact> 0.23128063E+01</totfact>
</mgrwt>
</event>
<event>
 4    2  0.6914693E-007  0.6615663E+03  0.7818608E-02  0.1022606E+00
          2   -1    0    0  501    0  0.00000000000E+00  0.00000000000E+00  0.71799484945E+03  0.71799484945E+03  0.25500000000E-02 0. -1.
         -2   -1    0    0    0  501 -0.00000000000E+00 -0.00000000000E+00 -0.61176665535E+03  0.61176665536E+03  0.25500000000E-02 0.  1.
    8880023    1    1    2    0    0 -0.22041465987E+02  0.58085940907E+02 -0.41638580105E+03  0.78169504561E+03  0.65864270000E+03 0.  0.
    8880022    1    1    2    0    0  0.22041465987E+02 -0.58085940907E+02  0.52261399515E+03  0.54806645920E+03  0.15294330000E+03 0. -1.
<mgrwt>
<rscale>  0 0.46757767E+03</rscale>
<asrwt>0</asrwt>
<pdfrwt beam="1">  1        2 0.11046075E+00 0.66156633E+03</pdfrwt>
<pdfrwt beam="2">  1       -2 0.94117947E-01 0.66156633E+03</pdfrwt>
<totfact> 0.38582316E+01</totfact>
</mgrwt>
</event>
<event>
 4    2  0.6914693E-007  0.7313703E+03  0.7818608E-02  0.9885838E-01
         -2   -1    0    0    0  501 -0.00000000000E+00  0.00000000000E+00  0.55995700816E+03  0.55995700817E+03  0.25500000000E-02 0.  1.
          2   -1    0    0  501    0  0.00000000000E+00 -0.00000000000E+00 -0.10770313260E+04  0.10770313260E+04  0.25500000000E-02 0. -1.
    8880023    1    1    2    0    0  0.24356411562E+03  0.20437408681E+03  0.26588776560E+03  0.77820225901E+03  0.65864270000E+03 0.  1.
    8880022    1    1    2    0    0 -0.24356411562E+03 -0.20437408681E+03 -0.78296208346E+03  0.85878607518E+03  0.15294330000E+03 0.  0.
<mgrwt>
<rscale>  0 0.60952584E+03</rscale>
<asrwt>0</asrwt>
<pdfrwt beam="1">  1        2 0.16569713E+00 0.73137026E+03</pdfrwt>
<pdfrwt beam="2">  1       -2 0.86147232E-01 0.73137026E+03</pdfrwt>
<totfact> 0.26811581E+01</totfact>
</mgrwt>
</event>
<event>
 4    2  0.6914693E-007  0.1071132E+04  0.7818608E-02  0.9293899E-01
         -2   -1    0    0    0  501 -0.00000000000E+00  0.00000000000E+00  0.74383590935E+03  0.74383590936E+03  0.25500000000E-02 0.  1.
          2   -1    0    0  501    0  0.00000000000E+00 -0.00000000000E+00 -0.28844664178E+04  0.28844664178E+04  0.25500000000E-02 0. -1.
    8880023    1    1    2    0    0 -0.78008890233E+03  0.32399883252E+03  0.23994711289E+03  0.10976788065E+04  0.65864270000E+03 0.  0.
    8880022    1    1    2    0    0  0.78008890233E+03 -0.32399883252E+03 -0.23805776214E+04  0.25306235207E+04  0.15294330000E+03 0.  0.
<mgrwt>
<rscale>  0 0.10134651E+04</rscale>
<asrwt>0</asrwt>
<pdfrwt beam="1">  1        2 0.44376406E+00 0.10711322E+04</pdfrwt>
<pdfrwt beam="2">  1       -2 0.11443629E+00 0.10711322E+04</pdfrwt>
<totfact> 0.12312319E+00</totfact>
</mgrwt>
</event>
<event>
 4    2  0.6914693E-007  0.6845783E+03  0.7818608E-02  0.1006844E+00
          2   -1    0    0  501    0  0.00000000000E+00  0.00000000000E+00  0.59995901994E+03  0.59995901994E+03  0.25500000000E-02 0. -1.
         -2   -1    0    0    0  501 -0.00000000000E+00 -0.00000000000E+00 -0.65022236122E+03  0.65022236123E+03  0.25500000000E-02 0.  1.
    8880023    1    1    2    0    0  0.68665514987E+02  0.17355774029E+03 -0.42404787656E+03  0.80527265571E+03  0.65864270000E+03 0.  0.
    8880022    1    1    2    0    0 -0.68665514987E+02 -0.17355774029E+03  0.37378453528E+03  0.44490872546E+03  0.15294330000E+03 0.  0.
<mgrwt>
<rscale>  0 0.52748445E+03</rscale>
<asrwt>0</asrwt>
<pdfrwt beam="1">  1        2 0.92301387E-01 0.68457830E+03</pdfrwt>
<pdfrwt beam="2">  1       -2 0.10003421E+00 0.68457830E+03</pdfrwt>
<totfact> 0.41659426E+01</totfact>
</mgrwt>
</event>
<event>
 4    2  0.6914693E-007  0.9578310E+03  0.7818608E-02  0.9438935E-01
          2   -1    0    0  501    0  0.00000000000E+00  0.00000000000E+00  0.20586421170E+04  0.20586421170E+04  0.25500000000E-02 0. -1.
         -2   -1    0    0    0  501 -0.00000000000E+00 -0.00000000000E+00 -0.64120307239E+03  0.64120307239E+03  0.25500000000E-02 0.  1.
    8880023    1    1    2    0    0 -0.23847827927E+03  0.65326731601E+03 -0.15817594269E+03  0.97080374482E+03  0.65864270000E+03 0.  0.
    8880022    1    1    2    0    0  0.23847827927E+03 -0.65326731601E+03  0.15756149873E+04  0.17290414446E+04  0.15294330000E+03 0.  0.
<mgrwt>
<rscale>  0 0.88939564E+03</rscale>
<asrwt>0</asrwt>
<pdfrwt beam="1">  1        2 0.31671418E+00 0.95783103E+03</pdfrwt>
<pdfrwt beam="2">  1       -2 0.98646625E-01 0.95783103E+03</pdfrwt>
<totfact> 0.53218271E+00</totfact>
</mgrwt>
</event>
<event>
 4    2  0.6914693E-007  0.7767323E+03  0.7818608E-02  0.9763570E-01
          2   -1    0    0  501    0  0.00000000000E+00  0.00000000000E+00  0.13241851038E+04  0.13241851038E+04  0.25500000000E-02 0. -1.
         -2   -1    0    0    0  501 -0.00000000000E+00 -0.00000000000E+00 -0.58596708135E+03  0.58596708136E+03  0.25500000000E-02 0.  1.
    8880023    1    1    2    0    0  0.32586771091E+03  0.25162081270E+03 -0.26040035344E+03  0.81921996358E+03  0.65864270000E+03 0.  1.
    8880022    1    1    2    0    0 -0.32586771091E+03 -0.25162081270E+03  0.99861837592E+03  0.10909322216E+04  0.15294330000E+03 0.  0.
<mgrwt>
<rscale>  0 0.67354788E+03</rscale>
<asrwt>0</asrwt>
<pdfrwt beam="1">  1        2 0.20372078E+00 0.77673226E+03</pdfrwt>
<pdfrwt beam="2">  1       -2 0.90148784E-01 0.77673226E+03</pdfrwt>
<totfact> 0.17151167E+01</totfact>
</mgrwt>
</event>
<event>
 4    2  0.6914693E-007  0.7199207E+03  0.7818608E-02  0.9922855E-01
         -2   -1    0    0    0  501 -0.00000000000E+00  0.00000000000E+00  0.17117411127E+03  0.17117411129E+03  0.25500000000E-02 0.  1.
          2   -1    0    0  501    0  0.00000000000E+00 -0.00000000000E+00 -0.19203154520E+04  0.19203154520E+04  0.25500000000E-02 0. -1.
    8880023    1    1    2    0    0 -0.23142637813E+03 -0.17583338051E+03 -0.15457571915E+04  0.17051835818E+04  0.65864270000E+03 0. -1.
    8880022    1    1    2    0    0  0.23142637813E+03  0.17583338051E+03 -0.20338414924E+03  0.38630598154E+03  0.15294330000E+03 0.  0.
<mgrwt>
<rscale>  0 0.59166333E+03</rscale>
<asrwt>0</asrwt>
<pdfrwt beam="1">  1        2 0.29543313E+00 0.71992066E+03</pdfrwt>
<pdfrwt beam="2">  1       -2 0.26334480E-01 0.71992066E+03</pdfrwt>
<totfact> 0.99180712E+01</totfact>
</mgrwt>
</event>
<event>
 4    2  0.7956104E-007  0.8689253E+03  0.7818608E-02  0.9577880E-01
          2   -1    0    0  501    0  0.00000000000E+00  0.00000000000E+00  0.18902357120E+04  0.18902357120E+04  0.25500000000E-02 0. -1.
         -2   -1    0    0    0  501 -0.00000000000E+00 -0.00000000000E+00 -0.86764790369E+03  0.86764790369E+03  0.25500000000E-02 0.  1.
    8880023    1    1    2    0    0 -0.55911431495E+03  0.92801951830E+02 -0.58430935705E+03  0.10471144400E+04  0.65864270000E+03 0.  0.
    8880022    1    1    2    0    0  0.55911431495E+03 -0.92801951830E+02  0.16068971653E+04  0.17107691757E+04  0.15294330000E+03 0.  0.
<mgrwt>
<rscale>  0 0.78777691E+03</rscale>
<asrwt>0</asrwt>
<pdfrwt beam="1">  1        2 0.29080549E+00 0.86892533E+03</pdfrwt>
<pdfrwt beam="2">  1       -2 0.13348429E+00 0.86892533E+03</pdfrwt>
<totfact> 0.31684591E+00</totfact>
</mgrwt>
</event>
<event>
 4    2  0.6914693E-007  0.6886900E+03  0.7818608E-02  0.1004782E+00
         -2   -1    0    0    0  501 -0.00000000000E+00  0.00000000000E+00  0.16242528889E+03  0.16242528891E+03  0.25500000000E-02 0.  1.
          2   -1    0    0  501    0  0.00000000000E+00 -0.00000000000E+00 -0.15248953348E+04  0.15248953348E+04  0.25500000000E-02 0. -1.
    8880023    1    1    2    0    0  0.16405262794E+03  0.11649214936E+03 -0.71719017495E+03  0.99431164074E+03  0.65864270000E+03 0.  0.
    8880022    1    1    2    0    0 -0.16405262794E+03 -0.11649214936E+03 -0.64527987100E+03  0.69300898300E+03  0.15294330000E+03 0.  0.
<mgrwt>
<rscale>  0 0.53602430E+03</rscale>
<asrwt>0</asrwt>
<pdfrwt beam="1">  1        2 0.23459927E+00 0.68868998E+03</pdfrwt>
<pdfrwt beam="2">  1       -2 0.24988507E-01 0.68868998E+03</pdfrwt>
<totfact> 0.17995202E+02</totfact>
</mgrwt>
</event>
<event>
 4    2  0.7143078E-007  0.6592140E+03  0.7818608E-02  0.1024977E+00
          2   -1    0    0  501    0  0.00000000000E+00  0.00000000000E+00  0.14346387308E+04  0.14346387308E+04  0.25500000000E-02 0. -1.
         -2   -1    0    0    0  501 -0.00000000000E+00 -0.00000000000E+00 -0.72214154839E+03  0.72214154839E+03  0.25500000000E-02 0.  1.
    8880023    1    1    2    0    0 -0.20520336989E+02  0.18215814213E+02 -0.56600872772E+03  0.86886649506E+03  0.65864270000E+03 0.  1.
    8880022    1    1    2    0    0  0.20520336989E+02 -0.18215814213E+02  0.12785059102E+04  0.12879137842E+04  0.15294330000E+03 0.  0.
<mgrwt>
<rscale>  0 0.45932726E+03</rscale>
<asrwt>0</asrwt>
<pdfrwt beam="1">  1        2 0.22071365E+00 0.65921401E+03</pdfrwt>
<pdfrwt beam="2">  1       -2 0.11109870E+00 0.65921401E+03</pdfrwt>
<totfact> 0.91972351E+00</totfact>
</mgrwt>
</event>
<event>
 4    2  0.6914693E-007  0.6810090E+03  0.7818608E-02  0.1008759E+00
          2   -1    0    0  501    0  0.00000000000E+00  0.00000000000E+00  0.32185822788E+03  0.32185822789E+03  0.25500000000E-02 0. -1.
         -2   -1    0    0    0  501 -0.00000000000E+00 -0.00000000000E+00 -0.22975162372E+04  0.22975162372E+04  0.25500000000E-02 0.  1.
    8880023    1    1    2    0    0 -0.12798465956E+03 -0.11654627775E+03 -0.21965935155E+04  0.22997383300E+04  0.65864270000E+03 0.  1.
    8880022    1    1    2    0    0  0.12798465956E+03  0.11654627775E+03  0.22093550618E+03  0.31963613507E+03  0.15294330000E+03 0.  0.
<mgrwt>
<rscale>  0 0.51971028E+03</rscale>
<asrwt>0</asrwt>
<pdfrwt beam="1">  1        2 0.49516652E-01 0.68100904E+03</pdfrwt>
<pdfrwt beam="2">  1       -2 0.35346403E+00 0.68100904E+03</pdfrwt>
<totfact> 0.16001181E+00</totfact>
</mgrwt>
</event>
<event>
 4    2  0.6914693E-007  0.8311926E+03  0.7818608E-02  0.9647016E-01
         -2   -1    0    0    0  501 -0.00000000000E+00  0.00000000000E+00  0.74716177439E+03  0.74716177439E+03  0.25500000000E-02 0.  1.
          2   -1    0    0  501    0  0.00000000000E+00 -0.00000000000E+00 -0.10274191311E+04  0.10274191311E+04  0.25500000000E-02 0. -1.
    8880023    1    1    2    0    0  0.29838404178E+03  0.40992427315E+03  0.39182686288E+03  0.91891753865E+03  0.65864270000E+03 0.  0.
    8880022    1    1    2    0    0 -0.29838404178E+03 -0.40992427315E+03 -0.67208421955E+03  0.85566336681E+03  0.15294330000E+03 0.  0.
<mgrwt>
<rscale>  0 0.74260971E+03</rscale>
<asrwt>0</asrwt>
<pdfrwt beam="1">  1        2 0.15806448E+00 0.83119261E+03</pdfrwt>
<pdfrwt beam="2">  1       -2 0.11494797E+00 0.83119261E+03</pdfrwt>
<totfact> 0.14400435E+01</totfact>
</mgrwt>
</event>
<event>
 4    2  0.6914693E-007  0.6800369E+03  0.7818608E-02  0.1009303E+00
          2   -1    0    0  501    0  0.00000000000E+00  0.00000000000E+00  0.10938779730E+04  0.10938779730E+04  0.25500000000E-02 0. -1.
         -2   -1    0    0    0  501 -0.00000000000E+00 -0.00000000000E+00 -0.42529972793E+03  0.42529972793E+03  0.25500000000E-02 0.  1.
    8880023    1    1    2    0    0  0.16383818895E+03 -0.42391160795E+02 -0.12678207876E+03  0.69175419365E+03  0.65864270000E+03 0.  1.
    8880022    1    1    2    0    0 -0.16383818895E+03  0.42391160795E+02  0.79536032386E+03  0.82742350732E+03  0.15294330000E+03 0.  0.
<mgrwt>
<rscale>  0 0.51752671E+03</rscale>
<asrwt>0</asrwt>
<pdfrwt beam="1">  1        2 0.16828892E+00 0.68003689E+03</pdfrwt>
<pdfrwt beam="2">  1       -2 0.65430728E-01 0.68003689E+03</pdfrwt>
<totfact> 0.48407532E+01</totfact>
</mgrwt>
</event>
<event>
 4    2  0.6914693E-007  0.8171598E+03  0.7818608E-02  0.9674852E-01
         -2   -1    0    0    0  501 -0.00000000000E+00  0.00000000000E+00  0.35554559385E+03  0.35554559386E+03  0.25500000000E-02 0.  1.
          2   -1    0    0  501    0  0.00000000000E+00 -0.00000000000E+00 -0.18309562763E+04  0.18309562763E+04  0.25500000000E-02 0. -1.
    8880023    1    1    2    0    0  0.35290523869E+02  0.48238418071E+03 -0.24105363556E+03  0.85197240586E+03  0.65864270000E+03 0.  1.
    8880022    1    1    2    0    0 -0.35290523869E+02 -0.48238418071E+03 -0.12343570469E+04  0.13345294643E+04  0.15294330000E+03 0.  0.
<mgrwt>
<rscale>  0 0.72534041E+03</rscale>
<asrwt>0</asrwt>
<pdfrwt beam="1">  1        2 0.28168558E+00 0.81715979E+03</pdfrwt>
<pdfrwt beam="2">  1       -2 0.54699323E-01 0.81715979E+03</pdfrwt>
<totfact> 0.26634959E+01</totfact>
</mgrwt>
</event>
<event>
 4    2  0.6914693E-007  0.7488735E+03  0.7818608E-02  0.9834814E-01
          2   -1    0    0  501    0  0.00000000000E+00  0.00000000000E+00  0.71416517280E+03  0.71416517280E+03  0.25500000000E-02 0. -1.
         -2   -1    0    0    0  501 -0.00000000000E+00 -0.00000000000E+00 -0.47477966999E+03  0.47477967000E+03  0.25500000000E-02 0.  1.
    8880023    1    1    2    0    0 -0.11739930277E+01 -0.35637056845E+03  0.27892006770E+03  0.79912950812E+03  0.65864270000E+03 0.  0.
    8880022    1    1    2    0    0  0.11739930277E+01  0.35637056845E+03 -0.39534564894E+02  0.38981533468E+03  0.15294330000E+03 0.  0.
<mgrwt>
<rscale>  0 0.63527215E+03</rscale>
<asrwt>0</asrwt>
<pdfrwt beam="1">  1        2 0.10987157E+00 0.74887353E+03</pdfrwt>
<pdfrwt beam="2">  1       -2 0.73043026E-01 0.74887353E+03</pdfrwt>
<totfact> 0.68482114E+01</totfact>
</mgrwt>
</event>
<event>
 4    2  0.6914693E-007  0.7025534E+03  0.7818608E-02  0.9986769E-01
          2   -1    0    0  501    0  0.00000000000E+00  0.00000000000E+00  0.82288516591E+03  0.82288516591E+03  0.25500000000E-02 0. -1.
         -2   -1    0    0    0  501 -0.00000000000E+00 -0.00000000000E+00 -0.37512718036E+03  0.37512718037E+03  0.25500000000E-02 0.  1.
    8880023    1    1    2    0    0  0.83633681278E+02  0.22973123366E+03  0.46787607047E+02  0.70410959289E+03  0.65864270000E+03 0.  1.
    8880022    1    1    2    0    0 -0.83633681278E+02 -0.22973123366E+03  0.40097037850E+03  0.49390275339E+03  0.15294330000E+03 0.  0.
<mgrwt>
<rscale>  0 0.56234204E+03</rscale>
<asrwt>0</asrwt>
<pdfrwt beam="1">  1        2 0.12659772E+00 0.70255337E+03</pdfrwt>
<pdfrwt beam="2">  1       -2 0.57711875E-01 0.70255337E+03</pdfrwt>
<totfact> 0.94732841E+01</totfact>
</mgrwt>
</event>
<event>
 4    2  0.6914693E-007  0.6662707E+03  0.7818608E-02  0.1018490E+00
         -2   -1    0    0    0  501 -0.00000000000E+00  0.00000000000E+00  0.50705662514E+03  0.50705662515E+03  0.25500000000E-02 0.  1.
          2   -1    0    0  501    0  0.00000000000E+00 -0.00000000000E+00 -0.52962352793E+03  0.52962352793E+03  0.25500000000E-02 0. -1.
    8880023    1    1    2    0    0  0.50199441014E+02 -0.87100133477E+02  0.24722992102E+03  0.71066114094E+03  0.65864270000E+03 0.  1.
    8880022    1    1    2    0    0 -0.50199441014E+02  0.87100133477E+02 -0.26979682380E+03  0.32601901214E+03  0.15294330000E+03 0.  0.
<mgrwt>
<rscale>  0 0.48235357E+03</rscale>
<asrwt>0</asrwt>
<pdfrwt beam="1">  1        2 0.81480543E-01 0.66627068E+03</pdfrwt>
<pdfrwt beam="2">  1       -2 0.78008711E-01 0.66627068E+03</pdfrwt>
<totfact> 0.85594968E+01</totfact>
</mgrwt>
</event>
<event>
 4    2  0.6914693E-007  0.6746186E+03  0.7818608E-02  0.1012548E+00
          2   -1    0    0  501    0  0.00000000000E+00  0.00000000000E+00  0.22295105493E+04  0.22295105493E+04  0.25500000000E-02 0. -1.
         -2   -1    0    0    0  501 -0.00000000000E+00 -0.00000000000E+00 -0.37550122880E+03  0.37550122881E+03  0.25500000000E-02 0.  1.
    8880023    1    1    2    0    0  0.16396572687E+02  0.14502143183E+03 -0.61920209386E+02  0.67745433933E+03  0.65864270000E+03 0.  1.
    8880022    1    1    2    0    0 -0.16396572687E+02 -0.14502143183E+03  0.19159295298E+04  0.19275574387E+04  0.15294330000E+03 0.  0.
<mgrwt>
<rscale>  0 0.50474511E+03</rscale>
<asrwt>0</asrwt>
<pdfrwt beam="1">  1        2 0.34300162E+00 0.67461861E+03</pdfrwt>
<pdfrwt beam="2">  1       -2 0.57769420E-01 0.67461861E+03</pdfrwt>
<totfact> 0.14680584E+01</totfact>
</mgrwt>
</event>
<event>
 4    2  0.6914693E-007  0.1181268E+04  0.7818608E-02  0.9175549E-01
         -2   -1    0    0    0  501 -0.00000000000E+00  0.00000000000E+00  0.87206203340E+03  0.87206203341E+03  0.25500000000E-02 0.  1.
          2   -1    0    0  501    0  0.00000000000E+00 -0.00000000000E+00 -0.19372218875E+04  0.19372218875E+04  0.25500000000E-02 0. -1.
    8880023    1    1    2    0    0 -0.95973713407E+03  0.20121909926E+03 -0.13332250891E+04  0.17812590595E+04  0.65864270000E+03 0.  0.
    8880022    1    1    2    0    0  0.95973713407E+03 -0.20121909926E+03  0.26806523505E+03  0.10280248614E+04  0.15294330000E+03 0.  0.
<mgrwt>
<rscale>  0 0.11309401E+04</rscale>
<asrwt>0</asrwt>
<pdfrwt beam="1">  1        2 0.29803414E+00 0.11812683E+04</pdfrwt>
<pdfrwt beam="2">  1       -2 0.13416339E+00 0.11812683E+04</pdfrwt>
<totfact> 0.28336520E+00</totfact>
</mgrwt>
</event>
<event>
 4    2  0.6914693E-007  0.8828535E+03  0.7818608E-02  0.9554137E-01
          2   -1    0    0  501    0  0.00000000000E+00  0.00000000000E+00  0.30325509795E+04  0.30325509795E+04  0.25500000000E-02 0. -1.
         -2   -1    0    0    0  501 -0.00000000000E+00 -0.00000000000E+00 -0.20458610341E+03  0.20458610342E+03  0.25500000000E-02 0.  1.
    8880023    1    1    2    0    0  0.22397743054E+03  0.54355704340E+03  0.11313761209E+04  0.14350757060E+04  0.65864270000E+03 0.  0.
    8880022    1    1    2    0    0 -0.22397743054E+03 -0.54355704340E+03  0.16965887552E+04  0.18020613769E+04  0.15294330000E+03 0.  0.
<mgrwt>
<rscale>  0 0.80407494E+03</rscale>
<asrwt>0</asrwt>
<pdfrwt beam="1">  1        2 0.46654631E+00 0.88285353E+03</pdfrwt>
<pdfrwt beam="2">  1       -2 0.31474785E-01 0.88285353E+03</pdfrwt>
<totfact> 0.16178574E+01</totfact>
</mgrwt>
</event>
<event>
 4    2  0.6914693E-007  0.9498671E+03  0.7818608E-02  0.9450305E-01
          2   -1    0    0  501    0  0.00000000000E+00  0.00000000000E+00  0.97174139764E+03  0.97174139764E+03  0.25500000000E-02 0. -1.
         -2   -1    0    0    0  501 -0.00000000000E+00 -0.00000000000E+00 -0.74717796551E+03  0.74717796552E+03  0.25500000000E-02 0.  1.
    8880023    1    1    2    0    0  0.43522390432E+03 -0.52822107708E+03 -0.82281428096E+02  0.95342424598E+03  0.65864270000E+03 0.  1.
    8880022    1    1    2    0    0 -0.43522390432E+03  0.52822107708E+03  0.30684486022E+03  0.76549511717E+03  0.15294330000E+03 0. -1.
<mgrwt>
<rscale>  0 0.88048895E+03</rscale>
<asrwt>0</asrwt>
<pdfrwt beam="1">  1        2 0.14949868E+00 0.94986713E+03</pdfrwt>
<pdfrwt beam="2">  1       -2 0.11495046E+00 0.94986713E+03</pdfrwt>
<totfact> 0.15463871E+01</totfact>
</mgrwt>
</event>
<event>
 4    2  0.8176827E-007  0.1069155E+04  0.7818608E-02  0.9296201E-01
         -2   -1    0    0    0  501 -0.00000000000E+00  0.00000000000E+00  0.85892600085E+03  0.85892600085E+03  0.25500000000E-02 0.  1.
          2   -1    0    0  501    0  0.00000000000E+00 -0.00000000000E+00 -0.32803681715E+04  0.32803681715E+04  0.25500000000E-02 0. -1.
    8880023    1    1    2    0    0 -0.58346951845E+03  0.60732620832E+03  0.43732015400E+03  0.11551367562E+04  0.65864270000E+03 0.  1.
    8880022    1    1    2    0    0  0.58346951845E+03 -0.60732620832E+03 -0.28587623246E+04  0.29841574161E+04  0.15294330000E+03 0.  0.
<mgrwt>
<rscale>  0 0.10113332E+04</rscale>
<asrwt>0</asrwt>
<pdfrwt beam="1">  1        2 0.50467202E+00 0.10691548E+04</pdfrwt>
<pdfrwt beam="2">  1       -2 0.13214246E+00 0.10691548E+04</pdfrwt>
<totfact> 0.48421196E-01</totfact>
</mgrwt>
</event>
<event>
 4    2  0.6914693E-007  0.7597242E+03  0.7818608E-02  0.9805822E-01
          2   -1    0    0  501    0  0.00000000000E+00  0.00000000000E+00  0.88712044504E+03  0.88712044504E+03  0.25500000000E-02 0. -1.
         -2   -1    0    0    0  501 -0.00000000000E+00 -0.00000000000E+00 -0.67951061473E+03  0.67951061474E+03  0.25500000000E-02 0.  1.
    8880023    1    1    2    0    0 -0.76548626875E+02 -0.37082465831E+03 -0.38125801835E+03  0.85002264811E+03  0.65864270000E+03 0.  1.
    8880022    1    1    2    0    0  0.76548626875E+02  0.37082465831E+03  0.58886784865E+03  0.71660841167E+03  0.15294330000E+03 0.  0.
<mgrwt>
<rscale>  0 0.65051031E+03</rscale>
<asrwt>0</asrwt>
<pdfrwt beam="1">  1        2 0.13648007E+00 0.75972418E+03</pdfrwt>
<pdfrwt beam="2">  1       -2 0.10454010E+00 0.75972418E+03</pdfrwt>
<totfact> 0.22543226E+01</totfact>
</mgrwt>
</event>
<event>
 4    2  0.6914693E-007  0.6662016E+03  0.7818608E-02  0.1018546E+00
          2   -1    0    0  501    0  0.00000000000E+00  0.00000000000E+00  0.18562636666E+03  0.18562636668E+03  0.25500000000E-02 0. -1.
         -2   -1    0    0    0  501 -0.00000000000E+00 -0.00000000000E+00 -0.14755381868E+04  0.14755381868E+04  0.25500000000E-02 0.  1.
    8880023    1    1    2    0    0  0.98721955355E+02 -0.16379713500E+02 -0.13174653348E+04  0.14763263305E+04  0.65864270000E+03 0.  1.
    8880022    1    1    2    0    0 -0.98721955355E+02  0.16379713500E+02  0.27553514676E+02  0.18483822297E+03  0.15294330000E+03 0.  0.
<mgrwt>
<rscale>  0 0.48215009E+03</rscale>
<asrwt>0</asrwt>
<pdfrwt beam="1">  1        2 0.28557903E-01 0.66620157E+03</pdfrwt>
<pdfrwt beam="2">  1       -2 0.22700587E+00 0.66620157E+03</pdfrwt>
<totfact> 0.17291304E+01</totfact>
</mgrwt>
</event>
<event>
 4    2  0.6914693E-007  0.6877151E+03  0.7818608E-02  0.1005258E+00
          2   -1    0    0  501    0  0.00000000000E+00  0.00000000000E+00  0.11282961477E+04  0.11282961477E+04  0.25500000000E-02 0. -1.
         -2   -1    0    0    0  501 -0.00000000000E+00 -0.00000000000E+00 -0.29649772033E+03  0.29649772034E+03  0.25500000000E-02 0.  1.
    8880023    1    1    2    0    0 -0.13546958348E+03  0.14418679621E+03  0.15736065111E+03  0.70548878165E+03  0.65864270000E+03 0.  1.
    8880022    1    1    2    0    0  0.13546958348E+03 -0.14418679621E+03  0.67443777622E+03  0.71930508636E+03  0.15294330000E+03 0.  0.
<mgrwt>
<rscale>  0 0.53403596E+03</rscale>
<asrwt>0</asrwt>
<pdfrwt beam="1">  1        2 0.17358403E+00 0.68771509E+03</pdfrwt>
<pdfrwt beam="2">  1       -2 0.45615033E-01 0.68771509E+03</pdfrwt>
<totfact> 0.97283284E+01</totfact>
</mgrwt>
</event>
<event>
 4    2  0.6914693E-007  0.9751461E+03  0.7818608E-02  0.9414822E-01
          2   -1    0    0  501    0  0.00000000000E+00  0.00000000000E+00  0.44562079847E+03  0.44562079848E+03  0.25500000000E-02 0. -1.
         -2   -1    0    0    0  501 -0.00000000000E+00 -0.00000000000E+00 -0.18137180565E+04  0.18137180565E+04  0.25500000000E-02 0.  1.
    8880023    1    1    2    0    0 -0.51705117336E+03 -0.49975782998E+03 -0.11162837534E+04  0.14822278599E+04  0.65864270000E+03 0.  0.
    8880022    1    1    2    0    0  0.51705117336E+03  0.49975782998E+03 -0.25181350471E+03  0.77711099508E+03  0.15294330000E+03 0.  0.
<mgrwt>
<rscale>  0 0.90865890E+03</rscale>
<asrwt>0</asrwt>
<pdfrwt beam="1">  1        2 0.68557047E-01 0.97514615E+03</pdfrwt>
<pdfrwt beam="2">  1       -2 0.27903354E+00 0.97514615E+03</pdfrwt>
<totfact> 0.30242078E+00</totfact>
</mgrwt>
</event>
<event>
 4    2  0.6914693E-007  0.9097205E+03  0.7818608E-02  0.9510604E-01
         -2   -1    0    0    0  501 -0.00000000000E+00  0.00000000000E+00  0.36444354269E+03  0.36444354270E+03  0.25500000000E-02 0.  1.
          2   -1    0    0  501    0  0.00000000000E+00 -0.00000000000E+00 -0.26449687055E+04  0.26449687055E+04  0.25500000000E-02 0. -1.
    8880023    1    1    2    0    0 -0.22563881403E+03 -0.58554958268E+03 -0.35173407038E+03  0.97535032204E+03  0.65864270000E+03 0.  1.
    8880022    1    1    2    0    0  0.22563881403E+03  0.58554958268E+03 -0.19287910924E+04  0.20340619261E+04  0.15294330000E+03 0.  0.
<mgrwt>
<rscale>  0 0.83506540E+03</rscale>
<asrwt>0</asrwt>
<pdfrwt beam="1">  1        2 0.40691825E+00 0.90972050E+03</pdfrwt>
<pdfrwt beam="2">  1       -2 0.56068239E-01 0.90972050E+03</pdfrwt>
<totfact> 0.87834797E+00</totfact>
</mgrwt>
</event>
<event>
 4    2  0.6914693E-007  0.8582702E+03  0.7818608E-02  0.9596648E-01
          2   -1    0    0  501    0  0.00000000000E+00  0.00000000000E+00  0.24113625304E+04  0.24113625304E+04  0.25500000000E-02 0. -1.
         -2   -1    0    0    0  501 -0.00000000000E+00 -0.00000000000E+00 -0.37901460706E+03  0.37901460707E+03  0.25500000000E-02 0.  1.
    8880023    1    1    2    0    0  0.54498411381E+03  0.76221859467E+02  0.21415118992E+03  0.88458374085E+03  0.65864270000E+03 0.  1.
    8880022    1    1    2    0    0 -0.54498411381E+03 -0.76221859467E+02  0.18181967334E+04  0.19057933966E+04  0.15294330000E+03 0.  0.
<mgrwt>
<rscale>  0 0.77518439E+03</rscale>
<asrwt>0</asrwt>
<pdfrwt beam="1">  1        2 0.37097885E+00 0.85827016E+03</pdfrwt>
<pdfrwt beam="2">  1       -2 0.58309940E-01 0.85827016E+03</pdfrwt>
<totfact> 0.11084151E+01</totfact>
</mgrwt>
</event>
<event>
 4    2  0.6914693E-007  0.7682955E+03  0.7818608E-02  0.9784086E-01
          2   -1    0    0  501    0  0.00000000000E+00  0.00000000000E+00  0.95431610064E+03  0.95431610064E+03  0.25500000000E-02 0. -1.
         -2   -1    0    0    0  501 -0.00000000000E+00 -0.00000000000E+00 -0.17834614072E+04  0.17834614072E+04  0.25500000000E-02 0.  1.
    8880023    1    1    2    0    0 -0.17283620824E+02  0.39518226149E+03 -0.16465088436E+04  0.18169395481E+04  0.65864270000E+03 0.  0.
    8880022    1    1    2    0    0  0.17283620824E+02 -0.39518226149E+03  0.81736353703E+03  0.92083795970E+03  0.15294330000E+03 0.  0.
<mgrwt>
<rscale>  0 0.66223610E+03</rscale>
<asrwt>0</asrwt>
<pdfrwt beam="1">  1        2 0.14681786E+00 0.76829548E+03</pdfrwt>
<pdfrwt beam="2">  1       -2 0.27437868E+00 0.76829548E+03</pdfrwt>
<totfact> 0.12734379E+00</totfact>
</mgrwt>
</event>
<event>
 4    2  0.6914693E-007  0.7931350E+03  0.7818608E-02  0.9725841E-01
          2   -1    0    0  501    0  0.00000000000E+00  0.00000000000E+00  0.14448639943E+04  0.14448639943E+04  0.25500000000E-02 0. -1.
         -2   -1    0    0    0  501 -0.00000000000E+00 -0.00000000000E+00 -0.28890865516E+03  0.28890865517E+03  0.25500000000E-02 0.  1.
    8880023    1    1    2    0    0 -0.35264957803E+03 -0.26625413412E+03  0.90401331429E+03  0.12026234937E+04  0.65864270000E+03 0. -1.
    8880022    1    1    2    0    0  0.35264957803E+03  0.26625413412E+03  0.25194202485E+03  0.53114915581E+03  0.15294330000E+03 0.  1.
<mgrwt>
<rscale>  0 0.69498864E+03</rscale>
<asrwt>0</asrwt>
<pdfrwt beam="1">  1        2 0.22228677E+00 0.79313504E+03</pdfrwt>
<pdfrwt beam="2">  1       -2 0.44447484E-01 0.79313504E+03</pdfrwt>
<totfact> 0.66505700E+01</totfact>
</mgrwt>
</event>
<event>
 4    2  0.6914693E-007  0.9616018E+03  0.7818608E-02  0.9433615E-01
          2   -1    0    0  501    0  0.00000000000E+00  0.00000000000E+00  0.70556810633E+03  0.70556810633E+03  0.25500000000E-02 0. -1.
         -2   -1    0    0    0  501 -0.00000000000E+00 -0.00000000000E+00 -0.30187743949E+04  0.30187743949E+04  0.25500000000E-02 0.  1.
    8880023    1    1    2    0    0  0.69166227625E+03  0.11167394955E+03 -0.27303419830E+04  0.28947271591E+04  0.65864270000E+03 0.  1.
    8880022    1    1    2    0    0 -0.69166227625E+03 -0.11167394955E+03  0.41713569438E+03  0.82961534215E+03  0.15294330000E+03 0.  0.
<mgrwt>
<rscale>  0 0.89360219E+03</rscale>
<asrwt>0</asrwt>
<pdfrwt beam="1">  1        2 0.10854894E+00 0.96160178E+03</pdfrwt>
<pdfrwt beam="2">  1       -2 0.46442682E+00 0.96160178E+03</pdfrwt>
<totfact> 0.11584488E-01</totfact>
</mgrwt>
</event>
<event>
 4    2  0.6914693E-007  0.7028862E+03  0.7818608E-02  0.9985432E-01
          2   -1    0    0  501    0  0.00000000000E+00  0.00000000000E+00  0.26991545079E+04  0.26991545079E+04  0.25500000000E-02 0. -1.
         -2   -1    0    0    0  501 -0.00000000000E+00 -0.00000000000E+00 -0.12381423473E+03  0.12381423476E+03  0.25500000000E-02 0.  1.
    8880023    1    1    2    0    0  0.84323550164E+02 -0.23049587050E+03  0.10061267561E+04  0.12273304620E+04  0.65864270000E+03 0.  1.
    8880022    1    1    2    0    0 -0.84323550164E+02  0.23049587050E+03  0.15692135171E+04  0.15956382806E+04  0.15294330000E+03 0. -1.
<mgrwt>
<rscale>  0 0.56293639E+03</rscale>
<asrwt>0</asrwt>
<pdfrwt beam="1">  1        2 0.41525451E+00 0.70288620E+03</pdfrwt>
<pdfrwt beam="2">  1       -2 0.19048345E-01 0.70288620E+03</pdfrwt>
<totfact> 0.64999343E+01</totfact>
</mgrwt>
</event>
<event>
 4    2  0.6914693E-007  0.6699774E+03  0.7818608E-02  0.1015679E+00
         -2   -1    0    0    0  501 -0.00000000000E+00  0.00000000000E+00  0.75471364030E+02  0.75471364074E+02  0.25500000000E-02 0.  1.
          2   -1    0    0  501    0  0.00000000000E+00 -0.00000000000E+00 -0.32843651366E+04  0.32843651366E+04  0.25500000000E-02 0. -1.
    8880023    1    1    2    0    0 -0.11038801731E+03  0.53609294555E+02 -0.15395162047E+04  0.16789817812E+04  0.65864270000E+03 0.  1.
    8880022    1    1    2    0    0  0.11038801731E+03 -0.53609294555E+02 -0.16693775679E+04  0.16808547195E+04  0.15294330000E+03 0.  0.
<mgrwt>
<rscale>  0 0.49278642E+03</rscale>
<asrwt>0</asrwt>
<pdfrwt beam="1">  1        2 0.50528683E+00 0.66997737E+03</pdfrwt>
<pdfrwt beam="2">  1       -2 0.11610982E-01 0.66997737E+03</pdfrwt>
<totfact> 0.66184143E+01</totfact>
</mgrwt>
</event>
<event>
 4    2  0.6914693E-007  0.7021755E+03  0.7818608E-02  0.9988293E-01
          2   -1    0    0  501    0  0.00000000000E+00  0.00000000000E+00  0.13935851562E+04  0.13935851562E+04  0.25500000000E-02 0. -1.
         -2   -1    0    0    0  501 -0.00000000000E+00 -0.00000000000E+00 -0.27066175990E+03  0.27066175991E+03  0.25500000000E-02 0.  1.
    8880023    1    1    2    0    0  0.18378628856E+03 -0.15957097606E+03  0.25023069276E+03  0.74543001155E+03  0.65864270000E+03 0.  0.
    8880022    1    1    2    0    0 -0.18378628856E+03  0.15957097606E+03  0.87269270351E+03  0.91881690452E+03  0.15294330000E+03 0.  0.
<mgrwt>
<rscale>  0 0.56166554E+03</rscale>
<asrwt>0</asrwt>
<pdfrwt beam="1">  1        2 0.21439772E+00 0.70217555E+03</pdfrwt>
<pdfrwt beam="2">  1       -2 0.41640271E-01 0.70217555E+03</pdfrwt>
<totfact> 0.81562139E+01</totfact>
</mgrwt>
</event>
<event>
 4    2  0.6914693E-007  0.7004956E+03  0.7818608E-02  0.9995151E-01
         -2   -1    0    0    0  501 -0.00000000000E+00  0.00000000000E+00  0.27255639644E+03  0.27255639645E+03  0.25500000000E-02 0.  1.
          2   -1    0    0  501    0  0.00000000000E+00 -0.00000000000E+00 -0.35705815710E+04  0.35705815710E+04  0.25500000000E-02 0. -1.
    8880023    1    1    2    0    0 -0.15063660016E+03 -0.18491228758E+03 -0.19489855595E+03  0.72710356400E+03  0.65864270000E+03 0.  0.
    8880022    1    1    2    0    0  0.15063660016E+03  0.18491228758E+03 -0.31031266186E+04  0.31160344034E+04  0.15294330000E+03 0.  0.
<mgrwt>
<rscale>  0 0.55863356E+03</rscale>
<asrwt>0</asrwt>
<pdfrwt beam="1">  1        2 0.54932021E+00 0.70049564E+03</pdfrwt>
<pdfrwt beam="2">  1       -2 0.41931756E-01 0.70049564E+03</pdfrwt>
<totfact> 0.42937199E+00</totfact>
</mgrwt>
</event>
<event>
 4    2  0.6914693E-007  0.9371832E+03  0.7818608E-02  0.9468799E-01
         -2   -1    0    0    0  501 -0.00000000000E+00  0.00000000000E+00  0.11627396837E+04  0.11627396837E+04  0.25500000000E-02 0.  1.
          2   -1    0    0  501    0  0.00000000000E+00 -0.00000000000E+00 -0.93010086127E+03  0.93010086128E+03  0.25500000000E-02 0. -1.
    8880023    1    1    2    0    0  0.65219808107E+03 -0.13834678047E+03  0.77799155949E+03  0.12180243189E+04  0.65864270000E+03 0.  1.
    8880022    1    1    2    0    0 -0.65219808107E+03  0.13834678047E+03 -0.54535273702E+03  0.87481622608E+03  0.15294330000E+03 0.  0.
<mgrwt>
<rscale>  0 0.86623712E+03</rscale>
<asrwt>0</asrwt>
<pdfrwt beam="1">  1        2 0.14309244E+00 0.93718321E+03</pdfrwt>
<pdfrwt beam="2">  1       -2 0.17888303E+00 0.93718321E+03</pdfrwt>
<totfact> 0.51552363E+00</totfact>
</mgrwt>
</event>
<event>
 4    2  0.6914693E-007  0.6642200E+03  0.7818608E-02  0.1020197E+00
          2   -1    0    0  501    0  0.00000000000E+00  0.00000000000E+00  0.31804022980E+04  0.31804022980E+04  0.25500000000E-02 0. -1.
         -2   -1    0    0    0  501 -0.00000000000E+00 -0.00000000000E+00 -0.24856898933E+03  0.24856898934E+03  0.25500000000E-02 0.  1.
    8880023    1    1    2    0    0 -0.47368218455E+02  0.71653310948E+02  0.20305986142E+03  0.69456566189E+03  0.65864270000E+03 0.  1.
    8880022    1    1    2    0    0  0.47368218455E+02 -0.71653310948E+02  0.27287734473E+04  0.27344056255E+04  0.15294330000E+03 0.  0.
<mgrwt>
<rscale>  0 0.47615590E+03</rscale>
<asrwt>0</asrwt>
<pdfrwt beam="1">  1        2 0.48929264E+00 0.66421996E+03</pdfrwt>
<pdfrwt beam="2">  1       -2 0.38241385E-01 0.66421996E+03</pdfrwt>
<totfact> 0.93790874E+00</totfact>
</mgrwt>
</event>
<event>
 4    2  0.6914693E-007  0.6654445E+03  0.7818608E-02  0.1019163E+00
          2   -1    0    0  501    0  0.00000000000E+00  0.00000000000E+00  0.40238981524E+03  0.40238981525E+03  0.25500000000E-02 0. -1.
         -2   -1    0    0    0  501 -0.00000000000E+00 -0.00000000000E+00 -0.22458870326E+04  0.22458870326E+04  0.25500000000E-02 0.  1.
    8880023    1    1    2    0    0 -0.78399043828E+02  0.53477107976E+02 -0.21731142836E+04  0.22727168999E+04  0.65864270000E+03 0.  1.
    8880022    1    1    2    0    0  0.78399043828E+02 -0.53477107976E+02  0.32961706624E+03  0.37555994798E+03  0.15294330000E+03 0.  0.
<mgrwt>
<rscale>  0 0.47989745E+03</rscale>
<asrwt>0</asrwt>
<pdfrwt beam="1">  1        2 0.61906127E-01 0.66544453E+03</pdfrwt>
<pdfrwt beam="2">  1       -2 0.34552107E+00 0.66544453E+03</pdfrwt>
<totfact> 0.14007319E+00</totfact>
</mgrwt>
</event>
<event>
 4    2  0.6914693E-007  0.6726735E+03  0.7818608E-02  0.1013815E+00
         -2   -1    0    0    0  501 -0.00000000000E+00  0.00000000000E+00  0.14708329497E+04  0.14708329497E+04  0.25500000000E-02 0.  1.
          2   -1    0    0  501    0  0.00000000000E+00 -0.00000000000E+00 -0.21917617459E+03  0.21917617461E+03  0.25500000000E-02 0. -1.
    8880023    1    1    2    0    0 -0.13667142565E+03 -0.55954526682E+00  0.13135414874E+04  0.14757644924E+04  0.65864270000E+03 0.  0.
    8880022    1    1    2    0    0  0.13667142565E+03  0.55954526682E+00 -0.61884712266E+02  0.21424463192E+03  0.15294330000E+03 0. -1.
<mgrwt>
<rscale>  0 0.49986317E+03</rscale>
<asrwt>0</asrwt>
<pdfrwt beam="1">  1        2 0.33719410E-01 0.67267347E+03</pdfrwt>
<pdfrwt beam="2">  1       -2 0.22628200E+00 0.67267347E+03</pdfrwt>
<totfact> 0.14478372E+01</totfact>
</mgrwt>
</event>
<event>
 4    2  0.6914693E-007  0.8036660E+03  0.7818608E-02  0.9702925E-01
          2   -1    0    0  501    0  0.00000000000E+00  0.00000000000E+00  0.83451413486E+03  0.83451413486E+03  0.25500000000E-02 0. -1.
         -2   -1    0    0    0  501 -0.00000000000E+00 -0.00000000000E+00 -0.65297006516E+03  0.65297006516E+03  0.25500000000E-02 0.  1.
    8880023    1    1    2    0    0  0.44918300798E+03 -0.10150587285E+03 -0.24629892423E+03  0.84056063626E+03  0.65864270000E+03 0.  0.
    8880022    1    1    2    0    0 -0.44918300798E+03  0.10150587285E+03  0.42784299394E+03  0.64692356377E+03  0.15294330000E+03 0.  0.
<mgrwt>
<rscale>  0 0.70842918E+03</rscale>
<asrwt>0</asrwt>
<pdfrwt beam="1">  1        2 0.12838679E+00 0.80366599E+03</pdfrwt>
<pdfrwt beam="2">  1       -2 0.10045693E+00 0.80366599E+03</pdfrwt>
<totfact> 0.26849991E+01</totfact>
</mgrwt>
</event>
<event>
 4    2  0.9424331E-007  0.6606469E+03  0.7818608E-02  0.1023503E+00
         -2   -1    0    0    0  501 -0.00000000000E+00  0.00000000000E+00  0.65091373004E+03  0.65091373005E+03  0.25500000000E-02 0.  1.
          2   -1    0    0  501    0  0.00000000000E+00 -0.00000000000E+00 -0.16025915957E+04  0.16025915957E+04  0.25500000000E-02 0. -1.
    8880023    1    1    2    0    0  0.41383807931E+02 -0.30519523517E+02  0.47756533294E+03  0.81518274906E+03  0.65864270000E+03 0.  1.
    8880022    1    1    2    0    0 -0.41383807931E+02  0.30519523517E+02 -0.14292431985E+04  0.14383225766E+04  0.15294330000E+03 0.  0.
<mgrwt>
<rscale>  0 0.46443315E+03</rscale>
<asrwt>0</asrwt>
<pdfrwt beam="1">  1        2 0.24655255E+00 0.66064686E+03</pdfrwt>
<pdfrwt beam="2">  1       -2 0.10014057E+00 0.66064686E+03</pdfrwt>
<totfact> 0.95212678E+00</totfact>
</mgrwt>
</event>
<event>
 4    2  0.6914693E-007  0.6612378E+03  0.7818608E-02  0.1022923E+00
          2   -1    0    0  501    0  0.00000000000E+00  0.00000000000E+00  0.19689860918E+04  0.19689860918E+04  0.25500000000E-02 0. -1.
         -2   -1    0    0    0  501 -0.00000000000E+00 -0.00000000000E+00 -0.89527660755E+02  0.89527660791E+02  0.25500000000E-02 0.  1.
    8880023    1    1    2    0    0 -0.57890306449E+02  0.85956661173E+01  0.13321569703E+04  0.14872382367E+04  0.65864270000E+03 0.  1.
    8880022    1    1    2    0    0  0.57890306449E+02 -0.85956661173E+01  0.54730146082E+03  0.57127551592E+03  0.15294330000E+03 0.  0.
<mgrwt>
<rscale>  0 0.46646510E+03</rscale>
<asrwt>0</asrwt>
<pdfrwt beam="1">  1        2 0.30292092E+00 0.66123776E+03</pdfrwt>
<pdfrwt beam="2">  1       -2 0.13773487E-01 0.66123776E+03</pdfrwt>
<totfact> 0.28982187E+02</totfact>
</mgrwt>
</event>
<event>
 4    2  0.6914693E-007  0.6827537E+03  0.7818608E-02  0.1007807E+00
          2   -1    0    0  501    0  0.00000000000E+00  0.00000000000E+00  0.38845855272E+03  0.38845855273E+03  0.25500000000E-02 0. -1.
         -2   -1    0    0    0  501 -0.00000000000E+00 -0.00000000000E+00 -0.25607218046E+04  0.25607218046E+04  0.25500000000E-02 0.  1.
    8880023    1    1    2    0    0 -0.14900820332E+03  0.10069256070E+03 -0.24737607188E+04  0.25662511055E+04  0.65864270000E+03 0.  1.
    8880022    1    1    2    0    0  0.14900820332E+03 -0.10069256070E+03  0.30149746683E+03  0.38292925190E+03  0.15294330000E+03 0.  0.
<mgrwt>
<rscale>  0 0.52355604E+03</rscale>
<asrwt>0</asrwt>
<pdfrwt beam="1">  1        2 0.59762856E-01 0.68275372E+03</pdfrwt>
<pdfrwt beam="2">  1       -2 0.39395719E+00 0.68275372E+03</pdfrwt>
<totfact> 0.71872760E-01</totfact>
</mgrwt>
</event>
<event>
 4    2  0.6914693E-007  0.8316426E+03  0.7818608E-02  0.9646145E-01
         -2   -1    0    0    0  501 -0.00000000000E+00  0.00000000000E+00  0.43664357876E+03  0.43664357877E+03  0.25500000000E-02 0.  1.
          2   -1    0    0  501    0  0.00000000000E+00 -0.00000000000E+00 -0.10858332236E+04  0.10858332236E+04  0.25500000000E-02 0. -1.
    8880023    1    1    2    0    0 -0.46829219442E+03 -0.19626909388E+03 -0.28480306514E+03  0.87905752300E+03  0.65864270000E+03 0. -1.
    8880022    1    1    2    0    0  0.46829219442E+03  0.19626909388E+03 -0.36438657967E+03  0.64341927934E+03  0.15294330000E+03 0.  1.
<mgrwt>
<rscale>  0 0.74315863E+03</rscale>
<asrwt>0</asrwt>
<pdfrwt beam="1">  1        2 0.16705126E+00 0.83164256E+03</pdfrwt>
<pdfrwt beam="2">  1       -2 0.67175936E-01 0.83164256E+03</pdfrwt>
<totfact> 0.45624478E+01</totfact>
</mgrwt>
</event>
<event>
 4    2  0.6914693E-007  0.7084170E+03  0.7818608E-02  0.9963927E-01
          2   -1    0    0  501    0  0.00000000000E+00  0.00000000000E+00  0.14857940597E+04  0.14857940597E+04  0.25500000000E-02 0. -1.
         -2   -1    0    0    0  501 -0.00000000000E+00 -0.00000000000E+00 -0.20223864337E+03  0.20223864339E+03  0.25500000000E-02 0.  1.
    8880023    1    1    2    0    0 -0.21766165547E+03  0.14376334343E+03  0.55733916594E+03  0.90137763858E+03  0.65864270000E+03 0.  1.
    8880022    1    1    2    0    0  0.21766165547E+03 -0.14376334343E+03  0.72621625038E+03  0.78665506450E+03  0.15294330000E+03 0.  0.
<mgrwt>
<rscale>  0 0.57260678E+03</rscale>
<asrwt>0</asrwt>
<pdfrwt beam="1">  1        2 0.22858370E+00 0.70841704E+03</pdfrwt>
<pdfrwt beam="2">  1       -2 0.31113638E-01 0.70841704E+03</pdfrwt>
<totfact> 0.12635927E+02</totfact>
</mgrwt>
</event>
<event>
 4    2  0.6914693E-007  0.8232925E+03  0.7818608E-02  0.9662527E-01
         -2   -1    0    0    0  501 -0.00000000000E+00  0.00000000000E+00  0.95463768166E+03  0.95463768166E+03  0.25500000000E-02 0.  1.
          2   -1    0    0  501    0  0.00000000000E+00 -0.00000000000E+00 -0.52747153776E+03  0.52747153777E+03  0.25500000000E-02 0. -1.
    8880023    1    1    2    0    0 -0.29219036561E+03 -0.39827777615E+03  0.49490072839E+03  0.96059217879E+03  0.65864270000E+03 0.  0.
    8880022    1    1    2    0    0  0.29219036561E+03  0.39827777615E+03 -0.67734584496E+02  0.52151704064E+03  0.15294330000E+03 0.  0.
<mgrwt>
<rscale>  0 0.73292443E+03</rscale>
<asrwt>0</asrwt>
<pdfrwt beam="1">  1        2 0.81149468E-01 0.82329254E+03</pdfrwt>
<pdfrwt beam="2">  1       -2 0.14686733E+00 0.82329254E+03</pdfrwt>
<totfact> 0.18459938E+01</totfact>
</mgrwt>
</event>
<event>
 4    2  0.6914693E-007  0.6721118E+03  0.7818608E-02  0.1014192E+00
         -2   -1    0    0    0  501 -0.00000000000E+00  0.00000000000E+00  0.31084127009E+03  0.31084127011E+03  0.25500000000E-02 0.  1.
          2   -1    0    0  501    0  0.00000000000E+00 -0.00000000000E+00 -0.72614290306E+03  0.72614290306E+03  0.25500000000E-02 0. -1.
    8880023    1    1    2    0    0 -0.53254064851E+02  0.12283376095E+03 -0.12664033791E+03  0.68393867393E+03  0.65864270000E+03 0.  1.
    8880022    1    1    2    0    0  0.53254064851E+02 -0.12283376095E+03 -0.28866129505E+03  0.35304549923E+03  0.15294330000E+03 0. -1.
<mgrwt>
<rscale>  0 0.49842023E+03</rscale>
<asrwt>0</asrwt>
<pdfrwt beam="1">  1        2 0.11171429E+00 0.67211185E+03</pdfrwt>
<pdfrwt beam="2">  1       -2 0.47821734E-01 0.67211185E+03</pdfrwt>
<totfact> 0.16438865E+02</totfact>
</mgrwt>
</event>
<event>
 4    2  0.6914693E-007  0.9602285E+03  0.7818608E-02  0.9435548E-01
          2   -1    0    0  501    0  0.00000000000E+00  0.00000000000E+00  0.18179578984E+04  0.18179578984E+04  0.25500000000E-02 0. -1.
         -2   -1    0    0    0  501 -0.00000000000E+00 -0.00000000000E+00 -0.50795791219E+03  0.50795791219E+03  0.25500000000E-02 0.  1.
    8880023    1    1    2    0    0 -0.41499370093E+03 -0.56214658532E+03  0.16270583500E+03  0.97391578188E+03  0.65864270000E+03 0.  0.
    8880022    1    1    2    0    0  0.41499370093E+03  0.56214658532E+03  0.11472941512E+04  0.13520000287E+04  0.15294330000E+03 0.  0.
<mgrwt>
<rscale>  0 0.89207096E+03</rscale>
<asrwt>0</asrwt>
<pdfrwt beam="1">  1        2 0.27968583E+00 0.96022849E+03</pdfrwt>
<pdfrwt beam="2">  1       -2 0.78147372E-01 0.96022849E+03</pdfrwt>
<totfact> 0.12340369E+01</totfact>
</mgrwt>
</event>
<event>
 4    2  0.6914693E-007  0.1512544E+04  0.7818608E-02  0.8900828E-01
         -2   -1    0    0    0  501 -0.00000000000E+00  0.00000000000E+00  0.91488055570E+03  0.91488055571E+03  0.25500000000E-02 0.  1.
          2   -1    0    0  501    0  0.00000000000E+00 -0.00000000000E+00 -0.23150505788E+04  0.23150505788E+04  0.25500000000E-02 0. -1.
    8880023    1    1    2    0    0  0.13357183263E+04 -0.26426540291E+03 -0.51099760908E+03  0.15965301166E+04  0.65864270000E+03 0.  0.
    8880022    1    1    2    0    0 -0.13357183263E+04  0.26426540291E+03 -0.88917241397E+03  0.16334010179E+04  0.15294330000E+03 0.  0.
<mgrwt>
<rscale>  0 0.14756210E+04</rscale>
<asrwt>0</asrwt>
<pdfrwt beam="1">  1        2 0.35616163E+00 0.15125442E+04</pdfrwt>
<pdfrwt beam="2">  1       -2 0.14075086E+00 0.15125442E+04</pdfrwt>
<totfact> 0.14873408E+00</totfact>
</mgrwt>
</event>
<event>
 4    2  0.6914693E-007  0.1476937E+04  0.7818608E-02  0.8926095E-01
          2   -1    0    0  501    0  0.00000000000E+00  0.00000000000E+00  0.23985732799E+04  0.23985732799E+04  0.25500000000E-02 0. -1.
         -2   -1    0    0    0  501 -0.00000000000E+00 -0.00000000000E+00 -0.85558593989E+03  0.85558593990E+03  0.25500000000E-02 0.  1.
    8880023    1    1    2    0    0  0.69076894716E+03  0.11271073299E+04  0.48645038382E+03  0.15549845188E+04  0.65864270000E+03 0. -1.
    8880022    1    1    2    0    0 -0.69076894716E+03 -0.11271073299E+04  0.10565369561E+04  0.16991747009E+04  0.15294330000E+03 0.  1.
<mgrwt>
<rscale>  0 0.14389526E+04</rscale>
<asrwt>0</asrwt>
<pdfrwt beam="1">  1        2 0.36901127E+00 0.14769370E+04</pdfrwt>
<pdfrwt beam="2">  1       -2 0.13162861E+00 0.14769370E+04</pdfrwt>
<totfact> 0.15914254E+00</totfact>
</mgrwt>
</event>
<event>
 4    2  0.6914693E-007  0.6634739E+03  0.7818608E-02  0.1020850E+00
          2   -1    0    0  501    0  0.00000000000E+00  0.00000000000E+00  0.21288337789E+04  0.21288337789E+04  0.25500000000E-02 0. -1.
         -2   -1    0    0    0  501 -0.00000000000E+00 -0.00000000000E+00 -0.14296997027E+03  0.14296997029E+03  0.25500000000E-02 0.  1.
    8880023    1    1    2    0    0  0.79782909205E+02 -0.46997846534E+01  0.66379728418E+03  0.93852247780E+03  0.65864270000E+03 0.  1.
    8880022    1    1    2    0    0 -0.79782909205E+02  0.46997846534E+01  0.13220665244E+04  0.13332812714E+04  0.15294330000E+03 0.  0.
<mgrwt>
<rscale>  0 0.47381275E+03</rscale>
<asrwt>0</asrwt>
<pdfrwt beam="1">  1        2 0.32751286E+00 0.66347389E+03</pdfrwt>
<pdfrwt beam="2">  1       -2 0.21995382E-01 0.66347389E+03</pdfrwt>
<totfact> 0.10610593E+02</totfact>
</mgrwt>
</event>
<event>
 4    2  0.6914693E-007  0.9536349E+03  0.7818608E-02  0.9444903E-01
         -2   -1    0    0    0  501 -0.00000000000E+00  0.00000000000E+00  0.33790360389E+03  0.33790360390E+03  0.25500000000E-02 0.  1.
          2   -1    0    0  501    0  0.00000000000E+00 -0.00000000000E+00 -0.29957909389E+04  0.29957909389E+04  0.25500000000E-02 0. -1.
    8880023    1    1    2    0    0 -0.61970050327E+03 -0.30262278324E+03 -0.52870458621E+03  0.10903889253E+04  0.65864270000E+03 0.  0.
    8880022    1    1    2    0    0  0.61970050327E+03  0.30262278324E+03 -0.21291827488E+04  0.22433056175E+04  0.15294330000E+03 0.  0.
<mgrwt>
<rscale>  0 0.88470659E+03</rscale>
<asrwt>0</asrwt>
<pdfrwt beam="1">  1        2 0.46089089E+00 0.95363487E+03</pdfrwt>
<pdfrwt beam="2">  1       -2 0.51985172E-01 0.95363487E+03</pdfrwt>
<totfact> 0.63026630E+00</totfact>
</mgrwt>
</event>
<event>
 4    2  0.6914693E-007  0.7509587E+03  0.7818608E-02  0.9829103E-01
          2   -1    0    0  501    0  0.00000000000E+00  0.00000000000E+00  0.58788297353E+03  0.58788297354E+03  0.25500000000E-02 0. -1.
         -2   -1    0    0    0  501 -0.00000000000E+00 -0.00000000000E+00 -0.55549847032E+03  0.55549847032E+03  0.25500000000E-02 0.  1.
    8880023    1    1    2    0    0  0.16653520888E+03 -0.31999184202E+03  0.29990967777E+02  0.75155732926E+03  0.65864270000E+03 0.  0.
    8880022    1    1    2    0    0 -0.16653520888E+03  0.31999184202E+03  0.23935354381E+01  0.39182411460E+03  0.15294330000E+03 0.  1.
<mgrwt>
<rscale>  0 0.63823821E+03</rscale>
<asrwt>0</asrwt>
<pdfrwt beam="1">  1        2 0.90443534E-01 0.75095869E+03</pdfrwt>
<pdfrwt beam="2">  1       -2 0.85461303E-01 0.75095869E+03</pdfrwt>
<totfact> 0.61223112E+01</totfact>
</mgrwt>
</event>
<event>
 4    2  0.6914693E-007  0.1274238E+04  0.7818608E-02  0.9088133E-01
          2   -1    0    0  501    0  0.00000000000E+00  0.00000000000E+00  0.35151617549E+04  0.35151617549E+04  0.25500000000E-02 0. -1.
         -2   -1    0    0    0  501 -0.00000000000E+00 -0.00000000000E+00 -0.45064733635E+03  0.45064733635E+03  0.25500000000E-02 0.  1.
    8880023    1    1    2    0    0 -0.10826022008E+04 -0.13358194990E+03  0.22854133557E+04  0.26166383157E+04  0.65864270000E+03 0. -1.
    8880022    1    1    2    0    0  0.10826022008E+04  0.13358194990E+03  0.77910106287E+03  0.13491707756E+04  0.15294330000E+03 0.  0.
<mgrwt>
<rscale>  0 0.12286615E+04</rscale>
<asrwt>0</asrwt>
<pdfrwt beam="1">  1        2 0.54079410E+00 0.12742378E+04</pdfrwt>
<pdfrwt beam="2">  1       -2 0.69330362E-01 0.12742378E+04</pdfrwt>
<totfact> 0.14990794E+00</totfact>
</mgrwt>
</event>
<event>
 4    2  0.6914693E-007  0.7753591E+03  0.7818608E-02  0.9766854E-01
          2   -1    0    0  501    0  0.00000000000E+00  0.00000000000E+00  0.23628131681E+04  0.23628131681E+04  0.25500000000E-02 0. -1.
         -2   -1    0    0    0  501 -0.00000000000E+00 -0.00000000000E+00 -0.42159502540E+03  0.42159502541E+03  0.25500000000E-02 0.  1.
    8880023    1    1    2    0    0  0.28949584316E+03  0.28907393638E+03 -0.19528386164E+02  0.77560502063E+03  0.65864270000E+03 0.  1.
    8880022    1    1    2    0    0 -0.28949584316E+03 -0.28907393638E+03  0.19607465289E+04  0.20088031729E+04  0.15294330000E+03 0.  0.
<mgrwt>
<rscale>  0 0.67172114E+03</rscale>
<asrwt>0</asrwt>
<pdfrwt beam="1">  1        2 0.36350972E+00 0.77535914E+03</pdfrwt>
<pdfrwt beam="2">  1       -2 0.64860773E-01 0.77535914E+03</pdfrwt>
<totfact> 0.95291911E+00</totfact>
</mgrwt>
</event>
<event>
 4    2  0.6914693E-007  0.7051877E+03  0.7818608E-02  0.9976325E-01
          2   -1    0    0  501    0  0.00000000000E+00  0.00000000000E+00  0.10018359573E+04  0.10018359573E+04  0.25500000000E-02 0. -1.
         -2   -1    0    0    0  501 -0.00000000000E+00 -0.00000000000E+00 -0.14897164502E+04  0.14897164502E+04  0.25500000000E-02 0.  1.
    8880023    1    1    2    0    0 -0.23766405332E+02 -0.25082805250E+03 -0.13812319025E+04  0.15508356872E+04  0.65864270000E+03 0.  1.
    8880022    1    1    2    0    0  0.23766405332E+02  0.25082805250E+03  0.89335140956E+03  0.94071672034E+03  0.15294330000E+03 0.  0.
<mgrwt>
<rscale>  0 0.56700652E+03</rscale>
<asrwt>0</asrwt>
<pdfrwt beam="1">  1        2 0.15412861E+00 0.70518775E+03</pdfrwt>
<pdfrwt beam="2">  1       -2 0.22918715E+00 0.70518775E+03</pdfrwt>
<totfact> 0.22539812E+00</totfact>
</mgrwt>
</event>
<event>
 4    2  0.6914693E-007  0.7065811E+03  0.7818608E-02  0.9970923E-01
         -2   -1    0    0    0  501 -0.00000000000E+00  0.00000000000E+00  0.42817630741E+03  0.42817630742E+03  0.25500000000E-02 0.  1.
          2   -1    0    0  501    0  0.00000000000E+00 -0.00000000000E+00 -0.39341888823E+04  0.39341888823E+04  0.25500000000E-02 0. -1.
    8880023    1    1    2    0    0 -0.14662982456E+03 -0.20963390929E+03  0.12635451252E+03  0.71778990692E+03  0.65864270000E+03 0.  1.
    8880022    1    1    2    0    0  0.14662982456E+03  0.20963390929E+03 -0.36323670874E+04  0.36445752828E+04  0.15294330000E+03 0.  0.
<mgrwt>
<rscale>  0 0.56943817E+03</rscale>
<asrwt>0</asrwt>
<pdfrwt beam="1">  1        2 0.60525980E+00 0.70658113E+03</pdfrwt>
<pdfrwt beam="2">  1       -2 0.65873281E-01 0.70658113E+03</pdfrwt>
<totfact> 0.91936026E-01</totfact>
</mgrwt>
</event>
<event>
 4    2  0.6914693E-007  0.7694490E+03  0.7818608E-02  0.9781232E-01
         -2   -1    0    0    0  501 -0.00000000000E+00  0.00000000000E+00  0.35460689121E+03  0.35460689122E+03  0.25500000000E-02 0.  1.
          2   -1    0    0  501    0  0.00000000000E+00 -0.00000000000E+00 -0.27069811377E+04  0.27069811377E+04  0.25500000000E-02 0. -1.
    8880023    1    1    2    0    0 -0.46807918581E+02  0.39503228913E+03 -0.10786179284E+03  0.77697224102E+03  0.65864270000E+03 0.  1.
    8880022    1    1    2    0    0  0.46807918581E+02 -0.39503228913E+03 -0.22445124537E+04  0.22846157879E+04  0.15294330000E+03 0.  0.
<mgrwt>
<rscale>  0 0.66379542E+03</rscale>
<asrwt>0</asrwt>
<pdfrwt beam="1">  1        2 0.41645862E+00 0.76944896E+03</pdfrwt>
<pdfrwt beam="2">  1       -2 0.54554908E-01 0.76944896E+03</pdfrwt>
<totfact> 0.87441719E+00</totfact>
</mgrwt>
</event>
<event>
 4    2  0.6914693E-007  0.9307239E+03  0.7818608E-02  0.9478408E-01
         -2   -1    0    0    0  501 -0.00000000000E+00  0.00000000000E+00  0.86423010056E+03  0.86423010056E+03  0.25500000000E-02 0.  1.
          2   -1    0    0  501    0  0.00000000000E+00 -0.00000000000E+00 -0.13257026871E+04  0.13257026871E+04  0.25500000000E-02 0. -1.
    8880023    1    1    2    0    0  0.47127277255E+02  0.65590834241E+03  0.46749659626E+03  0.10415373290E+04  0.65864270000E+03 0.  0.
    8880022    1    1    2    0    0 -0.47127277255E+02 -0.65590834241E+03 -0.92896918280E+03  0.11483954587E+04  0.15294330000E+03 0.  0.
<mgrwt>
<rscale>  0 0.85894590E+03</rscale>
<asrwt>0</asrwt>
<pdfrwt beam="1">  1        2 0.20395426E+00 0.93072388E+03</pdfrwt>
<pdfrwt beam="2">  1       -2 0.13295848E+00 0.93072388E+03</pdfrwt>
<totfact> 0.65491978E+00</totfact>
</mgrwt>
</event>
<event>
 4    2  0.6914693E-007  0.7295805E+03  0.7818608E-02  0.9891409E-01
         -2   -1    0    0    0  501 -0.00000000000E+00  0.00000000000E+00  0.96481295708E+03  0.96481295708E+03  0.25500000000E-02 0.  1.
          2   -1    0    0  501    0  0.00000000000E+00 -0.00000000000E+00 -0.46985034698E+03  0.46985034698E+03  0.25500000000E-02 0. -1.
    8880023    1    1    2    0    0 -0.25838359722E+03 -0.17808807255E+03  0.71539067679E+03  0.10217981560E+04  0.65864270000E+03 0.  0.
    8880022    1    1    2    0    0  0.25838359722E+03  0.17808807255E+03 -0.22042806668E+03  0.41286514807E+03  0.15294330000E+03 0.  0.
<mgrwt>
<rscale>  0 0.60679444E+03</rscale>
<asrwt>0</asrwt>
<pdfrwt beam="1">  1        2 0.72284670E-01 0.72958046E+03</pdfrwt>
<pdfrwt beam="2">  1       -2 0.14843276E+00 0.72958046E+03</pdfrwt>
<totfact> 0.20697121E+01</totfact>
</mgrwt>
</event>
<event>
 4    2  0.6914693E-007  0.9991254E+03  0.7818608E-02  0.9382703E-01
          2   -1    0    0  501    0  0.00000000000E+00  0.00000000000E+00  0.11870285977E+04  0.11870285977E+04  0.25500000000E-02 0. -1.
         -2   -1    0    0    0  501 -0.00000000000E+00 -0.00000000000E+00 -0.14834054272E+04  0.14834054272E+04  0.25500000000E-02 0.  1.
    8880023    1    1    2    0    0  0.42687883071E+03 -0.61823599049E+03 -0.11497611558E+04  0.15232209944E+04  0.65864270000E+03 0.  0.
    8880022    1    1    2    0    0 -0.42687883071E+03  0.61823599049E+03  0.85338432633E+03  0.11472130306E+04  0.15294330000E+03 0.  0.
<mgrwt>
<rscale>  0 0.93512943E+03</rscale>
<asrwt>0</asrwt>
<pdfrwt beam="1">  1        2 0.18261978E+00 0.99912536E+03</pdfrwt>
<pdfrwt beam="2">  1       -2 0.22821622E+00 0.99912536E+03</pdfrwt>
<totfact> 0.16825179E+00</totfact>
</mgrwt>
</event>
<event>
 4    2  0.6914693E-007  0.8420409E+03  0.7818608E-02  0.9626344E-01
         -2   -1    0    0    0  501 -0.00000000000E+00  0.00000000000E+00  0.29355996313E+03  0.29355996314E+03  0.25500000000E-02 0.  1.
          2   -1    0    0  501    0  0.00000000000E+00 -0.00000000000E+00 -0.19105299498E+04  0.19105299498E+04  0.25500000000E-02 0. -1.
    8880023    1    1    2    0    0  0.48442759676E+03 -0.20137659138E+03 -0.13615413880E+04  0.16008834391E+04  0.65864270000E+03 0.  1.
    8880022    1    1    2    0    0 -0.48442759676E+03  0.20137659138E+03 -0.25542859866E+03  0.60320647384E+03  0.15294330000E+03 0.  0.
<mgrwt>
<rscale>  0 0.75576835E+03</rscale>
<asrwt>0</asrwt>
<pdfrwt beam="1">  1        2 0.29392768E+00 0.84204087E+03</pdfrwt>
<pdfrwt beam="2">  1       -2 0.45163073E-01 0.84204087E+03</pdfrwt>
<totfact> 0.35493385E+01</totfact>
</mgrwt>
</event>
<event>
 4    2  0.6914693E-007  0.9463152E+03  0.7818608E-02  0.9455436E-01
          2   -1    0    0  501    0  0.00000000000E+00  0.00000000000E+00  0.20863086280E+04  0.20863086280E+04  0.25500000000E-02 0. -1.
         -2   -1    0    0    0  501 -0.00000000000E+00 -0.00000000000E+00 -0.38639537810E+03  0.38639537810E+03  0.25500000000E-02 0.  1.
    8880023    1    1    2    0    0 -0.67109535546E+03 -0.10645789121E+03  0.46376261743E+03  0.10538445001E+04  0.65864270000E+03 0.  1.
    8880022    1    1    2    0    0  0.67109535546E+03  0.10645789121E+03  0.12361506325E+04  0.14188595061E+04  0.15294330000E+03 0. -1.
<mgrwt>
<rscale>  0 0.87650640E+03</rscale>
<asrwt>0</asrwt>
<pdfrwt beam="1">  1        2 0.32097056E+00 0.94631520E+03</pdfrwt>
<pdfrwt beam="2">  1       -2 0.59445442E-01 0.94631520E+03</pdfrwt>
<totfact> 0.15967161E+01</totfact>
</mgrwt>
</event>
<event>
 4    2  0.6914693E-007  0.8326830E+03  0.7818608E-02  0.9644135E-01
          2   -1    0    0  501    0  0.00000000000E+00  0.00000000000E+00  0.82790866808E+03  0.82790866808E+03  0.25500000000E-02 0. -1.
         -2   -1    0    0    0  501 -0.00000000000E+00 -0.00000000000E+00 -0.16363956032E+04  0.16363956032E+04  0.25500000000E-02 0.  1.
    8880023    1    1    2    0    0  0.25225665749E+03 -0.44262549222E+03  0.55502751415E+03  0.10007079970E+04  0.65864270000E+03 0. -1.
    8880022    1    1    2    0    0 -0.25225665749E+03  0.44262549222E+03 -0.13635144493E+04  0.14635962742E+04  0.15294330000E+03 0.  0.
<mgrwt>
<rscale>  0 0.74442684E+03</rscale>
<asrwt>0</asrwt>
<pdfrwt beam="1">  1        2 0.12737056E+00 0.83268299E+03</pdfrwt>
<pdfrwt beam="2">  1       -2 0.25175317E+00 0.83268299E+03</pdfrwt>
<totfact> 0.21024399E+00</totfact>
</mgrwt>
</event>
<event>
 4    2  0.6914693E-007  0.7491223E+03  0.7818608E-02  0.9834129E-01
          2   -1    0    0  501    0  0.00000000000E+00  0.00000000000E+00  0.13154856821E+04  0.13154856821E+04  0.25500000000E-02 0. -1.
         -2   -1    0    0    0  501 -0.00000000000E+00 -0.00000000000E+00 -0.28446716448E+03  0.28446716449E+03  0.25500000000E-02 0.  1.
    8880023    1    1    2    0    0 -0.33292975072E+03  0.12857606539E+03  0.37525170018E+03  0.83785324983E+03  0.65864270000E+03 0.  0.
    8880022    1    1    2    0    0  0.33292975072E+03 -0.12857606539E+03  0.65576681748E+03  0.76209959679E+03  0.15294330000E+03 0.  0.
<mgrwt>
<rscale>  0 0.63562703E+03</rscale>
<asrwt>0</asrwt>
<pdfrwt beam="1">  1        2 0.20238241E+00 0.74912231E+03</pdfrwt>
<pdfrwt beam="2">  1       -2 0.43764180E-01 0.74912231E+03</pdfrwt>
<totfact> 0.81553958E+01</totfact>
</mgrwt>
</event>
<event>
 4    2  0.6914693E-007  0.6707485E+03  0.7818608E-02  0.1015132E+00
         -2   -1    0    0    0  501 -0.00000000000E+00  0.00000000000E+00  0.20543547634E+03  0.20543547636E+03  0.25500000000E-02 0.  1.
          2   -1    0    0  501    0  0.00000000000E+00 -0.00000000000E+00 -0.10224810336E+04  0.10224810336E+04  0.25500000000E-02 0. -1.
    8880023    1    1    2    0    0  0.80878824257E+02  0.97733886463E+02 -0.44140928110E+03  0.80296055724E+03  0.65864270000E+03 0.  1.
    8880022    1    1    2    0    0 -0.80878824257E+02 -0.97733886463E+02 -0.37563627615E+03  0.42495595272E+03  0.15294330000E+03 0. -1.
<mgrwt>
<rscale>  0 0.49485016E+03</rscale>
<asrwt>0</asrwt>
<pdfrwt beam="1">  1        2 0.15730477E+00 0.67074846E+03</pdfrwt>
<pdfrwt beam="2">  1       -2 0.31605459E-01 0.67074846E+03</pdfrwt>
<totfact> 0.22978401E+02</totfact>
</mgrwt>
</event>
<event>
 4    2  0.6914693E-007  0.6726803E+03  0.7818608E-02  0.1013810E+00
          2   -1    0    0  501    0  0.00000000000E+00  0.00000000000E+00  0.10248075704E+04  0.10248075704E+04  0.25500000000E-02 0. -1.
         -2   -1    0    0    0  501 -0.00000000000E+00 -0.00000000000E+00 -0.43788244902E+03  0.43788244903E+03  0.25500000000E-02 0.  1.
    8880023    1    1    2    0    0 -0.50952462776E+02 -0.12685582573E+03 -0.15720279359E+03  0.69080494972E+03  0.65864270000E+03 0.  1.
    8880022    1    1    2    0    0  0.50952462776E+02  0.12685582573E+03  0.74412791499E+03  0.77188506973E+03  0.15294330000E+03 0.  0.
<mgrwt>
<rscale>  0 0.49988057E+03</rscale>
<asrwt>0</asrwt>
<pdfrwt beam="1">  1        2 0.15766270E+00 0.67268028E+03</pdfrwt>
<pdfrwt beam="2">  1       -2 0.67366530E-01 0.67268028E+03</pdfrwt>
<totfact> 0.50204847E+01</totfact>
</mgrwt>
</event>
<event>
 4    2  0.6914693E-007  0.9014810E+03  0.7818608E-02  0.9523658E-01
         -2   -1    0    0    0  501 -0.00000000000E+00  0.00000000000E+00  0.70506007642E+03  0.70506007642E+03  0.25500000000E-02 0.  1.
          2   -1    0    0  501    0  0.00000000000E+00 -0.00000000000E+00 -0.11556677097E+04  0.11556677097E+04  0.25500000000E-02 0. -1.
    8880023    1    1    2    0    0  0.58284510995E+03 -0.19786218956E+03 -0.73741004406E+03  0.11646637487E+04  0.65864270000E+03 0.  0.
    8880022    1    1    2    0    0 -0.58284510995E+03  0.19786218956E+03  0.28680241081E+03  0.69606403736E+03  0.15294330000E+03 0.  0.
<mgrwt>
<rscale>  0 0.82561845E+03</rscale>
<asrwt>0</asrwt>
<pdfrwt beam="1">  1        2 0.17779503E+00 0.90148105E+03</pdfrwt>
<pdfrwt beam="2">  1       -2 0.10847078E+00 0.90148105E+03</pdfrwt>
<totfact> 0.13724087E+01</totfact>
</mgrwt>
</event>
<event>
 4    2  0.6914693E-007  0.7121047E+03  0.7818608E-02  0.9950267E-01
         -2   -1    0    0    0  501 -0.00000000000E+00  0.00000000000E+00  0.12877809859E+03  0.12877809861E+03  0.25500000000E-02 0.  1.
          2   -1    0    0  501    0  0.00000000000E+00 -0.00000000000E+00 -0.29533841669E+04  0.29533841669E+04  0.25500000000E-02 0. -1.
    8880023    1    1    2    0    0 -0.51701917565E+02  0.26572505196E+03 -0.97924513893E+03  0.12107907085E+04  0.65864270000E+03 0.  0.
    8880022    1    1    2    0    0  0.51701917565E+02 -0.26572505196E+03 -0.18453609294E+04  0.18713715569E+04  0.15294330000E+03 0.  0.
<mgrwt>
<rscale>  0 0.57885782E+03</rscale>
<asrwt>0</asrwt>
<pdfrwt beam="1">  1        2 0.45436675E+00 0.71210470E+03</pdfrwt>
<pdfrwt beam="2">  1       -2 0.19812017E-01 0.71210470E+03</pdfrwt>
<totfact> 0.42840340E+01</totfact>
</mgrwt>
</event>
<event>
 4    2  0.6914693E-007  0.7422491E+03  0.7818608E-02  0.9853443E-01
         -2   -1    0    0    0  501 -0.00000000000E+00  0.00000000000E+00  0.17724488405E+03  0.17724488407E+03  0.25500000000E-02 0.  1.
          2   -1    0    0  501    0  0.00000000000E+00 -0.00000000000E+00 -0.21324871186E+04  0.21324871186E+04  0.25500000000E-02 0. -1.
    8880023    1    1    2    0    0  0.26042146511E+03  0.22204551496E+03 -0.78249297407E+03  0.10785309504E+04  0.65864270000E+03 0.  1.
    8880022    1    1    2    0    0 -0.26042146511E+03 -0.22204551496E+03 -0.11727492605E+04  0.12312010523E+04  0.15294330000E+03 0. -1.
<mgrwt>
<rscale>  0 0.62571661E+03</rscale>
<asrwt>0</asrwt>
<pdfrwt beam="1">  1        2 0.32807492E+00 0.74224912E+03</pdfrwt>
<pdfrwt beam="2">  1       -2 0.27268445E-01 0.74224912E+03</pdfrwt>
<totfact> 0.71106317E+01</totfact>
</mgrwt>
</event>
<event>
 4    2  0.6914693E-007  0.7571223E+03  0.7818608E-02  0.9812615E-01
          2   -1    0    0  501    0  0.00000000000E+00  0.00000000000E+00  0.41100440262E+04  0.41100440262E+04  0.25500000000E-02 0. -1.
         -2   -1    0    0    0  501 -0.00000000000E+00 -0.00000000000E+00 -0.40910982956E+03  0.40910982957E+03  0.25500000000E-02 0.  1.
    8880023    1    1    2    0    0 -0.32649229893E+03 -0.18118160083E+03 -0.38415803131E+02  0.75809628276E+03  0.65864270000E+03 0.  1.
    8880022    1    1    2    0    0  0.32649229893E+03  0.18118160083E+03  0.37393499998E+04  0.37610575730E+04  0.15294330000E+03 0.  0.
<mgrwt>
<rscale>  0 0.64689911E+03</rscale>
<asrwt>0</asrwt>
<pdfrwt beam="1">  1        2 0.63231451E+00 0.75712232E+03</pdfrwt>
<pdfrwt beam="2">  1       -2 0.62939970E-01 0.75712232E+03</pdfrwt>
<totfact> 0.72530067E-01</totfact>
</mgrwt>
</event>
<event>
 4    2  0.6914693E-007  0.1164934E+04  0.7818608E-02  0.9191986E-01
         -2   -1    0    0    0  501 -0.00000000000E+00  0.00000000000E+00  0.20029802201E+04  0.20029802201E+04  0.25500000000E-02 0.  1.
          2   -1    0    0  501    0  0.00000000000E+00 -0.00000000000E+00 -0.91217996035E+03  0.91217996036E+03  0.25500000000E-02 0. -1.
    8880023    1    1    2    0    0  0.28593218895E+03 -0.91733493984E+03  0.14658865011E+04  0.18724032816E+04  0.65864270000E+03 0.  0.
    8880022    1    1    2    0    0 -0.28593218895E+03  0.91733493984E+03 -0.37508624141E+03  0.10427568988E+04  0.15294330000E+03 0.  0.
<mgrwt>
<rscale>  0 0.11136526E+04</rscale>
<asrwt>0</asrwt>
<pdfrwt beam="1">  1        2 0.14033538E+00 0.11649338E+04</pdfrwt>
<pdfrwt beam="2">  1       -2 0.30815080E+00 0.11649338E+04</pdfrwt>
<totfact> 0.80195128E-01</totfact>
</mgrwt>
</event>
<event>
 4    2  0.6914693E-007  0.8001106E+03  0.7818608E-02  0.9710557E-01
         -2   -1    0    0    0  501 -0.00000000000E+00  0.00000000000E+00  0.82249426568E+03  0.82249426569E+03  0.25500000000E-02 0.  1.
          2   -1    0    0  501    0  0.00000000000E+00 -0.00000000000E+00 -0.65484121183E+03  0.65484121184E+03  0.25500000000E-02 0. -1.
    8880023    1    1    2    0    0 -0.38592430570E+03 -0.23964378088E+03  0.45305034343E+03  0.91947350771E+03  0.65864270000E+03 0.  1.
    8880022    1    1    2    0    0  0.38592430570E+03  0.23964378088E+03 -0.28539728958E+03  0.55786196981E+03  0.15294330000E+03 0.  0.
<mgrwt>
<rscale>  0 0.70391695E+03</rscale>
<asrwt>0</asrwt>
<pdfrwt beam="1">  1        2 0.10074480E+00 0.80011057E+03</pdfrwt>
<pdfrwt beam="2">  1       -2 0.12653758E+00 0.80011057E+03</pdfrwt>
<totfact> 0.20903501E+01</totfact>
</mgrwt>
</event>
<event>
 4    2  0.6914693E-007  0.9192292E+03  0.7818608E-02  0.9495842E-01
         -2   -1    0    0    0  501 -0.00000000000E+00  0.00000000000E+00  0.50626660614E+03  0.50626660614E+03  0.25500000000E-02 0.  1.
          2   -1    0    0  501    0  0.00000000000E+00 -0.00000000000E+00 -0.29379356291E+04  0.29379356291E+04  0.25500000000E-02 0. -1.
    8880023    1    1    2    0    0 -0.49904648755E+03 -0.40264707003E+03  0.57139158169E+01  0.91924692811E+03  0.65864270000E+03 0.  0.
    8880022    1    1    2    0    0  0.49904648755E+03  0.40264707003E+03 -0.24373829388E+04  0.25249553071E+04  0.15294330000E+03 0.  0.
<mgrwt>
<rscale>  0 0.84591072E+03</rscale>
<asrwt>0</asrwt>
<pdfrwt beam="1">  1        2 0.45199009E+00 0.91922917E+03</pdfrwt>
<pdfrwt beam="2">  1       -2 0.77887171E-01 0.91922917E+03</pdfrwt>
<totfact> 0.28856893E+00</totfact>
</mgrwt>
</event>
<event>
 4    2  0.6914693E-007  0.7138528E+03  0.7818608E-02  0.9943963E-01
          2   -1    0    0  501    0  0.00000000000E+00  0.00000000000E+00  0.18113606227E+04  0.18113606227E+04  0.25500000000E-02 0. -1.
         -2   -1    0    0    0  501 -0.00000000000E+00 -0.00000000000E+00 -0.29441579979E+03  0.29441579980E+03  0.25500000000E-02 0.  1.
    8880023    1    1    2    0    0  0.19438709730E+03  0.19490820610E+03  0.18544868916E+03  0.73754794758E+03  0.65864270000E+03 0.  1.
    8880022    1    1    2    0    0 -0.19438709730E+03 -0.19490820610E+03  0.13314961337E+04  0.13682284749E+04  0.15294330000E+03 0.  0.
<mgrwt>
<rscale>  0 0.58177156E+03</rscale>
<asrwt>0</asrwt>
<pdfrwt beam="1">  1        2 0.27867087E+00 0.71385276E+03</pdfrwt>
<pdfrwt beam="2">  1       -2 0.45294738E-01 0.71385276E+03</pdfrwt>
<totfact> 0.40573510E+01</totfact>
</mgrwt>
</event>
<event>
 4    2  0.6914693E-007  0.6842275E+03  0.7818608E-02  0.1007027E+00
          2   -1    0    0  501    0  0.00000000000E+00  0.00000000000E+00  0.26818104457E+04  0.26818104457E+04  0.25500000000E-02 0. -1.
         -2   -1    0    0    0  501 -0.00000000000E+00 -0.00000000000E+00 -0.81101377770E+02  0.81101377810E+02  0.25500000000E-02 0.  1.
    8880023    1    1    2    0    0 -0.16950668617E+03 -0.74997205756E+02  0.17530695139E+04  0.18818661016E+04  0.65864270000E+03 0.  0.
    8880022    1    1    2    0    0  0.16950668617E+03  0.74997205756E+02  0.84763955403E+03  0.88104572191E+03  0.15294330000E+03 0. -1.
<mgrwt>
<rscale>  0 0.52673628E+03</rscale>
<asrwt>0</asrwt>
<pdfrwt beam="1">  1        2 0.41258618E+00 0.68422752E+03</pdfrwt>
<pdfrwt beam="2">  1       -2 0.12477136E-01 0.68422752E+03</pdfrwt>
<totfact> 0.13663580E+02</totfact>
</mgrwt>
</event>
<event>
 4    2  0.6914693E-007  0.7755143E+03  0.7818608E-02  0.9766481E-01
         -2   -1    0    0    0  501 -0.00000000000E+00  0.00000000000E+00  0.76332843213E+03  0.76332843213E+03  0.25500000000E-02 0.  1.
          2   -1    0    0  501    0  0.00000000000E+00 -0.00000000000E+00 -0.88677921149E+03  0.88677921149E+03  0.25500000000E-02 0. -1.
    8880023    1    1    2    0    0  0.26276094907E+03 -0.31395694122E+03  0.47473033411E+03  0.90928069026E+03  0.65864270000E+03 0.  1.
    8880022    1    1    2    0    0 -0.26276094907E+03  0.31395694122E+03 -0.59818111347E+03  0.74082695336E+03  0.15294330000E+03 0.  0.
<mgrwt>
<rscale>  0 0.67192788E+03</rscale>
<asrwt>0</asrwt>
<pdfrwt beam="1">  1        2 0.13642757E+00 0.77551433E+03</pdfrwt>
<pdfrwt beam="2">  1       -2 0.11743514E+00 0.77551433E+03</pdfrwt>
<totfact> 0.16984101E+01</totfact>
</mgrwt>
</event>
<event>
 4    2  0.6914693E-007  0.6987439E+03  0.7818608E-02  0.1000245E+00
         -2   -1    0    0    0  501 -0.00000000000E+00  0.00000000000E+00  0.42709611068E+03  0.42709611068E+03  0.25500000000E-02 0.  1.
          2   -1    0    0  501    0  0.00000000000E+00 -0.00000000000E+00 -0.59295307996E+03  0.59295307996E+03  0.25500000000E-02 0. -1.
    8880023    1    1    2    0    0 -0.23246274762E+03  0.19847752187E+02 -0.65048281806E+01  0.69877419912E+03  0.65864270000E+03 0. -1.
    8880022    1    1    2    0    0  0.23246274762E+03 -0.19847752187E+02 -0.15935214110E+03  0.32127499153E+03  0.15294330000E+03 0.  0.
<mgrwt>
<rscale>  0 0.55542840E+03</rscale>
<asrwt>0</asrwt>
<pdfrwt beam="1">  1        2 0.91223551E-01 0.69874392E+03</pdfrwt>
<pdfrwt beam="2">  1       -2 0.65707094E-01 0.69874392E+03</pdfrwt>
<totfact> 0.10883212E+02</totfact>
</mgrwt>
</event>
<event>
 4    2  0.6914693E-007  0.8006282E+03  0.7818608E-02  0.9709439E-01
          2   -1    0    0  501    0  0.00000000000E+00  0.00000000000E+00  0.72524129071E+03  0.72524129072E+03  0.25500000000E-02 0. -1.
         -2   -1    0    0    0  501 -0.00000000000E+00 -0.00000000000E+00 -0.14536836886E+04  0.14536836886E+04  0.25500000000E-02 0.  1.
    8880023    1    1    2    0    0  0.23071677517E+03  0.39238383307E+03 -0.12408216494E+04  0.14767003334E+04  0.65864270000E+03 0. -1.
    8880022    1    1    2    0    0 -0.23071677517E+03 -0.39238383307E+03  0.51237925157E+03  0.70222464586E+03  0.15294330000E+03 0.  0.
<mgrwt>
<rscale>  0 0.70457544E+03</rscale>
<asrwt>0</asrwt>
<pdfrwt beam="1">  1        2 0.11157558E+00 0.80062820E+03</pdfrwt>
<pdfrwt beam="2">  1       -2 0.22364364E+00 0.80062820E+03</pdfrwt>
<totfact> 0.37382448E+00</totfact>
</mgrwt>
</event>
<event>
 4    2  0.6914693E-007  0.6724137E+03  0.7818608E-02  0.1013989E+00
          2   -1    0    0  501    0  0.00000000000E+00  0.00000000000E+00  0.65285496047E+03  0.65285496047E+03  0.25500000000E-02 0. -1.
         -2   -1    0    0    0  501 -0.00000000000E+00 -0.00000000000E+00 -0.61204959573E+03  0.61204959574E+03  0.25500000000E-02 0.  1.
    8880023    1    1    2    0    0 -0.87518213487E+02  0.10329826269E+03 -0.39765742176E+03  0.78119882240E+03  0.65864270000E+03 0.  1.
    8880022    1    1    2    0    0  0.87518213487E+02 -0.10329826269E+03  0.43846278650E+03  0.48370573381E+03  0.15294330000E+03 0.  0.
<mgrwt>
<rscale>  0 0.49919768E+03</rscale>
<asrwt>0</asrwt>
<pdfrwt beam="1">  1        2 0.10043922E+00 0.67241369E+03</pdfrwt>
<pdfrwt beam="2">  1       -2 0.94161476E-01 0.67241369E+03</pdfrwt>
<totfact> 0.43362220E+01</totfact>
</mgrwt>
</event>
<event>
 4    2  0.6914693E-007  0.1125795E+04  0.7818608E-02  0.9232866E-01
          2   -1    0    0  501    0  0.00000000000E+00  0.00000000000E+00  0.20805290932E+04  0.20805290932E+04  0.25500000000E-02 0. -1.
         -2   -1    0    0    0  501 -0.00000000000E+00 -0.00000000000E+00 -0.70408401067E+03  0.70408401067E+03  0.25500000000E-02 0.  1.
    8880023    1    1    2    0    0 -0.68975751240E+03  0.59819666344E+03 -0.28832656540E-01  0.11257952217E+04  0.65864270000E+03 0.  0.
    8880022    1    1    2    0    0  0.68975751240E+03 -0.59819666344E+03  0.13764739152E+04  0.16588178822E+04  0.15294330000E+03 0.  0.
<mgrwt>
<rscale>  0 0.10720546E+04</rscale>
<asrwt>0</asrwt>
<pdfrwt beam="1">  1        2 0.32008140E+00 0.11257952E+04</pdfrwt>
<pdfrwt beam="2">  1       -2 0.10832062E+00 0.11257952E+04</pdfrwt>
<totfact> 0.40519241E+00</totfact>
</mgrwt>
</event>
<event>
 4    2  0.6914693E-007  0.6720108E+03  0.7818608E-02  0.1014261E+00
          2   -1    0    0  501    0  0.00000000000E+00  0.00000000000E+00  0.17171167210E+04  0.17171167210E+04  0.25500000000E-02 0. -1.
         -2   -1    0    0    0  501 -0.00000000000E+00 -0.00000000000E+00 -0.16328762941E+03  0.16328762943E+03  0.25500000000E-02 0.  1.
    8880023    1    1    2    0    0 -0.10914733083E+03 -0.76649438674E+02  0.15361471729E+04  0.16767070761E+04  0.65864270000E+03 0. -1.
    8880022    1    1    2    0    0  0.10914733083E+03  0.76649438674E+02  0.17681918699E+02  0.20369727426E+03  0.15294330000E+03 0.  0.
<mgrwt>
<rscale>  0 0.49815888E+03</rscale>
<asrwt>0</asrwt>
<pdfrwt beam="1">  1        2 0.26417180E+00 0.67201078E+03</pdfrwt>
<pdfrwt beam="2">  1       -2 0.25121174E-01 0.67201078E+03</pdfrwt>
<totfact> 0.14003053E+02</totfact>
</mgrwt>
</event>
<event>
 4    2  0.6914693E-007  0.7938873E+03  0.7818608E-02  0.9724172E-01
          2   -1    0    0  501    0  0.00000000000E+00  0.00000000000E+00  0.76604563322E+03  0.76604563322E+03  0.25500000000E-02 0. -1.
         -2   -1    0    0    0  501 -0.00000000000E+00 -0.00000000000E+00 -0.90489300097E+03  0.90489300097E+03  0.25500000000E-02 0.  1.
    8880023    1    1    2    0    0  0.22088382344E+03  0.38426182018E+03 -0.61383343064E+03  0.10035180600E+04  0.65864270000E+03 0.  0.
    8880022    1    1    2    0    0 -0.22088382344E+03 -0.38426182018E+03  0.47498606289E+03  0.66742057420E+03  0.15294330000E+03 0.  0.
<mgrwt>
<rscale>  0 0.69595650E+03</rscale>
<asrwt>0</asrwt>
<pdfrwt beam="1">  1        2 0.11785317E+00 0.79388728E+03</pdfrwt>
<pdfrwt beam="2">  1       -2 0.13921431E+00 0.79388728E+03</pdfrwt>
<totfact> 0.13435955E+01</totfact>
</mgrwt>
</event>
<event>
 4    2  0.6914693E-007  0.6631674E+03  0.7818608E-02  0.1021123E+00
          2   -1    0    0  501    0  0.00000000000E+00  0.00000000000E+00  0.92776365816E+03  0.92776365816E+03  0.25500000000E-02 0. -1.
         -2   -1    0    0    0  501 -0.00000000000E+00 -0.00000000000E+00 -0.39318304835E+03  0.39318304836E+03  0.25500000000E-02 0.  1.
    8880023    1    1    2    0    0  0.59918829907E+02  0.48893362155E+02 -0.93660131738E+02  0.66974864955E+03  0.65864270000E+03 0.  1.
    8880022    1    1    2    0    0 -0.59918829907E+02 -0.48893362155E+02  0.62824074155E+03  0.65119805697E+03  0.15294330000E+03 0.  0.
<mgrwt>
<rscale>  0 0.47283538E+03</rscale>
<asrwt>0</asrwt>
<pdfrwt beam="1">  1        2 0.14273287E+00 0.66316742E+03</pdfrwt>
<pdfrwt beam="2">  1       -2 0.60489700E-01 0.66316742E+03</pdfrwt>
<totfact> 0.73022928E+01</totfact>
</mgrwt>
</event>
<event>
 4    2  0.6914693E-007  0.1329022E+04  0.7818608E-02  0.9040894E-01
          2   -1    0    0  501    0  0.00000000000E+00  0.00000000000E+00  0.14435016056E+04  0.14435016056E+04  0.25500000000E-02 0. -1.
         -2   -1    0    0    0  501 -0.00000000000E+00 -0.00000000000E+00 -0.20350761914E+04  0.20350761914E+04  0.25500000000E-02 0.  1.
    8880023    1    1    2    0    0  0.65641211832E+03 -0.94953268735E+03  0.88603635621E+03  0.15972976630E+04  0.65864270000E+03 0.  0.
    8880022    1    1    2    0    0 -0.65641211832E+03  0.94953268735E+03 -0.14776109421E+04  0.18812801340E+04  0.15294330000E+03 0.  0.
<mgrwt>
<rscale>  0 0.12858100E+04</rscale>
<asrwt>0</asrwt>
<pdfrwt beam="1">  1        2 0.22207717E+00 0.13290220E+04</pdfrwt>
<pdfrwt beam="2">  1       -2 0.31308865E+00 0.13290220E+04</pdfrwt>
<totfact> 0.34675702E-01</totfact>
</mgrwt>
</event>
<event>
 4    2  0.6914693E-007  0.1127323E+04  0.7818608E-02  0.9231228E-01
         -2   -1    0    0    0  501 -0.00000000000E+00  0.00000000000E+00  0.14061161370E+04  0.14061161370E+04  0.25500000000E-02 0.  1.
          2   -1    0    0  501    0  0.00000000000E+00 -0.00000000000E+00 -0.98895886518E+03  0.98895886518E+03  0.25500000000E-02 0. -1.
    8880023    1    1    2    0    0 -0.77109935002E+03  0.49239542475E+03 -0.36162177456E+03  0.11839037022E+04  0.65864270000E+03 0.  0.
    8880022    1    1    2    0    0  0.77109935002E+03 -0.49239542475E+03  0.77877904637E+03  0.12111713000E+04  0.15294330000E+03 0.  0.
<mgrwt>
<rscale>  0 0.10736837E+04</rscale>
<asrwt>0</asrwt>
<pdfrwt beam="1">  1        2 0.15214752E+00 0.11273232E+04</pdfrwt>
<pdfrwt beam="2">  1       -2 0.21632556E+00 0.11273232E+04</pdfrwt>
<totfact> 0.26167657E+00</totfact>
</mgrwt>
</event>
<event>
 4    2  0.6914693E-007  0.7525967E+03  0.7818608E-02  0.9824665E-01
          2   -1    0    0  501    0  0.00000000000E+00  0.00000000000E+00  0.18485196835E+04  0.18485196835E+04  0.25500000000E-02 0. -1.
         -2   -1    0    0    0  501 -0.00000000000E+00 -0.00000000000E+00 -0.49889094730E+03  0.49889094730E+03  0.25500000000E-02 0.  1.
    8880023    1    1    2    0    0 -0.36197502563E+03 -0.39569398681E+02 -0.17481812866E+03  0.77263396305E+03  0.65864270000E+03 0.  1.
    8880022    1    1    2    0    0  0.36197502563E+03  0.39569398681E+02  0.15244468648E+04  0.15747766677E+04  0.15294330000E+03 0.  0.
<mgrwt>
<rscale>  0 0.64055514E+03</rscale>
<asrwt>0</asrwt>
<pdfrwt beam="1">  1        2 0.28438765E+00 0.75259675E+03</pdfrwt>
<pdfrwt beam="2">  1       -2 0.76752452E-01 0.75259675E+03</pdfrwt>
<totfact> 0.12685011E+01</totfact>
</mgrwt>
</event>
<event>
 4    2  0.6914693E-007  0.8902575E+03  0.7818608E-02  0.9541856E-01
         -2   -1    0    0    0  501 -0.00000000000E+00  0.00000000000E+00  0.49474433933E+03  0.49474433934E+03  0.25500000000E-02 0.  1.
          2   -1    0    0  501    0  0.00000000000E+00 -0.00000000000E+00 -0.12092139600E+04  0.12092139600E+04  0.25500000000E-02 0. -1.
    8880023    1    1    2    0    0 -0.40124271632E+03  0.44469371111E+03 -0.60445916135E+03  0.10760712328E+04  0.65864270000E+03 0.  1.
    8880022    1    1    2    0    0  0.40124271632E+03 -0.44469371111E+03 -0.11001045929E+03  0.62788706649E+03  0.15294330000E+03 0. -1.
<mgrwt>
<rscale>  0 0.81267056E+03</rscale>
<asrwt>0</asrwt>
<pdfrwt beam="1">  1        2 0.18603292E+00 0.89025750E+03</pdfrwt>
<pdfrwt beam="2">  1       -2 0.76114514E-01 0.89025750E+03</pdfrwt>
<totfact> 0.29050945E+01</totfact>
</mgrwt>
</event>
<event>
 4    2  0.6914693E-007  0.7796504E+03  0.7818608E-02  0.9756659E-01
         -2   -1    0    0    0  501 -0.00000000000E+00  0.00000000000E+00  0.67252760742E+03  0.67252760742E+03  0.25500000000E-02 0.  1.
          2   -1    0    0  501    0  0.00000000000E+00 -0.00000000000E+00 -0.64195809939E+03  0.64195809940E+03  0.25500000000E-02 0. -1.
    8880023    1    1    2    0    0 -0.40695206282E+03 -0.91839982261E+02  0.25022373087E+03  0.81882030112E+03  0.65864270000E+03 0.  1.
    8880022    1    1    2    0    0  0.40695206282E+03  0.91839982261E+02 -0.21965422285E+03  0.49566540570E+03  0.15294330000E+03 0.  0.
<mgrwt>
<rscale>  0 0.67741263E+03</rscale>
<asrwt>0</asrwt>
<pdfrwt beam="1">  1        2 0.98762784E-01 0.77965042E+03</pdfrwt>
<pdfrwt beam="2">  1       -2 0.10346579E+00 0.77965042E+03</pdfrwt>
<totfact> 0.35136724E+01</totfact>
</mgrwt>
</event>
<event>
 4    2  0.6914693E-007  0.6678788E+03  0.7818608E-02  0.1017231E+00
          2   -1    0    0  501    0  0.00000000000E+00  0.00000000000E+00  0.17223932201E+04  0.17223932201E+04  0.25500000000E-02 0. -1.
         -2   -1    0    0    0  501 -0.00000000000E+00 -0.00000000000E+00 -0.11750646103E+03  0.11750646106E+03  0.25500000000E-02 0.  1.
    8880023    1    1    2    0    0 -0.89533702482E+02  0.65081231484E+02  0.97116469509E+03  0.11786530116E+04  0.65864270000E+03 0.  1.
    8880022    1    1    2    0    0  0.89533702482E+02 -0.65081231484E+02  0.63372206395E+03  0.66124666950E+03  0.15294330000E+03 0.  0.
<mgrwt>
<rscale>  0 0.48699083E+03</rscale>
<asrwt>0</asrwt>
<pdfrwt beam="1">  1        2 0.26498356E+00 0.66787877E+03</pdfrwt>
<pdfrwt beam="2">  1       -2 0.18077918E-01 0.66787877E+03</pdfrwt>
<totfact> 0.24848394E+02</totfact>
</mgrwt>
</event>
<event>
 4    2  0.7219549E-007  0.8431485E+03  0.7818608E-02  0.9624272E-01
          2   -1    0    0  501    0  0.00000000000E+00  0.00000000000E+00  0.12663477737E+04  0.12663477737E+04  0.25500000000E-02 0. -1.
         -2   -1    0    0    0  501 -0.00000000000E+00 -0.00000000000E+00 -0.16886057021E+04  0.16886057021E+04  0.25500000000E-02 0.  1.
    8880023    1    1    2    0    0  0.15623736787E+03 -0.50267200552E+03 -0.15142142028E+04  0.17331313045E+04  0.65864270000E+03 0.  1.
    8880022    1    1    2    0    0 -0.15623736787E+03  0.50267200552E+03  0.10919562744E+04  0.12218221714E+04  0.15294330000E+03 0.  0.
<mgrwt>
<rscale>  0 0.75710337E+03</rscale>
<asrwt>0</asrwt>
<pdfrwt beam="1">  1        2 0.19482273E+00 0.84314854E+03</pdfrwt>
<pdfrwt beam="2">  1       -2 0.25978549E+00 0.84314854E+03</pdfrwt>
<totfact> 0.99030685E-01</totfact>
</mgrwt>
</event>
<event>
 4    2  0.6914693E-007  0.6592445E+03  0.7818608E-02  0.1024944E+00
         -2   -1    0    0    0  501 -0.00000000000E+00  0.00000000000E+00  0.78965380870E+02  0.78965380912E+02  0.25500000000E-02 0.  1.
          2   -1    0    0  501    0  0.00000000000E+00 -0.00000000000E+00 -0.21079200631E+04  0.21079200632E+04  0.25500000000E-02 0. -1.
    8880023    1    1    2    0    0 -0.23510473157E+02  0.15502720172E+02 -0.16867160452E+04  0.18109705409E+04  0.65864270000E+03 0.  0.
    8880022    1    1    2    0    0  0.23510473157E+02 -0.15502720172E+02 -0.34223863712E+03  0.37591490318E+03  0.15294330000E+03 0.  1.
<mgrwt>
<rscale>  0 0.45943865E+03</rscale>
<asrwt>0</asrwt>
<pdfrwt beam="1">  1        2 0.32429535E+00 0.65924448E+03</pdfrwt>
<pdfrwt beam="2">  1       -2 0.12148522E-01 0.65924448E+03</pdfrwt>
<totfact> 0.30007259E+02</totfact>
</mgrwt>
</event>
<event>
 4    2  0.6914693E-007  0.6642716E+03  0.7818608E-02  0.1020152E+00
          2   -1    0    0  501    0  0.00000000000E+00  0.00000000000E+00  0.60728342029E+03  0.60728342030E+03  0.25500000000E-02 0. -1.
         -2   -1    0    0    0  501 -0.00000000000E+00 -0.00000000000E+00 -0.14438217207E+04  0.14438217208E+04  0.25500000000E-02 0.  1.
    8880023    1    1    2    0    0 -0.85701204132E+02 -0.10093831523E+02 -0.13520964189E+04  0.15064599278E+04  0.65864270000E+03 0.  1.
    8880022    1    1    2    0    0  0.85701204132E+02  0.10093831523E+02  0.51555811843E+03  0.54464521325E+03  0.15294330000E+03 0.  0.
<mgrwt>
<rscale>  0 0.47631632E+03</rscale>
<asrwt>0</asrwt>
<pdfrwt beam="1">  1        2 0.93428219E-01 0.66427162E+03</pdfrwt>
<pdfrwt beam="2">  1       -2 0.22212642E+00 0.66427162E+03</pdfrwt>
<totfact> 0.48532287E+00</totfact>
</mgrwt>
</event>
<event>
 4    2  0.6914693E-007  0.7662378E+03  0.7818608E-02  0.9789218E-01
         -2   -1    0    0    0  501 -0.00000000000E+00  0.00000000000E+00  0.37925416600E+03  0.37925416600E+03  0.25500000000E-02 0.  1.
          2   -1    0    0  501    0  0.00000000000E+00 -0.00000000000E+00 -0.16289858381E+04  0.16289858381E+04  0.25500000000E-02 0. -1.
    8880023    1    1    2    0    0  0.38844024869E+03 -0.49238191742E+02 -0.86161622593E+02  0.77106696065E+03  0.65864270000E+03 0.  1.
    8880022    1    1    2    0    0 -0.38844024869E+03  0.49238191742E+02 -0.11635700495E+04  0.12371730434E+04  0.15294330000E+03 0.  0.
<mgrwt>
<rscale>  0 0.65944388E+03</rscale>
<asrwt>0</asrwt>
<pdfrwt beam="1">  1        2 0.25061320E+00 0.76623784E+03</pdfrwt>
<pdfrwt beam="2">  1       -2 0.58346796E-01 0.76623784E+03</pdfrwt>
<totfact> 0.30209220E+01</totfact>
</mgrwt>
</event>
<event>
 4    2  0.6914693E-007  0.6844843E+03  0.7818608E-02  0.1006893E+00
         -2   -1    0    0    0  501 -0.00000000000E+00  0.00000000000E+00  0.39246727349E+03  0.39246727350E+03  0.25500000000E-02 0.  1.
          2   -1    0    0  501    0  0.00000000000E+00 -0.00000000000E+00 -0.12015216228E+04  0.12015216228E+04  0.25500000000E-02 0. -1.
    8880023    1    1    2    0    0 -0.62374744041E+02 -0.17555053406E+03  0.64757900636E+02  0.68754082836E+03  0.65864270000E+03 0.  1.
    8880022    1    1    2    0    0  0.62374744041E+02  0.17555053406E+03 -0.87381224994E+03  0.90644806794E+03  0.15294330000E+03 0. -1.
<mgrwt>
<rscale>  0 0.52728436E+03</rscale>
<asrwt>0</asrwt>
<pdfrwt beam="1">  1        2 0.18484948E+00 0.68448434E+03</pdfrwt>
<pdfrwt beam="2">  1       -2 0.60379581E-01 0.68448434E+03</pdfrwt>
<totfact> 0.49481779E+01</totfact>
</mgrwt>
</event>
<event>
 4    2  0.6914693E-007  0.6624240E+03  0.7818608E-02  0.1021800E+00
          2   -1    0    0  501    0  0.00000000000E+00  0.00000000000E+00  0.17441272889E+04  0.17441272889E+04  0.25500000000E-02 0. -1.
         -2   -1    0    0    0  501 -0.00000000000E+00 -0.00000000000E+00 -0.20093076717E+03  0.20093076719E+03  0.25500000000E-02 0.  1.
    8880023    1    1    2    0    0  0.66014481735E+01 -0.70368456234E+02  0.36786891849E+03  0.75771567636E+03  0.65864270000E+03 0.  1.
    8880022    1    1    2    0    0 -0.66014481735E+01  0.70368456234E+02  0.11753276032E+04  0.11873423797E+04  0.15294330000E+03 0.  0.
<mgrwt>
<rscale>  0 0.47042660E+03</rscale>
<asrwt>0</asrwt>
<pdfrwt beam="1">  1        2 0.26832727E+00 0.66242396E+03</pdfrwt>
<pdfrwt beam="2">  1       -2 0.30912426E-01 0.66242396E+03</pdfrwt>
<totfact> 0.92678655E+01</totfact>
</mgrwt>
</event>
<event>
 4    2  0.6914693E-007  0.8446631E+03  0.7818608E-02  0.9621450E-01
          2   -1    0    0  501    0  0.00000000000E+00  0.00000000000E+00  0.98330943221E+03  0.98330943222E+03  0.25500000000E-02 0. -1.
         -2   -1    0    0    0  501 -0.00000000000E+00 -0.00000000000E+00 -0.51300112699E+03  0.51300112699E+03  0.25500000000E-02 0.  1.
    8880023    1    1    2    0    0 -0.10761854571E+03 -0.51774869573E+03  0.14538798470E+03  0.85708420570E+03  0.65864270000E+03 0.  0.
    8880022    1    1    2    0    0  0.10761854571E+03  0.51774869573E+03  0.32492032052E+03  0.63922635350E+03  0.15294330000E+03 0.  0.
<mgrwt>
<rscale>  0 0.75892630E+03</rscale>
<asrwt>0</asrwt>
<pdfrwt beam="1">  1        2 0.15127837E+00 0.84466305E+03</pdfrwt>
<pdfrwt beam="2">  1       -2 0.78923250E-01 0.84466305E+03</pdfrwt>
<totfact> 0.37070924E+01</totfact>
</mgrwt>
</event>
<event>
 4    2  0.6914693E-007  0.7255293E+03  0.7818608E-02  0.9904302E-01
         -2   -1    0    0    0  501 -0.00000000000E+00  0.00000000000E+00  0.14033413765E+03  0.14033413767E+03  0.25500000000E-02 0.  1.
          2   -1    0    0  501    0  0.00000000000E+00 -0.00000000000E+00 -0.23397368262E+04  0.23397368262E+04  0.25500000000E-02 0. -1.
    8880023    1    1    2    0    0  0.10083319855E+03 -0.28708057526E+03 -0.18719423883E+04  0.20076257375E+04  0.65864270000E+03 0. -1.
    8880022    1    1    2    0    0 -0.10083319855E+03  0.28708057526E+03 -0.32746030020E+03  0.47244522629E+03  0.15294330000E+03 0. -1.
<mgrwt>
<rscale>  0 0.60053237E+03</rscale>
<asrwt>0</asrwt>
<pdfrwt beam="1">  1        2 0.35995948E+00 0.72552932E+03</pdfrwt>
<pdfrwt beam="2">  1       -2 0.21589869E-01 0.72552932E+03</pdfrwt>
<totfact> 0.83259768E+01</totfact>
</mgrwt>
</event>
<event>
 4    2  0.6914693E-007  0.7705718E+03  0.7818608E-02  0.9778469E-01
         -2   -1    0    0    0  501 -0.00000000000E+00  0.00000000000E+00  0.93851125637E+03  0.93851125637E+03  0.25500000000E-02 0.  1.
          2   -1    0    0  501    0  0.00000000000E+00 -0.00000000000E+00 -0.83690324608E+03  0.83690324608E+03  0.25500000000E-02 0. -1.
    8880023    1    1    2    0    0  0.22636299634E+03  0.32974303836E+03  0.69901939000E+03  0.10403888654E+04  0.65864270000E+03 0.  1.
    8880022    1    1    2    0    0 -0.22636299634E+03 -0.32974303836E+03 -0.59741137971E+03  0.73502563702E+03  0.15294330000E+03 0.  0.
<mgrwt>
<rscale>  0 0.66530930E+03</rscale>
<asrwt>0</asrwt>
<pdfrwt beam="1">  1        2 0.12875435E+00 0.77057179E+03</pdfrwt>
<pdfrwt beam="2">  1       -2 0.14438635E+00 0.77057179E+03</pdfrwt>
<totfact> 0.10890523E+01</totfact>
</mgrwt>
</event>
<event>
 4    2  0.6914693E-007  0.6681162E+03  0.7818608E-02  0.1017051E+00
          2   -1    0    0  501    0  0.00000000000E+00  0.00000000000E+00  0.25678648914E+04  0.25678648914E+04  0.25500000000E-02 0. -1.
         -2   -1    0    0    0  501 -0.00000000000E+00 -0.00000000000E+00 -0.11841116417E+03  0.11841116420E+03  0.25500000000E-02 0.  1.
    8880023    1    1    2    0    0 -0.11117575478E+03 -0.14456840148E+02  0.87736439223E+03  0.11027907923E+04  0.65864270000E+03 0.  0.
    8880022    1    1    2    0    0  0.11117575478E+03  0.14456840148E+02  0.15720893351E+04  0.15834852633E+04  0.15294330000E+03 0. -1.
<mgrwt>
<rscale>  0 0.48766043E+03</rscale>
<asrwt>0</asrwt>
<pdfrwt beam="1">  1        2 0.39505615E+00 0.66811620E+03</pdfrwt>
<pdfrwt beam="2">  1       -2 0.18217102E-01 0.66811620E+03</pdfrwt>
<totfact> 0.83966765E+01</totfact>
</mgrwt>
</event>
<event>
 4    2  0.6914693E-007  0.1015404E+04  0.7818608E-02  0.9361677E-01
          2   -1    0    0  501    0  0.00000000000E+00  0.00000000000E+00  0.13618198810E+04  0.13618198810E+04  0.25500000000E-02 0. -1.
         -2   -1    0    0    0  501 -0.00000000000E+00 -0.00000000000E+00 -0.94318008821E+03  0.94318008821E+03  0.25500000000E-02 0.  1.
    8880023    1    1    2    0    0 -0.58604618182E+03 -0.50376998856E+03 -0.46874394066E+03  0.11183762411E+04  0.65864270000E+03 0.  0.
    8880022    1    1    2    0    0  0.58604618182E+03  0.50376998856E+03  0.88738373346E+03  0.11866237281E+04  0.15294330000E+03 0.  0.
<mgrwt>
<rscale>  0 0.95297779E+03</rscale>
<asrwt>0</asrwt>
<pdfrwt beam="1">  1        2 0.20951075E+00 0.10154036E+04</pdfrwt>
<pdfrwt beam="2">  1       -2 0.14510463E+00 0.10154036E+04</pdfrwt>
<totfact> 0.49303068E+00</totfact>
</mgrwt>
</event>
<event>
 4    2  0.6914693E-007  0.7069155E+03  0.7818608E-02  0.9969639E-01
         -2   -1    0    0    0  501 -0.00000000000E+00  0.00000000000E+00  0.14357659974E+03  0.14357659976E+03  0.25500000000E-02 0.  1.
          2   -1    0    0  501    0  0.00000000000E+00 -0.00000000000E+00 -0.31938161629E+04  0.31938161629E+04  0.25500000000E-02 0. -1.
    8880023    1    1    2    0    0 -0.23590522091E+03  0.10133101656E+03 -0.80076903693E+03  0.10681575281E+04  0.65864270000E+03 0.  0.
    8880022    1    1    2    0    0  0.23590522091E+03 -0.10133101656E+03 -0.22494705262E+04  0.22692352345E+04  0.15294330000E+03 0.  0.
<mgrwt>
<rscale>  0 0.57001812E+03</rscale>
<asrwt>0</asrwt>
<pdfrwt beam="1">  1        2 0.49135628E+00 0.70691545E+03</pdfrwt>
<pdfrwt beam="2">  1       -2 0.22088710E-01 0.70691545E+03</pdfrwt>
<totfact> 0.25126972E+01</totfact>
</mgrwt>
</event>
<event>
 4    2  0.6914693E-007  0.7569489E+03  0.7818608E-02  0.9813071E-01
         -2   -1    0    0    0  501 -0.00000000000E+00  0.00000000000E+00  0.42127131840E+03  0.42127131841E+03  0.25500000000E-02 0.  1.
          2   -1    0    0  501    0  0.00000000000E+00 -0.00000000000E+00 -0.14502138908E+04  0.14502138908E+04  0.25500000000E-02 0. -1.
    8880023    1    1    2    0    0  0.31296805860E+03 -0.20300846364E+03  0.10042314323E+02  0.75701551923E+03  0.65864270000E+03 0.  0.
    8880022    1    1    2    0    0 -0.31296805860E+03  0.20300846364E+03 -0.10389848867E+04  0.11144696899E+04  0.15294330000E+03 0.  0.
<mgrwt>
<rscale>  0 0.64665752E+03</rscale>
<asrwt>0</asrwt>
<pdfrwt beam="1">  1        2 0.22310983E+00 0.75694891E+03</pdfrwt>
<pdfrwt beam="2">  1       -2 0.64810973E-01 0.75694891E+03</pdfrwt>
<totfact> 0.30403086E+01</totfact>
</mgrwt>
</event>
<event>
 4    2  0.6914693E-007  0.6724891E+03  0.7818608E-02  0.1013938E+00
         -2   -1    0    0    0  501 -0.00000000000E+00  0.00000000000E+00  0.11238861994E+04  0.11238861994E+04  0.25500000000E-02 0.  1.
          2   -1    0    0  501    0  0.00000000000E+00 -0.00000000000E+00 -0.63204621429E+03  0.63204621429E+03  0.25500000000E-02 0. -1.
    8880023    1    1    2    0    0  0.29929742517E+02  0.13242227741E+03  0.10017489603E+04  0.12065416009E+04  0.65864270000E+03 0.  1.
    8880022    1    1    2    0    0 -0.29929742517E+02 -0.13242227741E+03 -0.50990897524E+03  0.54939081271E+03  0.15294330000E+03 0.  0.
<mgrwt>
<rscale>  0 0.49939132E+03</rscale>
<asrwt>0</asrwt>
<pdfrwt beam="1">  1        2 0.97237881E-01 0.67248915E+03</pdfrwt>
<pdfrwt beam="2">  1       -2 0.17290557E+00 0.67248915E+03</pdfrwt>
<totfact> 0.97062173E+00</totfact>
</mgrwt>
</event>
<event>
 4    2  0.6914693E-007  0.9224173E+03  0.7818608E-02  0.9490962E-01
         -2   -1    0    0    0  501 -0.00000000000E+00  0.00000000000E+00  0.86738679951E+03  0.86738679951E+03  0.25500000000E-02 0.  1.
          2   -1    0    0  501    0  0.00000000000E+00 -0.00000000000E+00 -0.16238227173E+04  0.16238227173E+04  0.25500000000E-02 0. -1.
    8880023    1    1    2    0    0 -0.51370861870E+03  0.39133987617E+03  0.51539602017E+03  0.10566393460E+04  0.65864270000E+03 0.  0.
    8880022    1    1    2    0    0  0.51370861870E+03 -0.39133987617E+03 -0.12718319379E+04  0.14345701708E+04  0.15294330000E+03 0.  0.
<mgrwt>
<rscale>  0 0.84953410E+03</rscale>
<asrwt>0</asrwt>
<pdfrwt beam="1">  1        2 0.24981888E+00 0.92241729E+03</pdfrwt>
<pdfrwt beam="2">  1       -2 0.13344412E+00 0.92241729E+03</pdfrwt>
<totfact> 0.44105789E+00</totfact>
</mgrwt>
</event>
<event>
 4    2  0.6914693E-007  0.8533984E+03  0.7818608E-02  0.9605416E-01
          2   -1    0    0  501    0  0.00000000000E+00  0.00000000000E+00  0.10035290879E+04  0.10035290879E+04  0.25500000000E-02 0. -1.
         -2   -1    0    0    0  501 -0.00000000000E+00 -0.00000000000E+00 -0.92383785156E+03  0.92383785156E+03  0.25500000000E-02 0.  1.
    8880023    1    1    2    0    0 -0.30538965124E+03 -0.44857074536E+03 -0.60079149824E+03  0.10436662222E+04  0.65864270000E+03 0.  1.
    8880022    1    1    2    0    0  0.30538965124E+03  0.44857074536E+03  0.68048273453E+03  0.88370071726E+03  0.15294330000E+03 0.  0.
<mgrwt>
<rscale>  0 0.76938742E+03</rscale>
<asrwt>0</asrwt>
<pdfrwt beam="1">  1        2 0.15438909E+00 0.85339836E+03</pdfrwt>
<pdfrwt beam="2">  1       -2 0.14212890E+00 0.85339836E+03</pdfrwt>
<totfact> 0.87040023E+00</totfact>
</mgrwt>
</event>
<event>
 4    2  0.6914693E-007  0.6899025E+03  0.7818608E-02  0.1004199E+00
         -2   -1    0    0    0  501 -0.00000000000E+00  0.00000000000E+00  0.27787967983E+03  0.27787967985E+03  0.25500000000E-02 0.  1.
          2   -1    0    0  501    0  0.00000000000E+00 -0.00000000000E+00 -0.23607976051E+04  0.23607976051E+04  0.25500000000E-02 0. -1.
    8880023    1    1    2    0    0 -0.10647715359E+03 -0.17555008703E+03 -0.17244726116E+03  0.71112831573E+03  0.65864270000E+03 0.  1.
    8880022    1    1    2    0    0  0.10647715359E+03  0.17555008703E+03 -0.19104706641E+04  0.19275489693E+04  0.15294330000E+03 0.  0.
<mgrwt>
<rscale>  0 0.53846784E+03</rscale>
<asrwt>0</asrwt>
<pdfrwt beam="1">  1        2 0.36319962E+00 0.68990247E+03</pdfrwt>
<pdfrwt beam="2">  1       -2 0.42750721E-01 0.68990247E+03</pdfrwt>
<totfact> 0.22830256E+01</totfact>
</mgrwt>
</event>
<event>
 4    2  0.6914693E-007  0.6807538E+03  0.7818608E-02  0.1008900E+00
         -2   -1    0    0    0  501 -0.00000000000E+00  0.00000000000E+00  0.20957286960E+03  0.20957286962E+03  0.25500000000E-02 0.  1.
          2   -1    0    0  501    0  0.00000000000E+00 -0.00000000000E+00 -0.13470664725E+04  0.13470664725E+04  0.25500000000E-02 0. -1.
    8880023    1    1    2    0    0  0.13860453632E+03 -0.10200133835E+03 -0.41252738647E+03  0.79599280233E+03  0.65864270000E+03 0.  0.
    8880022    1    1    2    0    0 -0.13860453632E+03  0.10200133835E+03 -0.72496621642E+03  0.76064653978E+03  0.15294330000E+03 0.  0.
<mgrwt>
<rscale>  0 0.51913982E+03</rscale>
<asrwt>0</asrwt>
<pdfrwt beam="1">  1        2 0.20724099E+00 0.68075377E+03</pdfrwt>
<pdfrwt beam="2">  1       -2 0.32241981E-01 0.68075377E+03</pdfrwt>
<totfact> 0.14182935E+02</totfact>
</mgrwt>
</event>
<event>
 4    2  0.6914693E-007  0.8213556E+03  0.7818608E-02  0.9666392E-01
         -2   -1    0    0    0  501 -0.00000000000E+00  0.00000000000E+00  0.10110434995E+04  0.10110434995E+04  0.25500000000E-02 0.  1.
          2   -1    0    0  501    0  0.00000000000E+00 -0.00000000000E+00 -0.10501923846E+04  0.10501923846E+04  0.25500000000E-02 0. -1.
    8880023    1    1    2    0    0  0.44910293216E+03 -0.19779133636E+03  0.75474712243E+03  0.11154677411E+04  0.65864270000E+03 0.  1.
    8880022    1    1    2    0    0 -0.44910293216E+03  0.19779133636E+03 -0.79389600756E+03  0.94576814297E+03  0.15294330000E+03 0.  0.
<mgrwt>
<rscale>  0 0.73053557E+03</rscale>
<asrwt>0</asrwt>
<pdfrwt beam="1">  1        2 0.16156806E+00 0.82135562E+03</pdfrwt>
<pdfrwt beam="2">  1       -2 0.15554515E+00 0.82135562E+03</pdfrwt>
<totfact> 0.64304056E+00</totfact>
</mgrwt>
</event>
<event>
 4    2  0.6914693E-007  0.8440434E+03  0.7818608E-02  0.9622603E-01
         -2   -1    0    0    0  501 -0.00000000000E+00  0.00000000000E+00  0.15116143178E+04  0.15116143178E+04  0.25500000000E-02 0.  1.
          2   -1    0    0  501    0  0.00000000000E+00 -0.00000000000E+00 -0.37419154752E+03  0.37419154753E+03  0.25500000000E-02 0. -1.
    8880023    1    1    2    0    0 -0.50596432498E+03  0.15033005189E+03  0.32387903572E+03  0.90405025231E+03  0.65864270000E+03 0.  0.
    8880022    1    1    2    0    0  0.50596432498E+03 -0.15033005189E+03  0.81354373458E+03  0.98175561304E+03  0.15294330000E+03 0.  0.
<mgrwt>
<rscale>  0 0.75818078E+03</rscale>
<asrwt>0</asrwt>
<pdfrwt beam="1">  1        2 0.57567931E-01 0.84404338E+03</pdfrwt>
<pdfrwt beam="2">  1       -2 0.23255605E+00 0.84404338E+03</pdfrwt>
<totfact> 0.71639298E+00</totfact>
</mgrwt>
</event>
<event>
 4    2  0.6914693E-007  0.1360786E+04  0.7818608E-02  0.9014768E-01
          2   -1    0    0  501    0  0.00000000000E+00  0.00000000000E+00  0.23308218806E+04  0.23308218807E+04  0.25500000000E-02 0. -1.
         -2   -1    0    0    0  501 -0.00000000000E+00 -0.00000000000E+00 -0.97474942791E+03  0.97474942792E+03  0.25500000000E-02 0.  1.
    8880023    1    1    2    0    0 -0.10349261139E+04 -0.58894420865E+03 -0.16172678702E+03  0.13703623981E+04  0.65864270000E+03 0.  1.
    8880022    1    1    2    0    0  0.10349261139E+04  0.58894420865E+03  0.15177992398E+04  0.19352089105E+04  0.15294330000E+03 0.  0.
<mgrwt>
<rscale>  0 0.13188254E+04</rscale>
<asrwt>0</asrwt>
<pdfrwt beam="1">  1        2 0.35858798E+00 0.13607856E+04</pdfrwt>
<pdfrwt beam="2">  1       -2 0.14996145E+00 0.13607856E+04</pdfrwt>
<totfact> 0.12507707E+00</totfact>
</mgrwt>
</event>
<event>
 4    2  0.6914693E-007  0.9738668E+03  0.7818608E-02  0.9416576E-01
          2   -1    0    0  501    0  0.00000000000E+00  0.00000000000E+00  0.23716043717E+04  0.23716043717E+04  0.25500000000E-02 0. -1.
         -2   -1    0    0    0  501 -0.00000000000E+00 -0.00000000000E+00 -0.58863206695E+03  0.58863206695E+03  0.25500000000E-02 0.  1.
    8880023    1    1    2    0    0  0.51594819793E+03  0.49840129878E+03 -0.60962844624E+02  0.97577306392E+03  0.65864270000E+03 0.  0.
    8880022    1    1    2    0    0 -0.51594819793E+03 -0.49840129878E+03  0.18439351494E+04  0.19844633748E+04  0.15294330000E+03 0.  0.
<mgrwt>
<rscale>  0 0.90724016E+03</rscale>
<asrwt>0</asrwt>
<pdfrwt beam="1">  1        2 0.36486220E+00 0.97386683E+03</pdfrwt>
<pdfrwt beam="2">  1       -2 0.90558782E-01 0.97386683E+03</pdfrwt>
<totfact> 0.43450445E+00</totfact>
</mgrwt>
</event>
<event>
 4    2  0.6914693E-007  0.7252692E+03  0.7818608E-02  0.9905144E-01
         -2   -1    0    0    0  501 -0.00000000000E+00  0.00000000000E+00  0.44989025659E+03  0.44989025660E+03  0.25500000000E-02 0.  1.
          2   -1    0    0  501    0  0.00000000000E+00 -0.00000000000E+00 -0.16550244635E+04  0.16550244635E+04  0.25500000000E-02 0. -1.
    8880023    1    1    2    0    0 -0.27946145876E+03 -0.11877081077E+03  0.12152623409E+03  0.73538020388E+03  0.65864270000E+03 0.  1.
    8880022    1    1    2    0    0  0.27946145876E+03  0.11877081077E+03 -0.13266604410E+04  0.13695345162E+04  0.15294330000E+03 0.  0.
<mgrwt>
<rscale>  0 0.60012634E+03</rscale>
<asrwt>0</asrwt>
<pdfrwt beam="1">  1        2 0.25461915E+00 0.72526920E+03</pdfrwt>
<pdfrwt beam="2">  1       -2 0.69213886E-01 0.72526920E+03</pdfrwt>
<totfact> 0.20391563E+01</totfact>
</mgrwt>
</event>
<event>
 4    2  0.6914693E-007  0.7753291E+03  0.7818608E-02  0.9766926E-01
          2   -1    0    0  501    0  0.00000000000E+00  0.00000000000E+00  0.30625576935E+04  0.30625576935E+04  0.25500000000E-02 0. -1.
         -2   -1    0    0    0  501 -0.00000000000E+00 -0.00000000000E+00 -0.29458353404E+03  0.29458353405E+03  0.25500000000E-02 0.  1.
    8880023    1    1    2    0    0 -0.39754194244E+03 -0.96360599117E+02  0.26956784253E+03  0.82085442623E+03  0.65864270000E+03 0.  1.
    8880022    1    1    2    0    0  0.39754194244E+03  0.96360599117E+02  0.24984063169E+04  0.25362868013E+04  0.15294330000E+03 0. -1.
<mgrwt>
<rscale>  0 0.67168108E+03</rscale>
<asrwt>0</asrwt>
<pdfrwt beam="1">  1        2 0.47116269E+00 0.77532907E+03</pdfrwt>
<pdfrwt beam="2">  1       -2 0.45320547E-01 0.77532907E+03</pdfrwt>
<totfact> 0.77918218E+00</totfact>
</mgrwt>
</event>
<event>
 4    2  0.6914693E-007  0.7866965E+03  0.7818608E-02  0.9740335E-01
         -2   -1    0    0    0  501 -0.00000000000E+00  0.00000000000E+00  0.39219220920E+03  0.39219220920E+03  0.25500000000E-02 0.  1.
          2   -1    0    0  501    0  0.00000000000E+00 -0.00000000000E+00 -0.19123973602E+04  0.19123973602E+04  0.25500000000E-02 0. -1.
    8880023    1    1    2    0    0  0.78776226987E+02  0.42293680662E+03 -0.76503659341E+02  0.79040764956E+03  0.65864270000E+03 0.  1.
    8880022    1    1    2    0    0 -0.78776226987E+02 -0.42293680662E+03 -0.14437014916E+04  0.15141819198E+04  0.15294330000E+03 0.  0.
<mgrwt>
<rscale>  0 0.68665190E+03</rscale>
<asrwt>0</asrwt>
<pdfrwt beam="1">  1        2 0.29421497E+00 0.78669654E+03</pdfrwt>
<pdfrwt beam="2">  1       -2 0.60337264E-01 0.78669654E+03</pdfrwt>
<totfact> 0.19648420E+01</totfact>
</mgrwt>
</event>
<event>
 4    2  0.6914693E-007  0.7496253E+03  0.7818608E-02  0.9832747E-01
          2   -1    0    0  501    0  0.00000000000E+00  0.00000000000E+00  0.61896887661E+03  0.61896887662E+03  0.25500000000E-02 0. -1.
         -2   -1    0    0    0  501 -0.00000000000E+00 -0.00000000000E+00 -0.95107341447E+03  0.95107341447E+03  0.25500000000E-02 0.  1.
    8880023    1    1    2    0    0  0.28521797445E+03 -0.21628361761E+03 -0.70640574333E+03  0.10300229010E+04  0.65864270000E+03 0.  1.
    8880022    1    1    2    0    0 -0.28521797445E+03  0.21628361761E+03  0.37430120547E+03  0.54001939005E+03  0.15294330000E+03 0.  0.
<mgrwt>
<rscale>  0 0.63634372E+03</rscale>
<asrwt>0</asrwt>
<pdfrwt beam="1">  1        2 0.95225980E-01 0.74962531E+03</pdfrwt>
<pdfrwt beam="2">  1       -2 0.14631899E+00 0.74962531E+03</pdfrwt>
<totfact> 0.15498516E+01</totfact>
</mgrwt>
</event>
<event>
 4    2  0.6914693E-007  0.7222166E+03  0.7818608E-02  0.9915156E-01
         -2   -1    0    0    0  501 -0.00000000000E+00  0.00000000000E+00  0.22467614630E+03  0.22467614631E+03  0.25500000000E-02 0.  1.
          2   -1    0    0  501    0  0.00000000000E+00 -0.00000000000E+00 -0.20827692886E+04  0.20827692886E+04  0.25500000000E-02 0. -1.
    8880023    1    1    2    0    0 -0.19429907034E+03 -0.22368385531E+03 -0.42911433164E+03  0.84008089595E+03  0.65864270000E+03 0.  0.
    8880022    1    1    2    0    0  0.19429907034E+03  0.22368385531E+03 -0.14289788107E+04  0.14673645390E+04  0.15294330000E+03 0.  0.
<mgrwt>
<rscale>  0 0.59532356E+03</rscale>
<asrwt>0</asrwt>
<pdfrwt beam="1">  1        2 0.32042603E+00 0.72221659E+03</pdfrwt>
<pdfrwt beam="2">  1       -2 0.34565562E-01 0.72221659E+03</pdfrwt>
<totfact> 0.48792192E+01</totfact>
</mgrwt>
</event>
<event>
 4    2  0.6914693E-007  0.1336237E+04  0.7818608E-02  0.9034882E-01
         -2   -1    0    0    0  501 -0.00000000000E+00  0.00000000000E+00  0.88845148596E+03  0.88845148596E+03  0.25500000000E-02 0.  1.
          2   -1    0    0  501    0  0.00000000000E+00 -0.00000000000E+00 -0.21156626765E+04  0.21156626765E+04  0.25500000000E-02 0. -1.
    8880023    1    1    2    0    0  0.89211848177E+03  0.74554942936E+03 -0.42098626552E+02  0.13369000852E+04  0.65864270000E+03 0.  1.
    8880022    1    1    2    0    0 -0.89211848177E+03 -0.74554942936E+03 -0.11851125640E+04  0.16672140773E+04  0.15294330000E+03 0.  0.
<mgrwt>
<rscale>  0 0.12933166E+04</rscale>
<asrwt>0</asrwt>
<pdfrwt beam="1">  1        2 0.32548657E+00 0.13362371E+04</pdfrwt>
<pdfrwt beam="2">  1       -2 0.13668484E+00 0.13362371E+04</pdfrwt>
<totfact> 0.21153985E+00</totfact>
</mgrwt>
</event>
<event>
 4    2  0.6914693E-007  0.6790175E+03  0.7818608E-02  0.1009885E+00
          2   -1    0    0  501    0  0.00000000000E+00  0.00000000000E+00  0.53164344251E+03  0.53164344252E+03  0.25500000000E-02 0. -1.
         -2   -1    0    0    0  501 -0.00000000000E+00 -0.00000000000E+00 -0.44885216825E+03  0.44885216826E+03  0.25500000000E-02 0.  1.
    8880023    1    1    2    0    0  0.16234197755E+03  0.29994648783E+02 -0.10537842160E+03  0.68714584670E+03  0.65864270000E+03 0.  1.
    8880022    1    1    2    0    0 -0.16234197755E+03 -0.29994648783E+02  0.18816969586E+03  0.29334976408E+03  0.15294330000E+03 0.  0.
<mgrwt>
<rscale>  0 0.51520391E+03</rscale>
<asrwt>0</asrwt>
<pdfrwt beam="1">  1        2 0.81791299E-01 0.67901753E+03</pdfrwt>
<pdfrwt beam="2">  1       -2 0.69054180E-01 0.67901753E+03</pdfrwt>
<totfact> 0.11138050E+02</totfact>
</mgrwt>
</event>
<event>
 4    2  0.6914693E-007  0.6849355E+03  0.7818608E-02  0.1006659E+00
         -2   -1    0    0    0  501 -0.00000000000E+00  0.00000000000E+00  0.64290081959E+03  0.64290081960E+03  0.25500000000E-02 0.  1.
          2   -1    0    0  501    0  0.00000000000E+00 -0.00000000000E+00 -0.82631291113E+03  0.82631291113E+03  0.25500000000E-02 0. -1.
    8880023    1    1    2    0    0  0.14351652512E+03  0.12136500922E+03  0.43064890963E+03  0.80907054580E+03  0.65864270000E+03 0.  1.
    8880022    1    1    2    0    0 -0.14351652512E+03 -0.12136500922E+03 -0.61406100117E+03  0.66014318493E+03  0.15294330000E+03 0.  0.
<mgrwt>
<rscale>  0 0.52824303E+03</rscale>
<asrwt>0</asrwt>
<pdfrwt beam="1">  1        2 0.12712506E+00 0.68493552E+03</pdfrwt>
<pdfrwt beam="2">  1       -2 0.98907819E-01 0.68493552E+03</pdfrwt>
<totfact> 0.28540930E+01</totfact>
</mgrwt>
</event>
<event>
 4    2  0.6914693E-007  0.8487602E+03  0.7818608E-02  0.9613878E-01
         -2   -1    0    0    0  501 -0.00000000000E+00  0.00000000000E+00  0.66241898940E+03  0.66241898941E+03  0.25500000000E-02 0.  1.
          2   -1    0    0  501    0  0.00000000000E+00 -0.00000000000E+00 -0.29592901321E+04  0.29592901321E+04  0.25500000000E-02 0. -1.
    8880023    1    1    2    0    0 -0.13991185835E+01  0.53533319387E+03  0.34913507335E+03  0.91776309127E+03  0.65864270000E+03 0.  0.
    8880022    1    1    2    0    0  0.13991185835E+01 -0.53533319387E+03 -0.26460062160E+04  0.27039460302E+04  0.15294330000E+03 0.  0.
<mgrwt>
<rscale>  0 0.76384389E+03</rscale>
<asrwt>0</asrwt>
<pdfrwt beam="1">  1        2 0.45527540E+00 0.84876015E+03</pdfrwt>
<pdfrwt beam="2">  1       -2 0.10191062E+00 0.84876015E+03</pdfrwt>
<totfact> 0.15237685E+00</totfact>
</mgrwt>
</event>
<event>
 4    2  0.6914693E-007  0.8828082E+03  0.7818608E-02  0.9554213E-01
          2   -1    0    0  501    0  0.00000000000E+00  0.00000000000E+00  0.33097312537E+04  0.33097312537E+04  0.25500000000E-02 0. -1.
         -2   -1    0    0    0  501 -0.00000000000E+00 -0.00000000000E+00 -0.23919878400E+03  0.23919878401E+03  0.25500000000E-02 0.  1.
    8880023    1    1    2    0    0 -0.30184518610E+03  0.50441019139E+03  0.77606040463E+03  0.11754233771E+04  0.65864270000E+03 0.  0.
    8880022    1    1    2    0    0  0.30184518610E+03 -0.50441019139E+03  0.22944720651E+04  0.23735066606E+04  0.15294330000E+03 0.  0.
<mgrwt>
<rscale>  0 0.80402220E+03</rscale>
<asrwt>0</asrwt>
<pdfrwt beam="1">  1        2 0.50918938E+00 0.88280823E+03</pdfrwt>
<pdfrwt beam="2">  1       -2 0.36799816E-01 0.88280823E+03</pdfrwt>
<totfact> 0.80106520E+00</totfact>
</mgrwt>
</event>
<event>
 4    2  0.6914693E-007  0.7465900E+03  0.7818608E-02  0.9841151E-01
         -2   -1    0    0    0  501 -0.00000000000E+00  0.00000000000E+00  0.18667526260E+03  0.18667526262E+03  0.25500000000E-02 0.  1.
          2   -1    0    0  501    0  0.00000000000E+00 -0.00000000000E+00 -0.21932165518E+04  0.21932165518E+04  0.25500000000E-02 0. -1.
    8880023    1    1    2    0    0  0.30190555950E+03 -0.18010938197E+03 -0.71910098068E+03  0.10365822606E+04  0.65864270000E+03 0.  0.
    8880022    1    1    2    0    0 -0.30190555950E+03  0.18010938197E+03 -0.12874403085E+04  0.13433095538E+04  0.15294330000E+03 0.  0.
<mgrwt>
<rscale>  0 0.63200156E+03</rscale>
<asrwt>0</asrwt>
<pdfrwt beam="1">  1        2 0.33741791E+00 0.74658996E+03</pdfrwt>
<pdfrwt beam="2">  1       -2 0.28719273E-01 0.74658996E+03</pdfrwt>
<totfact> 0.59836654E+01</totfact>
</mgrwt>
</event>
<event>
 4    2  0.6914693E-007  0.8933310E+03  0.7818608E-02  0.9536823E-01
          2   -1    0    0  501    0  0.00000000000E+00  0.00000000000E+00  0.15783392202E+04  0.15783392202E+04  0.25500000000E-02 0. -1.
         -2   -1    0    0    0  501 -0.00000000000E+00 -0.00000000000E+00 -0.46446099038E+03  0.46446099039E+03  0.25500000000E-02 0.  1.
    8880023    1    1    2    0    0 -0.53848524402E+03  0.27251378285E+03  0.16582296190E+03  0.90859098655E+03  0.65864270000E+03 0.  0.
    8880022    1    1    2    0    0  0.53848524402E+03 -0.27251378285E+03  0.94805526795E+03  0.11342092241E+04  0.15294330000E+03 0.  0.
<mgrwt>
<rscale>  0 0.81622583E+03</rscale>
<asrwt>0</asrwt>
<pdfrwt beam="1">  1        2 0.24282142E+00 0.89333103E+03</pdfrwt>
<pdfrwt beam="2">  1       -2 0.71455536E-01 0.89333103E+03</pdfrwt>
<totfact> 0.20557864E+01</totfact>
</mgrwt>
</event>
<event>
 4    2  0.6914693E-007  0.7422648E+03  0.7818608E-02  0.9853398E-01
         -2   -1    0    0    0  501 -0.00000000000E+00  0.00000000000E+00  0.60041694433E+03  0.60041694434E+03  0.25500000000E-02 0.  1.
          2   -1    0    0  501    0  0.00000000000E+00 -0.00000000000E+00 -0.27056061140E+04  0.27056061140E+04  0.25500000000E-02 0. -1.
    8880023    1    1    2    0    0  0.30581211199E+03  0.15370658148E+03  0.35122477932E+03  0.82116734768E+03  0.65864270000E+03 0.  1.
    8880022    1    1    2    0    0 -0.30581211199E+03 -0.15370658148E+03 -0.24564139490E+04  0.24848557106E+04  0.15294330000E+03 0.  0.
<mgrwt>
<rscale>  0 0.62573941E+03</rscale>
<asrwt>0</asrwt>
<pdfrwt beam="1">  1        2 0.41624709E+00 0.74226476E+03</pdfrwt>
<pdfrwt beam="2">  1       -2 0.92371839E-01 0.74226476E+03</pdfrwt>
<totfact> 0.27755518E+00</totfact>
</mgrwt>
</event>
<event>
 4    2  0.6914693E-007  0.7554703E+03  0.7818608E-02  0.9816979E-01
         -2   -1    0    0    0  501 -0.00000000000E+00  0.00000000000E+00  0.58500527556E+03  0.58500527557E+03  0.25500000000E-02 0.  1.
          2   -1    0    0  501    0  0.00000000000E+00 -0.00000000000E+00 -0.16974511462E+04  0.16974511462E+04  0.25500000000E-02 0. -1.
    8880023    1    1    2    0    0  0.27253315883E+03  0.25030145350E+03  0.30112576235E+03  0.81327244593E+03  0.65864270000E+03 0.  1.
    8880022    1    1    2    0    0 -0.27253315883E+03 -0.25030145350E+03 -0.14135716330E+04  0.14691839759E+04  0.15294330000E+03 0.  0.
<mgrwt>
<rscale>  0 0.64459275E+03</rscale>
<asrwt>0</asrwt>
<pdfrwt beam="1">  1        2 0.26114633E+00 0.75547028E+03</pdfrwt>
<pdfrwt beam="2">  1       -2 0.90000812E-01 0.75547028E+03</pdfrwt>
<totfact> 0.10685855E+01</totfact>
</mgrwt>
</event>
<event>
 4    2  0.6914693E-007  0.6655018E+03  0.7818608E-02  0.1019116E+00
          2   -1    0    0  501    0  0.00000000000E+00  0.00000000000E+00  0.19748958389E+04  0.19748958389E+04  0.25500000000E-02 0. -1.
         -2   -1    0    0    0  501 -0.00000000000E+00 -0.00000000000E+00 -0.21387631171E+03  0.21387631172E+03  0.25500000000E-02 0.  1.
    8880023    1    1    2    0    0  0.94247380592E+02 -0.14137526636E+02  0.32343027210E+03  0.73993228446E+03  0.65864270000E+03 0.  1.
    8880022    1    1    2    0    0 -0.94247380592E+02  0.14137526636E+02  0.14375892551E+04  0.14488398662E+04  0.15294330000E+03 0.  0.
<mgrwt>
<rscale>  0 0.48006943E+03</rscale>
<asrwt>0</asrwt>
<pdfrwt beam="1">  1        2 0.30383013E+00 0.66550180E+03</pdfrwt>
<pdfrwt beam="2">  1       -2 0.32904048E-01 0.66550180E+03</pdfrwt>
<totfact> 0.61768355E+01</totfact>
</mgrwt>
</event>
<event>
 4    2  0.6914693E-007  0.8580189E+03  0.7818608E-02  0.9597097E-01
          2   -1    0    0  501    0  0.00000000000E+00  0.00000000000E+00  0.11219719727E+04  0.11219719727E+04  0.25500000000E-02 0. -1.
         -2   -1    0    0    0  501 -0.00000000000E+00 -0.00000000000E+00 -0.64907415944E+03  0.64907415944E+03  0.25500000000E-02 0.  1.
    8880023    1    1    2    0    0  0.47775058861E+03  0.27228770231E+03 -0.20769441524E+03  0.88279861471E+03  0.65864270000E+03 0.  0.
    8880022    1    1    2    0    0 -0.47775058861E+03 -0.27228770231E+03  0.68059222853E+03  0.88824751747E+03  0.15294330000E+03 0.  0.
<mgrwt>
<rscale>  0 0.77488604E+03</rscale>
<asrwt>0</asrwt>
<pdfrwt beam="1">  1        2 0.17261107E+00 0.85801889E+03</pdfrwt>
<pdfrwt beam="2">  1       -2 0.99857565E-01 0.85801889E+03</pdfrwt>
<totfact> 0.17621182E+01</totfact>
</mgrwt>
</event>
<event>
 4    2  0.6914693E-007  0.7464090E+03  0.7818608E-02  0.9841657E-01
         -2   -1    0    0    0  501 -0.00000000000E+00  0.00000000000E+00  0.62454767001E+03  0.62454767002E+03  0.25500000000E-02 0.  1.
          2   -1    0    0  501    0  0.00000000000E+00 -0.00000000000E+00 -0.14521211136E+04  0.14521211136E+04  0.25500000000E-02 0. -1.
    8880023    1    1    2    0    0 -0.23221389075E+03 -0.26342524865E+03  0.36011957587E+03  0.82874149641E+03  0.65864270000E+03 0.  1.
    8880022    1    1    2    0    0  0.23221389075E+03  0.26342524865E+03 -0.11876930194E+04  0.12479272872E+04  0.15294330000E+03 0.  0.
<mgrwt>
<rscale>  0 0.63174133E+03</rscale>
<asrwt>0</asrwt>
<pdfrwt beam="1">  1        2 0.22340325E+00 0.74640898E+03</pdfrwt>
<pdfrwt beam="2">  1       -2 0.96084257E-01 0.74640898E+03</pdfrwt>
<totfact> 0.12558584E+01</totfact>
</mgrwt>
</event>
<event>
 4    2  0.6914693E-007  0.6646899E+03  0.7818608E-02  0.1019795E+00
          2   -1    0    0  501    0  0.00000000000E+00  0.00000000000E+00  0.71767503443E+03  0.71767503444E+03  0.25500000000E-02 0. -1.
         -2   -1    0    0    0  501 -0.00000000000E+00 -0.00000000000E+00 -0.34985850822E+03  0.34985850823E+03  0.25500000000E-02 0.  1.
    8880023    1    1    2    0    0 -0.59522544921E+02 -0.66779559853E+02  0.60615735699E+01  0.66471752791E+03  0.65864270000E+03 0.  1.
    8880022    1    1    2    0    0  0.59522544921E+02  0.66779559853E+02  0.36175495264E+03  0.40281601476E+03  0.15294330000E+03 0.  0.
<mgrwt>
<rscale>  0 0.47760658E+03</rscale>
<asrwt>0</asrwt>
<pdfrwt beam="1">  1        2 0.11041154E+00 0.66468989E+03</pdfrwt>
<pdfrwt beam="2">  1       -2 0.53824386E-01 0.66468989E+03</pdfrwt>
<totfact> 0.13118428E+02</totfact>
</mgrwt>
</event>
<event>
 4    2  0.6914693E-007  0.6968531E+03  0.7818608E-02  0.1001051E+00
         -2   -1    0    0    0  501 -0.00000000000E+00  0.00000000000E+00  0.35272674303E+03  0.35272674304E+03  0.25500000000E-02 0.  1.
          2   -1    0    0  501    0  0.00000000000E+00 -0.00000000000E+00 -0.79705131258E+03  0.79705131258E+03  0.25500000000E-02 0. -1.
    8880023    1    1    2    0    0  0.22551680312E+03 -0.30597323127E+02 -0.91351413328E+02  0.70281527562E+03  0.65864270000E+03 0. -1.
    8880022    1    1    2    0    0 -0.22551680312E+03  0.30597323127E+02 -0.35297315623E+03  0.44696278000E+03  0.15294330000E+03 0.  0.
<mgrwt>
<rscale>  0 0.55191578E+03</rscale>
<asrwt>0</asrwt>
<pdfrwt beam="1">  1        2 0.12262328E+00 0.69685309E+03</pdfrwt>
<pdfrwt beam="2">  1       -2 0.54265653E-01 0.69685309E+03</pdfrwt>
<totfact> 0.11238647E+02</totfact>
</mgrwt>
</event>
<event>
 4    2  0.6914693E-007  0.6627116E+03  0.7818608E-02  0.1021536E+00
         -2   -1    0    0    0  501 -0.00000000000E+00  0.00000000000E+00  0.59918985407E+03  0.59918985408E+03  0.25500000000E-02 0.  1.
          2   -1    0    0  501    0  0.00000000000E+00 -0.00000000000E+00 -0.94490017869E+03  0.94490017869E+03  0.25500000000E-02 0. -1.
    8880023    1    1    2    0    0 -0.22805943868E+02 -0.69687090648E+02  0.40352328461E+03  0.77589796311E+03  0.65864270000E+03 0.  1.
    8880022    1    1    2    0    0  0.22805943868E+02  0.69687090648E+02 -0.74923360922E+03  0.76819206965E+03  0.15294330000E+03 0.  0.
<mgrwt>
<rscale>  0 0.47136488E+03</rscale>
<asrwt>0</asrwt>
<pdfrwt beam="1">  1        2 0.14536926E+00 0.66271156E+03</pdfrwt>
<pdfrwt beam="2">  1       -2 0.92183055E-01 0.66271156E+03</pdfrwt>
<totfact> 0.28030436E+01</totfact>
</mgrwt>
</event>
<event>
 4    2  0.6914693E-007  0.7040093E+03  0.7818608E-02  0.9980958E-01
         -2   -1    0    0    0  501 -0.00000000000E+00  0.00000000000E+00  0.32368448698E+03  0.32368448699E+03  0.25500000000E-02 0.  1.
          2   -1    0    0  501    0  0.00000000000E+00 -0.00000000000E+00 -0.13780301189E+04  0.13780301189E+04  0.25500000000E-02 0. -1.
    8880023    1    1    2    0    0 -0.21417666147E+03  0.12628257435E+03 -0.10908850742E+03  0.71241100470E+03  0.65864270000E+03 0.  1.
    8880022    1    1    2    0    0  0.21417666147E+03 -0.12628257435E+03 -0.94525712445E+03  0.98930360115E+03  0.15294330000E+03 0.  0.
<mgrwt>
<rscale>  0 0.56493113E+03</rscale>
<asrwt>0</asrwt>
<pdfrwt beam="1">  1        2 0.21200463E+00 0.70400933E+03</pdfrwt>
<pdfrwt beam="2">  1       -2 0.49797614E-01 0.70400933E+03</pdfrwt>
<totfact> 0.58218201E+01</totfact>
</mgrwt>
</event>
<event>
 4    2  0.6914693E-007  0.6775769E+03  0.7818608E-02  0.1010729E+00
          2   -1    0    0  501    0  0.00000000000E+00  0.00000000000E+00  0.14386756949E+04  0.14386756949E+04  0.25500000000E-02 0. -1.
         -2   -1    0    0    0  501 -0.00000000000E+00 -0.00000000000E+00 -0.24345738578E+03  0.24345738579E+03  0.25500000000E-02 0.  1.
    8880023    1    1    2    0    0 -0.15883318930E+03  0.84983560234E+01  0.26739386363E+03  0.72842974174E+03  0.65864270000E+03 0.  1.
    8880022    1    1    2    0    0  0.15883318930E+03 -0.84983560234E+01  0.92782444549E+03  0.95370333896E+03  0.15294330000E+03 0.  0.
<mgrwt>
<rscale>  0 0.51185974E+03</rscale>
<asrwt>0</asrwt>
<pdfrwt beam="1">  1        2 0.22133472E+00 0.67757687E+03</pdfrwt>
<pdfrwt beam="2">  1       -2 0.37454983E-01 0.67757687E+03</pdfrwt>
<totfact> 0.94752742E+01</totfact>
</mgrwt>
</event>
<event>
 4    2  0.6914693E-007  0.7622283E+03  0.7818608E-02  0.9799373E-01
          2   -1    0    0  501    0  0.00000000000E+00  0.00000000000E+00  0.63474727646E+03  0.63474727647E+03  0.25500000000E-02 0. -1.
         -2   -1    0    0    0  501 -0.00000000000E+00 -0.00000000000E+00 -0.87367941078E+03  0.87367941079E+03  0.25500000000E-02 0.  1.
    8880023    1    1    2    0    0  0.25180929748E+03 -0.28943705052E+03  0.30882631865E+03  0.82241451219E+03  0.65864270000E+03 0.  0.
    8880022    1    1    2    0    0 -0.25180929748E+03  0.28943705052E+03 -0.54775845297E+03  0.68601217506E+03  0.15294330000E+03 0.  0.
<mgrwt>
<rscale>  0 0.65396228E+03</rscale>
<asrwt>0</asrwt>
<pdfrwt beam="1">  1        2 0.97653428E-01 0.76222827E+03</pdfrwt>
<pdfrwt beam="2">  1       -2 0.13441222E+00 0.76222827E+03</pdfrwt>
<totfact> 0.18704444E+01</totfact>
</mgrwt>
</event>
<event>
 4    2  0.6914693E-007  0.6817579E+03  0.7818608E-02  0.1008346E+00
         -2   -1    0    0    0  501 -0.00000000000E+00  0.00000000000E+00  0.10363779628E+04  0.10363779628E+04  0.25500000000E-02 0.  1.
          2   -1    0    0  501    0  0.00000000000E+00 -0.00000000000E+00 -0.10532615118E+04  0.10532615118E+04  0.25500000000E-02 0. -1.
    8880023    1    1    2    0    0 -0.17598730378E+03  0.34825725366E+01  0.90820239451E+03  0.11356167730E+04  0.65864270000E+03 0.  1.
    8880022    1    1    2    0    0  0.17598730378E+03 -0.34825725366E+01 -0.92508594351E+03  0.95402270167E+03  0.15294330000E+03 0.  0.
<mgrwt>
<rscale>  0 0.52137219E+03</rscale>
<asrwt>0</asrwt>
<pdfrwt beam="1">  1        2 0.16204023E+00 0.68175792E+03</pdfrwt>
<pdfrwt beam="2">  1       -2 0.15944276E+00 0.68175792E+03</pdfrwt>
<totfact> 0.61006330E+00</totfact>
</mgrwt>
</event>
<event>
 4    2  0.6914693E-007  0.7777872E+03  0.7818608E-02  0.9761061E-01
         -2   -1    0    0    0  501 -0.00000000000E+00  0.00000000000E+00  0.13067570695E+04  0.13067570695E+04  0.25500000000E-02 0.  1.
          2   -1    0    0  501    0  0.00000000000E+00 -0.00000000000E+00 -0.49173972508E+03  0.49173972509E+03  0.25500000000E-02 0. -1.
    8880023    1    1    2    0    0 -0.26669607960E+03 -0.31625304279E+03  0.10437303052E+04  0.13016627605E+04  0.65864270000E+03 0.  1.
    8880022    1    1    2    0    0  0.26669607960E+03  0.31625304279E+03 -0.22871296077E+03  0.49683403405E+03  0.15294330000E+03 0.  0.
<mgrwt>
<rscale>  0 0.67494778E+03</rscale>
<asrwt>0</asrwt>
<pdfrwt beam="1">  1        2 0.75652265E-01 0.77778724E+03</pdfrwt>
<pdfrwt beam="2">  1       -2 0.20103955E+00 0.77778724E+03</pdfrwt>
<totfact> 0.83552032E+00</totfact>
</mgrwt>
</event>
<event>
 4    2  0.6914693E-007  0.7946204E+03  0.7818608E-02  0.9722551E-01
          2   -1    0    0  501    0  0.00000000000E+00  0.00000000000E+00  0.63842532446E+03  0.63842532447E+03  0.25500000000E-02 0. -1.
         -2   -1    0    0    0  501 -0.00000000000E+00 -0.00000000000E+00 -0.19963697129E+04  0.19963697129E+04  0.25500000000E-02 0.  1.
    8880023    1    1    2    0    0 -0.44009637441E+03  0.62662738712E+02 -0.18136361576E+04  0.19800751895E+04  0.65864270000E+03 0.  1.
    8880022    1    1    2    0    0  0.44009637441E+03 -0.62662738712E+02  0.45569176922E+03  0.65471984783E+03  0.15294330000E+03 0.  0.
<mgrwt>
<rscale>  0 0.69689860E+03</rscale>
<asrwt>0</asrwt>
<pdfrwt beam="1">  1        2 0.98219282E-01 0.79462044E+03</pdfrwt>
<pdfrwt beam="2">  1       -2 0.30713380E+00 0.79462044E+03</pdfrwt>
<totfact> 0.13696816E+00</totfact>
</mgrwt>
</event>
<event>
 4    2  0.6914693E-007  0.7675955E+03  0.7818608E-02  0.9785826E-01
         -2   -1    0    0    0  501 -0.00000000000E+00  0.00000000000E+00  0.30982330074E+03  0.30982330075E+03  0.25500000000E-02 0.  1.
          2   -1    0    0  501    0  0.00000000000E+00 -0.00000000000E+00 -0.16231697758E+04  0.16231697758E+04  0.25500000000E-02 0. -1.
    8880023    1    1    2    0    0  0.31279154178E+03 -0.23990432410E+03 -0.28100338115E+03  0.81741405653E+03  0.65864270000E+03 0.  0.
    8880022    1    1    2    0    0 -0.31279154178E+03  0.23990432410E+03 -0.10323430939E+04  0.11155790200E+04  0.15294330000E+03 0.  0.
<mgrwt>
<rscale>  0 0.66128775E+03</rscale>
<asrwt>0</asrwt>
<pdfrwt beam="1">  1        2 0.24971842E+00 0.76759549E+03</pdfrwt>
<pdfrwt beam="2">  1       -2 0.47665124E-01 0.76759549E+03</pdfrwt>
<totfact> 0.46135594E+01</totfact>
</mgrwt>
</event>
<event>
 4    2  0.6914693E-007  0.6600597E+03  0.7818608E-02  0.1024095E+00
         -2   -1    0    0    0  501 -0.00000000000E+00  0.00000000000E+00  0.55692198834E+03  0.55692198834E+03  0.25500000000E-02 0.  1.
          2   -1    0    0  501    0  0.00000000000E+00 -0.00000000000E+00 -0.10763974198E+04  0.10763974198E+04  0.25500000000E-02 0. -1.
    8880023    1    1    2    0    0 -0.16177260708E+02  0.40085671997E+02  0.35159912402E+03  0.74786410205E+03  0.65864270000E+03 0.  1.
    8880022    1    1    2    0    0  0.16177260708E+02 -0.40085671997E+02 -0.87107455548E+03  0.88545530609E+03  0.15294330000E+03 0.  0.
<mgrwt>
<rscale>  0 0.46237254E+03</rscale>
<asrwt>0</asrwt>
<pdfrwt beam="1">  1        2 0.16559960E+00 0.66005967E+03</pdfrwt>
<pdfrwt beam="2">  1       -2 0.85680306E-01 0.66005967E+03</pdfrwt>
<totfact> 0.27384154E+01</totfact>
</mgrwt>
</event>
<event>
 4    2  0.6914693E-007  0.1109349E+04  0.7818608E-02  0.9250718E-01
         -2   -1    0    0    0  501 -0.00000000000E+00  0.00000000000E+00  0.75104562648E+03  0.75104562648E+03  0.25500000000E-02 0.  1.
          2   -1    0    0  501    0  0.00000000000E+00 -0.00000000000E+00 -0.16790595909E+04  0.16790595909E+04  0.25500000000E-02 0. -1.
    8880023    1    1    2    0    0 -0.19428671883E+03 -0.87126195605E+03  0.32658509866E+02  0.11098294958E+04  0.65864270000E+03 0.  1.
    8880022    1    1    2    0    0  0.19428671883E+03  0.87126195605E+03 -0.96067247428E+03  0.13202757216E+04  0.15294330000E+03 0.  0.
<mgrwt>
<rscale>  0 0.10544925E+04</rscale>
<asrwt>0</asrwt>
<pdfrwt beam="1">  1        2 0.25831686E+00 0.11093489E+04</pdfrwt>
<pdfrwt beam="2">  1       -2 0.11554548E+00 0.11093489E+04</pdfrwt>
<totfact> 0.57790984E+00</totfact>
</mgrwt>
</event>
<event>
 4    2  0.6914693E-007  0.8269658E+03  0.7818608E-02  0.9655265E-01
          2   -1    0    0  501    0  0.00000000000E+00  0.00000000000E+00  0.24920572072E+04  0.24920572072E+04  0.25500000000E-02 0. -1.
         -2   -1    0    0    0  501 -0.00000000000E+00 -0.00000000000E+00 -0.26370767601E+03  0.26370767602E+03  0.25500000000E-02 0.  1.
    8880023    1    1    2    0    0 -0.27179935703E+03 -0.41974672150E+03  0.53846735275E+03  0.98682293089E+03  0.65864270000E+03 0.  0.
    8880022    1    1    2    0    0  0.27179935703E+03  0.41974672150E+03  0.16898821784E+04  0.17689419523E+04  0.15294330000E+03 0.  0.
<mgrwt>
<rscale>  0 0.73743910E+03</rscale>
<asrwt>0</asrwt>
<pdfrwt beam="1">  1        2 0.38339342E+00 0.82696578E+03</pdfrwt>
<pdfrwt beam="2">  1       -2 0.40570412E-01 0.82696578E+03</pdfrwt>
<totfact> 0.20920792E+01</totfact>
</mgrwt>
</event>
<event>
 4    2  0.6914693E-007  0.8236111E+03  0.7818608E-02  0.9661893E-01
         -2   -1    0    0    0  501 -0.00000000000E+00  0.00000000000E+00  0.16464639969E+03  0.16464639971E+03  0.25500000000E-02 0.  1.
          2   -1    0    0  501    0  0.00000000000E+00 -0.00000000000E+00 -0.32755340775E+04  0.32755340775E+04  0.25500000000E-02 0. -1.
    8880023    1    1    2    0    0 -0.26808314202E+03  0.41551950218E+03 -0.11656884492E+04  0.14272928202E+04  0.65864270000E+03 0.  1.
    8880022    1    1    2    0    0  0.26808314202E+03 -0.41551950218E+03 -0.19451992286E+04  0.20128876570E+04  0.15294330000E+03 0.  0.
<mgrwt>
<rscale>  0 0.73331676E+03</rscale>
<asrwt>0</asrwt>
<pdfrwt beam="1">  1        2 0.50392827E+00 0.82361109E+03</pdfrwt>
<pdfrwt beam="2">  1       -2 0.25330218E-01 0.82361109E+03</pdfrwt>
<totfact> 0.17092597E+01</totfact>
</mgrwt>
</event>
<event>
 4    2  0.6914693E-007  0.1401148E+04  0.7818608E-02  0.8982792E-01
         -2   -1    0    0    0  501 -0.00000000000E+00  0.00000000000E+00  0.13640914393E+04  0.13640914393E+04  0.25500000000E-02 0.  1.
          2   -1    0    0  501    0  0.00000000000E+00 -0.00000000000E+00 -0.17624501098E+04  0.17624501098E+04  0.25500000000E-02 0. -1.
    8880023    1    1    2    0    0 -0.11262148706E+04  0.51092507181E+03  0.60549371098E+03  0.15263804257E+04  0.65864270000E+03 0.  1.
    8880022    1    1    2    0    0  0.11262148706E+04 -0.51092507181E+03 -0.10038523815E+04  0.16001611233E+04  0.15294330000E+03 0.  0.
<mgrwt>
<rscale>  0 0.13606681E+04</rscale>
<asrwt>0</asrwt>
<pdfrwt beam="1">  1        2 0.27114617E+00 0.14011476E+04</pdfrwt>
<pdfrwt beam="2">  1       -2 0.20986022E+00 0.14011476E+04</pdfrwt>
<totfact> 0.98585144E-01</totfact>
</mgrwt>
</event>
<event>
 4    2  0.6914693E-007  0.7880140E+03  0.7818608E-02  0.9737338E-01
          2   -1    0    0  501    0  0.00000000000E+00  0.00000000000E+00  0.44227885714E+04  0.44227885714E+04  0.25500000000E-02 0. -1.
         -2   -1    0    0    0  501 -0.00000000000E+00 -0.00000000000E+00 -0.61115353726E+03  0.61115353727E+03  0.25500000000E-02 0.  1.
    8880023    1    1    2    0    0 -0.11960912202E+03  0.41575173324E+03 -0.33913116839E+03  0.85789043671E+03  0.65864270000E+03 0.  0.
    8880022    1    1    2    0    0  0.11960912202E+03 -0.41575173324E+03  0.41507662025E+04  0.41760516719E+04  0.15294330000E+03 0.  0.
<mgrwt>
<rscale>  0 0.68836568E+03</rscale>
<asrwt>0</asrwt>
<pdfrwt beam="1">  1        2 0.68042898E+00 0.78801399E+03</pdfrwt>
<pdfrwt beam="2">  1       -2 0.94023626E-01 0.78801399E+03</pdfrwt>
<totfact> 0.15722508E-01</totfact>
</mgrwt>
</event>
<event>
 4    2  0.6914693E-007  0.1151141E+04  0.7818608E-02  0.9206145E-01
          2   -1    0    0  501    0  0.00000000000E+00  0.00000000000E+00  0.25000162191E+04  0.25000162191E+04  0.25500000000E-02 0. -1.
         -2   -1    0    0    0  501 -0.00000000000E+00 -0.00000000000E+00 -0.78630699145E+03  0.78630699145E+03  0.25500000000E-02 0.  1.
    8880023    1    1    2    0    0  0.75417157426E+03  0.56792715905E+03 -0.17968964169E+03  0.11650813684E+04  0.65864270000E+03 0.  0.
    8880022    1    1    2    0    0 -0.75417157426E+03 -0.56792715905E+03  0.18933988693E+04  0.21212418421E+04  0.15294330000E+03 0.  0.
<mgrwt>
<rscale>  0 0.10990229E+04</rscale>
<asrwt>0</asrwt>
<pdfrwt beam="1">  1        2 0.38461788E+00 0.11511413E+04</pdfrwt>
<pdfrwt beam="2">  1       -2 0.12097031E+00 0.11511413E+04</pdfrwt>
<totfact> 0.17874487E+00</totfact>
</mgrwt>
</event>
<event>
 4    2  0.6914693E-007  0.8236220E+03  0.7818608E-02  0.9661872E-01
          2   -1    0    0  501    0  0.00000000000E+00  0.00000000000E+00  0.12790727486E+04  0.12790727486E+04  0.25500000000E-02 0. -1.
         -2   -1    0    0    0  501 -0.00000000000E+00 -0.00000000000E+00 -0.11707851690E+04  0.11707851690E+04  0.25500000000E-02 0.  1.
    8880023    1    1    2    0    0 -0.29154173873E+03 -0.39943257893E+03 -0.95872145178E+03  0.12639224655E+04  0.65864270000E+03 0.  1.
    8880022    1    1    2    0    0  0.29154173873E+03  0.39943257893E+03  0.10670090313E+04  0.11859354521E+04  0.15294330000E+03 0.  0.
<mgrwt>
<rscale>  0 0.73333017E+03</rscale>
<asrwt>0</asrwt>
<pdfrwt beam="1">  1        2 0.19678042E+00 0.82362199E+03</pdfrwt>
<pdfrwt beam="2">  1       -2 0.18012080E+00 0.82362199E+03</pdfrwt>
<totfact> 0.31215583E+00</totfact>
</mgrwt>
</event>
<event>
 4    2  0.6914693E-007  0.7702110E+03  0.7818608E-02  0.9779355E-01
          2   -1    0    0  501    0  0.00000000000E+00  0.00000000000E+00  0.25924090241E+04  0.25924090241E+04  0.25500000000E-02 0. -1.
         -2   -1    0    0    0  501 -0.00000000000E+00 -0.00000000000E+00 -0.36438272208E+03  0.36438272209E+03  0.25500000000E-02 0.  1.
    8880023    1    1    2    0    0  0.20663593742E+03 -0.34163768981E+03  0.88865201469E+02  0.77532054792E+03  0.65864270000E+03 0.  1.
    8880022    1    1    2    0    0 -0.20663593742E+03  0.34163768981E+03  0.21391611006E+04  0.21814711983E+04  0.15294330000E+03 0.  0.
<mgrwt>
<rscale>  0 0.66482323E+03</rscale>
<asrwt>0</asrwt>
<pdfrwt beam="1">  1        2 0.39883215E+00 0.77021096E+03</pdfrwt>
<pdfrwt beam="2">  1       -2 0.56058881E-01 0.77021096E+03</pdfrwt>
<totfact> 0.96248421E+00</totfact>
</mgrwt>
</event>
<event>
 4    2  0.6914693E-007  0.7377308E+03  0.7818608E-02  0.9866607E-01
         -2   -1    0    0    0  501 -0.00000000000E+00  0.00000000000E+00  0.45189561806E+03  0.45189561807E+03  0.25500000000E-02 0.  1.
          2   -1    0    0  501    0  0.00000000000E+00 -0.00000000000E+00 -0.13335044949E+04  0.13335044950E+04  0.25500000000E-02 0. -1.
    8880023    1    1    2    0    0  0.23150909146E+03  0.23841144878E+03  0.93777837410E+02  0.74366724238E+03  0.65864270000E+03 0.  1.
    8880022    1    1    2    0    0 -0.23150909146E+03 -0.23841144878E+03 -0.97538671429E+03  0.10417328706E+04  0.15294330000E+03 0.  0.
<mgrwt>
<rscale>  0 0.61907298E+03</rscale>
<asrwt>0</asrwt>
<pdfrwt beam="1">  1        2 0.20515454E+00 0.73773077E+03</pdfrwt>
<pdfrwt beam="2">  1       -2 0.69522403E-01 0.73773077E+03</pdfrwt>
<totfact> 0.30479068E+01</totfact>
</mgrwt>
</event>
<event>
 4    2  0.6914693E-007  0.6685465E+03  0.7818608E-02  0.1016727E+00
          2   -1    0    0  501    0  0.00000000000E+00  0.00000000000E+00  0.19990664666E+04  0.19990664666E+04  0.25500000000E-02 0. -1.
         -2   -1    0    0    0  501 -0.00000000000E+00 -0.00000000000E+00 -0.17427617450E+03  0.17427617452E+03  0.25500000000E-02 0.  1.
    8880023    1    1    2    0    0  0.90688052605E+02  0.70141693954E+02  0.50000986067E+03  0.83484384596E+03  0.65864270000E+03 0.  0.
    8880022    1    1    2    0    0 -0.90688052605E+02 -0.70141693954E+02  0.13247804314E+04  0.13384987952E+04  0.15294330000E+03 0. -1.
<mgrwt>
<rscale>  0 0.48886459E+03</rscale>
<asrwt>0</asrwt>
<pdfrwt beam="1">  1        2 0.30754869E+00 0.66854647E+03</pdfrwt>
<pdfrwt beam="2">  1       -2 0.26811719E-01 0.66854647E+03</pdfrwt>
<totfact> 0.87492495E+01</totfact>
</mgrwt>
</event>
<event>
 4    2  0.6914693E-007  0.9310416E+03  0.7818608E-02  0.9477932E-01
         -2   -1    0    0    0  501 -0.00000000000E+00  0.00000000000E+00  0.51761534304E+03  0.51761534305E+03  0.25500000000E-02 0.  1.
          2   -1    0    0  501    0  0.00000000000E+00 -0.00000000000E+00 -0.22436419842E+04  0.22436419842E+04  0.25500000000E-02 0. -1.
    8880023    1    1    2    0    0  0.63372265046E+03 -0.17726782013E+03 -0.18530818614E+04  0.20738251780E+04  0.65864270000E+03 0.  0.
    8880022    1    1    2    0    0 -0.63372265046E+03  0.17726782013E+03  0.12705522024E+03  0.68743214921E+03  0.15294330000E+03 0.  0.
<mgrwt>
<rscale>  0 0.85930511E+03</rscale>
<asrwt>0</asrwt>
<pdfrwt beam="1">  1        2 0.34517568E+00 0.93104161E+03</pdfrwt>
<pdfrwt beam="2">  1       -2 0.79633131E-01 0.93104161E+03</pdfrwt>
<totfact> 0.69144781E+00</totfact>
</mgrwt>
</event>
<event>
 4    2  0.6914693E-007  0.8812810E+03  0.7818608E-02  0.9556776E-01
          2   -1    0    0  501    0  0.00000000000E+00  0.00000000000E+00  0.22592064066E+04  0.22592064066E+04  0.25500000000E-02 0. -1.
         -2   -1    0    0    0  501 -0.00000000000E+00 -0.00000000000E+00 -0.43812239461E+03  0.43812239462E+03  0.25500000000E-02 0.  1.
    8880023    1    1    2    0    0 -0.58284345525E+03  0.56030866177E+02  0.11704638708E+03  0.88901969285E+03  0.65864270000E+03 0.  0.
    8880022    1    1    2    0    0  0.58284345525E+03 -0.56030866177E+02  0.17040376249E+04  0.18083091084E+04  0.15294330000E+03 0.  0.
<mgrwt>
<rscale>  0 0.80224342E+03</rscale>
<asrwt>0</asrwt>
<pdfrwt beam="1">  1        2 0.34757021E+00 0.88128098E+03</pdfrwt>
<pdfrwt beam="2">  1       -2 0.67403446E-01 0.88128098E+03</pdfrwt>
<totfact> 0.98644075E+00</totfact>
</mgrwt>
</event>
<event>
 4    2  0.6914693E-007  0.6851782E+03  0.7818608E-02  0.1006534E+00
         -2   -1    0    0    0  501 -0.00000000000E+00  0.00000000000E+00  0.24627494161E+03  0.24627494162E+03  0.25500000000E-02 0.  1.
          2   -1    0    0  501    0  0.00000000000E+00 -0.00000000000E+00 -0.12072030307E+04  0.12072030307E+04  0.25500000000E-02 0. -1.
    8880023    1    1    2    0    0 -0.18189771814E+03  0.50716264906E+02 -0.29755821328E+03  0.74700068002E+03  0.65864270000E+03 0.  1.
    8880022    1    1    2    0    0  0.18189771814E+03 -0.50716264906E+02 -0.66336987578E+03  0.70647729227E+03  0.15294330000E+03 0. -1.
<mgrwt>
<rscale>  0 0.52875642E+03</rscale>
<asrwt>0</asrwt>
<pdfrwt beam="1">  1        2 0.18572354E+00 0.68517817E+03</pdfrwt>
<pdfrwt beam="2">  1       -2 0.37888453E-01 0.68517817E+03</pdfrwt>
<totfact> 0.12566865E+02</totfact>
</mgrwt>
</event>
<event>
 4    2  0.6914693E-007  0.8427936E+03  0.7818608E-02  0.9624935E-01
         -2   -1    0    0    0  501 -0.00000000000E+00  0.00000000000E+00  0.13575428885E+04  0.13575428885E+04  0.25500000000E-02 0.  1.
          2   -1    0    0  501    0  0.00000000000E+00 -0.00000000000E+00 -0.73904969990E+03  0.73904969990E+03  0.25500000000E-02 0. -1.
    8880023    1    1    2    0    0  0.33015269095E+03  0.40925537596E+03  0.10873186197E+04  0.13757044556E+04  0.65864270000E+03 0.  0.
    8880022    1    1    2    0    0 -0.33015269095E+03 -0.40925537596E+03 -0.46882543115E+03  0.72088813279E+03  0.15294330000E+03 0.  0.
<mgrwt>
<rscale>  0 0.75667568E+03</rscale>
<asrwt>0</asrwt>
<pdfrwt beam="1">  1        2 0.11369995E+00 0.84279355E+03</pdfrwt>
<pdfrwt beam="2">  1       -2 0.20885275E+00 0.84279355E+03</pdfrwt>
<totfact> 0.45003442E+00</totfact>
</mgrwt>
</event>
<event>
 4    2  0.6914693E-007  0.6865259E+03  0.7818608E-02  0.1005850E+00
          2   -1    0    0  501    0  0.00000000000E+00  0.00000000000E+00  0.15919126681E+04  0.15919126681E+04  0.25500000000E-02 0. -1.
         -2   -1    0    0    0  501 -0.00000000000E+00 -0.00000000000E+00 -0.14160603405E+03  0.14160603408E+03  0.25500000000E-02 0.  1.
    8880023    1    1    2    0    0  0.18932570540E+03 -0.40783907027E+02  0.11968317782E+04  0.13797550730E+04  0.65864270000E+03 0.  0.
    8880022    1    1    2    0    0 -0.18932570540E+03  0.40783907027E+02  0.25347485586E+03  0.35376362923E+03  0.15294330000E+03 0.  0.
<mgrwt>
<rscale>  0 0.53158060E+03</rscale>
<asrwt>0</asrwt>
<pdfrwt beam="1">  1        2 0.24490966E+00 0.68652586E+03</pdfrwt>
<pdfrwt beam="2">  1       -2 0.21785542E-01 0.68652586E+03</pdfrwt>
<totfact> 0.21113090E+02</totfact>
</mgrwt>
</event>
<event>
 4    2  0.6914693E-007  0.7512652E+03  0.7818608E-02  0.9828270E-01
         -2   -1    0    0    0  501 -0.00000000000E+00  0.00000000000E+00  0.62058243291E+03  0.62058243291E+03  0.25500000000E-02 0.  1.
          2   -1    0    0  501    0  0.00000000000E+00 -0.00000000000E+00 -0.23467195423E+04  0.23467195423E+04  0.25500000000E-02 0. -1.
    8880023    1    1    2    0    0 -0.28738460695E+03  0.21908728413E+03  0.36811445339E+03  0.83660480959E+03  0.65864270000E+03 0.  1.
    8880022    1    1    2    0    0  0.28738460695E+03 -0.21908728413E+03 -0.20942515628E+04  0.21306971656E+04  0.15294330000E+03 0.  0.
<mgrwt>
<rscale>  0 0.63867257E+03</rscale>
<asrwt>0</asrwt>
<pdfrwt beam="1">  1        2 0.36103377E+00 0.75126517E+03</pdfrwt>
<pdfrwt beam="2">  1       -2 0.95474222E-01 0.75126517E+03</pdfrwt>
<totfact> 0.41062833E+00</totfact>
</mgrwt>
</event>
<event>
 4    2  0.6914693E-007  0.7563436E+03  0.7818608E-02  0.9814667E-01
         -2   -1    0    0    0  501 -0.00000000000E+00  0.00000000000E+00  0.41149336493E+03  0.41149336494E+03  0.25500000000E-02 0.  1.
          2   -1    0    0  501    0  0.00000000000E+00 -0.00000000000E+00 -0.11077492514E+04  0.11077492514E+04  0.25500000000E-02 0. -1.
    8880023    1    1    2    0    0  0.43902145519E+02 -0.36921275237E+03 -0.49819767526E+02  0.75798263198E+03  0.65864270000E+03 0.  1.
    8880022    1    1    2    0    0 -0.43902145519E+02  0.36921275237E+03 -0.64643611896E+03  0.76125998437E+03  0.15294330000E+03 0.  0.
<mgrwt>
<rscale>  0 0.64581331E+03</rscale>
<asrwt>0</asrwt>
<pdfrwt beam="1">  1        2 0.17042296E+00 0.75634361E+03</pdfrwt>
<pdfrwt beam="2">  1       -2 0.63306672E-01 0.75634361E+03</pdfrwt>
<totfact> 0.50581670E+01</totfact>
</mgrwt>
</event>
<event>
 4    2  0.1031252E-006  0.8720298E+03  0.7818608E-02  0.9572513E-01
         -2   -1    0    0    0  501 -0.00000000000E+00  0.00000000000E+00  0.14791169109E+04  0.14791169109E+04  0.25500000000E-02 0.  1.
          2   -1    0    0  501    0  0.00000000000E+00 -0.00000000000E+00 -0.16273800022E+04  0.16273800022E+04  0.25500000000E-02 0. -1.
    8880023    1    1    2    0    0  0.52588093323E+03 -0.22377454052E+03  0.12866990035E+04  0.15543584956E+04  0.65864270000E+03 0.  1.
    8880022    1    1    2    0    0 -0.52588093323E+03  0.22377454052E+03 -0.14349620948E+04  0.15521384176E+04  0.15294330000E+03 0.  0.
<mgrwt>
<rscale>  0 0.79142491E+03</rscale>
<asrwt>0</asrwt>
<pdfrwt beam="1">  1        2 0.25036615E+00 0.87202982E+03</pdfrwt>
<pdfrwt beam="2">  1       -2 0.22755645E+00 0.87202982E+03</pdfrwt>
<totfact> 0.96965718E-01</totfact>
</mgrwt>
</event>
<event>
 4    2  0.6914693E-007  0.9758589E+03  0.7818608E-02  0.9413846E-01
          2   -1    0    0  501    0  0.00000000000E+00  0.00000000000E+00  0.11107988976E+04  0.11107988976E+04  0.25500000000E-02 0. -1.
         -2   -1    0    0    0  501 -0.00000000000E+00 -0.00000000000E+00 -0.99144136223E+03  0.99144136223E+03  0.25500000000E-02 0.  1.
    8880023    1    1    2    0    0  0.22324817318E+03 -0.68458067953E+03 -0.53886077089E+03  0.11147518066E+04  0.65864270000E+03 0.  1.
    8880022    1    1    2    0    0 -0.22324817318E+03  0.68458067953E+03  0.65821830628E+03  0.98748845327E+03  0.15294330000E+03 0. -1.
<mgrwt>
<rscale>  0 0.90944907E+03</rscale>
<asrwt>0</asrwt>
<pdfrwt beam="1">  1        2 0.17089214E+00 0.97585893E+03</pdfrwt>
<pdfrwt beam="2">  1       -2 0.15252944E+00 0.97585893E+03</pdfrwt>
<totfact> 0.61092608E+00</totfact>
</mgrwt>
</event>
<event>
 4    2  0.6914693E-007  0.7395627E+03  0.7818608E-02  0.9861223E-01
          2   -1    0    0  501    0  0.00000000000E+00  0.00000000000E+00  0.29105447351E+04  0.29105447351E+04  0.25500000000E-02 0. -1.
         -2   -1    0    0    0  501 -0.00000000000E+00 -0.00000000000E+00 -0.46871218113E+03  0.46871218114E+03  0.25500000000E-02 0.  1.
    8880023    1    1    2    0    0 -0.24629091789E+02  0.33546413280E+03 -0.15553249835E+03  0.75574026018E+03  0.65864270000E+03 0.  1.
    8880022    1    1    2    0    0  0.24629091789E+02 -0.33546413280E+03  0.25973650523E+04  0.26235166561E+04  0.15294330000E+03 0.  0.
<mgrwt>
<rscale>  0 0.62177967E+03</rscale>
<asrwt>0</asrwt>
<pdfrwt beam="1">  1        2 0.44777611E+00 0.73956270E+03</pdfrwt>
<pdfrwt beam="2">  1       -2 0.72109567E-01 0.73956270E+03</pdfrwt>
<totfact> 0.36739553E+00</totfact>
</mgrwt>
</event>
<event>
 4    2  0.6914693E-007  0.8037001E+03  0.7818608E-02  0.9702852E-01
          2   -1    0    0  501    0  0.00000000000E+00  0.00000000000E+00  0.29750007704E+04  0.29750007704E+04  0.25500000000E-02 0. -1.
         -2   -1    0    0    0  501 -0.00000000000E+00 -0.00000000000E+00 -0.41609038212E+03  0.41609038213E+03  0.25500000000E-02 0.  1.
    8880023    1    1    2    0    0 -0.67414759356E+02  0.45560825331E+03  0.17635888647E+02  0.80389356329E+03  0.65864270000E+03 0.  1.
    8880022    1    1    2    0    0  0.67414759356E+02 -0.45560825331E+03  0.25412744997E+04  0.25871975893E+04  0.15294330000E+03 0.  0.
<mgrwt>
<rscale>  0 0.70847234E+03</rscale>
<asrwt>0</asrwt>
<pdfrwt beam="1">  1        2 0.45769243E+00 0.80370009E+03</pdfrwt>
<pdfrwt beam="2">  1       -2 0.64013905E-01 0.80370009E+03</pdfrwt>
<totfact> 0.42954594E+00</totfact>
</mgrwt>
</event>
<event>
 4    2  0.6914693E-007  0.6918988E+03  0.7818608E-02  0.1003263E+00
         -2   -1    0    0    0  501 -0.00000000000E+00  0.00000000000E+00  0.27968262498E+03  0.27968262499E+03  0.25500000000E-02 0.  1.
          2   -1    0    0  501    0  0.00000000000E+00 -0.00000000000E+00 -0.13189127573E+04  0.13189127573E+04  0.25500000000E-02 0. -1.
    8880023    1    1    2    0    0 -0.15492890505E+03 -0.14460550388E+03 -0.20090673544E+03  0.72047723072E+03  0.65864270000E+03 0.  0.
    8880022    1    1    2    0    0  0.15492890505E+03  0.14460550388E+03 -0.83832339692E+03  0.87811815162E+03  0.15294330000E+03 0.  1.
<mgrwt>
<rscale>  0 0.54242385E+03</rscale>
<asrwt>0</asrwt>
<pdfrwt beam="1">  1        2 0.20290965E+00 0.69189878E+03</pdfrwt>
<pdfrwt beam="2">  1       -2 0.43028097E-01 0.69189878E+03</pdfrwt>
<totfact> 0.84400043E+01</totfact>
</mgrwt>
</event>
<event>
 4    2  0.6914693E-007  0.7054478E+03  0.7818608E-02  0.9975310E-01
         -2   -1    0    0    0  501 -0.00000000000E+00  0.00000000000E+00  0.22767602215E+03  0.22767602216E+03  0.25500000000E-02 0.  1.
          2   -1    0    0  501    0  0.00000000000E+00 -0.00000000000E+00 -0.15879801821E+04  0.15879801821E+04  0.25500000000E-02 0. -1.
    8880023    1    1    2    0    0  0.24610856091E+03 -0.57244858371E+02 -0.40000889185E+03  0.81096468320E+03  0.65864270000E+03 0.  1.
    8880022    1    1    2    0    0 -0.24610856091E+03  0.57244858371E+02 -0.96029526811E+03  0.10046915211E+04  0.15294330000E+03 0.  0.
<mgrwt>
<rscale>  0 0.56746216E+03</rscale>
<asrwt>0</asrwt>
<pdfrwt beam="1">  1        2 0.24430464E+00 0.70544780E+03</pdfrwt>
<pdfrwt beam="2">  1       -2 0.35027081E-01 0.70544780E+03</pdfrwt>
<totfact> 0.88763592E+01</totfact>
</mgrwt>
</event>
<event>
 4    2  0.6914693E-007  0.6666235E+03  0.7818608E-02  0.1018209E+00
          2   -1    0    0  501    0  0.00000000000E+00  0.00000000000E+00  0.96549695071E+02  0.96549695104E+02  0.25500000000E-02 0. -1.
         -2   -1    0    0    0  501 -0.00000000000E+00 -0.00000000000E+00 -0.18806562946E+04  0.18806562946E+04  0.25500000000E-02 0.  1.
    8880023    1    1    2    0    0 -0.58409077772E+02 -0.84646358887E+02 -0.14412746929E+04  0.15879734170E+04  0.65864270000E+03 0.  1.
    8880022    1    1    2    0    0  0.58409077772E+02  0.84646358887E+02 -0.34283190662E+03  0.38923257270E+03  0.15294330000E+03 0. -1.
<mgrwt>
<rscale>  0 0.48338663E+03</rscale>
<asrwt>0</asrwt>
<pdfrwt beam="1">  1        2 0.14853801E-01 0.66662346E+03</pdfrwt>
<pdfrwt beam="2">  1       -2 0.28933171E+00 0.66662346E+03</pdfrwt>
<totfact> 0.15671349E+01</totfact>
</mgrwt>
</event>
<event>
 4    2  0.6914693E-007  0.6909000E+03  0.7818608E-02  0.1003728E+00
         -2   -1    0    0    0  501 -0.00000000000E+00  0.00000000000E+00  0.22755411746E+03  0.22755411747E+03  0.25500000000E-02 0.  1.
          2   -1    0    0  501    0  0.00000000000E+00 -0.00000000000E+00 -0.15621479064E+04  0.15621479064E+04  0.25500000000E-02 0. -1.
    8880023    1    1    2    0    0  0.16761200640E+03  0.12425309619E+03 -0.35547654271E+03  0.77698545371E+03  0.65864270000E+03 0.  0.
    8880022    1    1    2    0    0 -0.16761200640E+03 -0.12425309619E+03 -0.97911724622E+03  0.10127165701E+04  0.15294330000E+03 0.  0.
<mgrwt>
<rscale>  0 0.54045477E+03</rscale>
<asrwt>0</asrwt>
<pdfrwt beam="1">  1        2 0.24033044E+00 0.69090001E+03</pdfrwt>
<pdfrwt beam="2">  1       -2 0.35008327E-01 0.69090001E+03</pdfrwt>
<totfact> 0.91951707E+01</totfact>
</mgrwt>
</event>
<event>
 4    2  0.6914693E-007  0.7107152E+03  0.7818608E-02  0.9955355E-01
         -2   -1    0    0    0  501 -0.00000000000E+00  0.00000000000E+00  0.43216705558E+03  0.43216705559E+03  0.25500000000E-02 0.  1.
          2   -1    0    0  501    0  0.00000000000E+00 -0.00000000000E+00 -0.18158053530E+04  0.18158053530E+04  0.25500000000E-02 0. -1.
    8880023    1    1    2    0    0  0.55585925719E+02 -0.26118207056E+03  0.11333651140E+03  0.71969524120E+03  0.65864270000E+03 0.  1.
    8880022    1    1    2    0    0 -0.55585925719E+02  0.26118207056E+03 -0.14969748088E+04  0.15282771674E+04  0.15294330000E+03 0.  0.
<mgrwt>
<rscale>  0 0.57651953E+03</rscale>
<asrwt>0</asrwt>
<pdfrwt beam="1">  1        2 0.27935467E+00 0.71071519E+03</pdfrwt>
<pdfrwt beam="2">  1       -2 0.66487240E-01 0.71071519E+03</pdfrwt>
<totfact> 0.18212699E+01</totfact>
</mgrwt>
</event>
<event>
 4    2  0.6914693E-007  0.8553189E+03  0.7818608E-02  0.9601945E-01
          2   -1    0    0  501    0  0.00000000000E+00  0.00000000000E+00  0.27235512781E+04  0.27235512781E+04  0.25500000000E-02 0. -1.
         -2   -1    0    0    0  501 -0.00000000000E+00 -0.00000000000E+00 -0.28050883960E+03  0.28050883961E+03  0.25500000000E-02 0.  1.
    8880023    1    1    2    0    0  0.48589355807E+03  0.24832980260E+03  0.52394757448E+03  0.10030411296E+04  0.65864270000E+03 0.  0.
    8880022    1    1    2    0    0 -0.48589355807E+03 -0.24832980260E+03  0.19190948640E+04  0.20010189881E+04  0.15294330000E+03 0.  0.
<mgrwt>
<rscale>  0 0.77167578E+03</rscale>
<asrwt>0</asrwt>
<pdfrwt beam="1">  1        2 0.41900786E+00 0.85531892E+03</pdfrwt>
<pdfrwt beam="2">  1       -2 0.43155209E-01 0.85531892E+03</pdfrwt>
<totfact> 0.13565575E+01</totfact>
</mgrwt>
</event>
<event>
 4    2  0.6914693E-007  0.8055590E+03  0.7818608E-02  0.9698903E-01
          2   -1    0    0  501    0  0.00000000000E+00  0.00000000000E+00  0.42921759774E+04  0.42921759774E+04  0.25500000000E-02 0. -1.
         -2   -1    0    0    0  501 -0.00000000000E+00 -0.00000000000E+00 -0.10303409369E+03  0.10303409372E+03  0.25500000000E-02 0.  1.
    8880023    1    1    2    0    0 -0.34337213205E+03 -0.31178631094E+03  0.20867209334E+04  0.22368123715E+04  0.65864270000E+03 0.  0.
    8880022    1    1    2    0    0  0.34337213205E+03  0.31178631094E+03  0.21024209502E+04  0.21583976996E+04  0.15294330000E+03 0.  0.
<mgrwt>
<rscale>  0 0.71082160E+03</rscale>
<asrwt>0</asrwt>
<pdfrwt beam="1">  1        2 0.66033459E+00 0.80555902E+03</pdfrwt>
<pdfrwt beam="2">  1       -2 0.15851403E-01 0.80555902E+03</pdfrwt>
<totfact> 0.67979718E+00</totfact>
</mgrwt>
</event>
<event>
 4    2  0.7614703E-007  0.6608927E+03  0.7818608E-02  0.1023260E+00
          2   -1    0    0  501    0  0.00000000000E+00  0.00000000000E+00  0.13416653126E+04  0.13416653126E+04  0.25500000000E-02 0. -1.
         -2   -1    0    0    0  501 -0.00000000000E+00 -0.00000000000E+00 -0.83998797855E+03  0.83998797855E+03  0.25500000000E-02 0.  1.
    8880023    1    1    2    0    0 -0.20504101731E+02 -0.50483248784E+02 -0.70370179725E+03  0.96538873120E+03  0.65864270000E+03 0.  1.
    8880022    1    1    2    0    0  0.20504101731E+02  0.50483248784E+02  0.12053791313E+04  0.12162645599E+04  0.15294330000E+03 0.  0.
<mgrwt>
<rscale>  0 0.46528355E+03</rscale>
<asrwt>0</asrwt>
<pdfrwt beam="1">  1        2 0.20641005E+00 0.66089272E+03</pdfrwt>
<pdfrwt beam="2">  1       -2 0.12922892E+00 0.66089272E+03</pdfrwt>
<totfact> 0.71415578E+00</totfact>
</mgrwt>
</event>
<event>
 4    2  0.6914693E-007  0.7100403E+03  0.7818608E-02  0.9957851E-01
         -2   -1    0    0    0  501 -0.00000000000E+00  0.00000000000E+00  0.18724113061E+03  0.18724113063E+03  0.25500000000E-02 0.  1.
          2   -1    0    0  501    0  0.00000000000E+00 -0.00000000000E+00 -0.16564762895E+04  0.16564762895E+04  0.25500000000E-02 0. -1.
    8880023    1    1    2    0    0 -0.10722741549E+03 -0.24258866566E+03 -0.62589417366E+03  0.94652031263E+03  0.65864270000E+03 0.  0.
    8880022    1    1    2    0    0  0.10722741549E+03  0.24258866566E+03 -0.84334098522E+03  0.89719710750E+03  0.15294330000E+03 0.  0.
<mgrwt>
<rscale>  0 0.57537642E+03</rscale>
<asrwt>0</asrwt>
<pdfrwt beam="1">  1        2 0.25484250E+00 0.71004027E+03</pdfrwt>
<pdfrwt beam="2">  1       -2 0.28806329E-01 0.71004027E+03</pdfrwt>
<totfact> 0.11732703E+02</totfact>
</mgrwt>
</event>
<event>
 4    2  0.6914693E-007  0.2238798E+04  0.7818608E-02  0.8512204E-01
         -2   -1    0    0    0  501 -0.00000000000E+00  0.00000000000E+00  0.25861297515E+04  0.25861297515E+04  0.25500000000E-02 0.  1.
          2   -1    0    0  501    0  0.00000000000E+00 -0.00000000000E+00 -0.38506970887E+04  0.38506970887E+04  0.25500000000E-02 0. -1.
    8880023    1    1    2    0    0 -0.17610591051E+04 -0.12153504334E+04 -0.29538143268E+04  0.37063776293E+04  0.65864270000E+03 0.  0.
    8880022    1    1    2    0    0  0.17610591051E+04  0.12153504334E+04  0.16892469897E+04  0.27304492108E+04  0.15294330000E+03 0.  0.
<mgrwt>
<rscale>  0 0.22150172E+04</rscale>
<asrwt>0</asrwt>
<pdfrwt beam="1">  1        2 0.59241494E+00 0.22387979E+04</pdfrwt>
<pdfrwt beam="2">  1       -2 0.39786611E+00 0.22387979E+04</pdfrwt>
<totfact> 0.29425507E-03</totfact>
</mgrwt>
</event>
<event>
 4    2  0.6914693E-007  0.9201217E+03  0.7818608E-02  0.9494472E-01
         -2   -1    0    0    0  501 -0.00000000000E+00  0.00000000000E+00  0.30371237781E+03  0.30371237782E+03  0.25500000000E-02 0.  1.
          2   -1    0    0  501    0  0.00000000000E+00 -0.00000000000E+00 -0.27340794731E+04  0.27340794731E+04  0.25500000000E-02 0. -1.
    8880023    1    1    2    0    0 -0.14372288606E+03 -0.62622471054E+03 -0.61686278824E+03  0.11077651203E+04  0.65864270000E+03 0.  1.
    8880022    1    1    2    0    0  0.14372288606E+03  0.62622471054E+03 -0.18135043071E+04  0.19300267306E+04  0.15294330000E+03 0.  0.
<mgrwt>
<rscale>  0 0.84692569E+03</rscale>
<asrwt>0</asrwt>
<pdfrwt beam="1">  1        2 0.42062759E+00 0.92012166E+03</pdfrwt>
<pdfrwt beam="2">  1       -2 0.46724983E-01 0.92012166E+03</pdfrwt>
<totfact> 0.11306916E+01</totfact>
</mgrwt>
</event>
<event>
 4    2  0.6914693E-007  0.6920321E+03  0.7818608E-02  0.1003201E+00
          2   -1    0    0  501    0  0.00000000000E+00  0.00000000000E+00  0.62310767012E+03  0.62310767013E+03  0.25500000000E-02 0. -1.
         -2   -1    0    0    0  501 -0.00000000000E+00 -0.00000000000E+00 -0.67569752918E+03  0.67569752918E+03  0.25500000000E-02 0.  1.
    8880023    1    1    2    0    0  0.25316295056E+02 -0.21084910779E+03 -0.44817936965E+03  0.82448360487E+03  0.65864270000E+03 0.  1.
    8880022    1    1    2    0    0 -0.25316295056E+02  0.21084910779E+03  0.39558951059E+03  0.47432159444E+03  0.15294330000E+03 0.  0.
<mgrwt>
<rscale>  0 0.54268525E+03</rscale>
<asrwt>0</asrwt>
<pdfrwt beam="1">  1        2 0.95862718E-01 0.69203213E+03</pdfrwt>
<pdfrwt beam="2">  1       -2 0.10395347E+00 0.69203213E+03</pdfrwt>
<totfact> 0.36289597E+01</totfact>
</mgrwt>
</event>
<event>
 4    2  0.6914693E-007  0.7446961E+03  0.7818608E-02  0.9846473E-01
          2   -1    0    0  501    0  0.00000000000E+00  0.00000000000E+00  0.29037015239E+04  0.29037015239E+04  0.25500000000E-02 0. -1.
         -2   -1    0    0    0  501 -0.00000000000E+00 -0.00000000000E+00 -0.12684312567E+03  0.12684312570E+03  0.25500000000E-02 0.  1.
    8880023    1    1    2    0    0  0.34680617230E+03 -0.22081329492E+02  0.12308538128E+04  0.14386012029E+04  0.65864270000E+03 0.  0.
    8880022    1    1    2    0    0 -0.34680617230E+03  0.22081329492E+02  0.15460045854E+04  0.15919434467E+04  0.15294330000E+03 0.  0.
<mgrwt>
<rscale>  0 0.62927078E+03</rscale>
<asrwt>0</asrwt>
<pdfrwt beam="1">  1        2 0.44672329E+00 0.74469612E+03</pdfrwt>
<pdfrwt beam="2">  1       -2 0.19514328E-01 0.74469612E+03</pdfrwt>
<totfact> 0.46903200E+01</totfact>
</mgrwt>
</event>
<event>
 4    2  0.6914693E-007  0.8201260E+03  0.7818608E-02  0.9668858E-01
         -2   -1    0    0    0  501 -0.00000000000E+00  0.00000000000E+00  0.43806140795E+03  0.43806140796E+03  0.25500000000E-02 0.  1.
          2   -1    0    0  501    0  0.00000000000E+00 -0.00000000000E+00 -0.17107266489E+04  0.17107266489E+04  0.25500000000E-02 0. -1.
    8880023    1    1    2    0    0 -0.48387812931E+03  0.68252905756E+02 -0.48164711426E+02  0.82153913410E+03  0.65864270000E+03 0.  1.
    8880022    1    1    2    0    0  0.48387812931E+03 -0.68252905756E+02 -0.12245005295E+04  0.13272489228E+04  0.15294330000E+03 0.  0.
<mgrwt>
<rscale>  0 0.72901604E+03</rscale>
<asrwt>0</asrwt>
<pdfrwt beam="1">  1        2 0.26318871E+00 0.82012603E+03</pdfrwt>
<pdfrwt beam="2">  1       -2 0.67394064E-01 0.82012603E+03</pdfrwt>
<totfact> 0.19903227E+01</totfact>
</mgrwt>
</event>
<event>
 4    2  0.6914693E-007  0.7436592E+03  0.7818608E-02  0.9849414E-01
         -2   -1    0    0    0  501 -0.00000000000E+00  0.00000000000E+00  0.17195923195E+03  0.17195923197E+03  0.25500000000E-02 0.  1.
          2   -1    0    0  501    0  0.00000000000E+00 -0.00000000000E+00 -0.38021080013E+04  0.38021080013E+04  0.25500000000E-02 0. -1.
    8880023    1    1    2    0    0 -0.31028603749E+03  0.15146405302E+03 -0.70525957910E+03  0.10249000266E+04  0.65864270000E+03 0.  1.
    8880022    1    1    2    0    0  0.31028603749E+03 -0.15146405302E+03 -0.29248891903E+04  0.29491672066E+04  0.15294330000E+03 0.  0.
<mgrwt>
<rscale>  0 0.62776829E+03</rscale>
<asrwt>0</asrwt>
<pdfrwt beam="1">  1        2 0.58493963E+00 0.74365919E+03</pdfrwt>
<pdfrwt beam="2">  1       -2 0.26455269E-01 0.74365919E+03</pdfrwt>
<totfact> 0.69302183E+00</totfact>
</mgrwt>
</event>
<event>
 4    2  0.6914693E-007  0.1352409E+04  0.7818608E-02  0.9021573E-01
         -2   -1    0    0    0  501 -0.00000000000E+00  0.00000000000E+00  0.19068331572E+04  0.19068331572E+04  0.25500000000E-02 0.  1.
          2   -1    0    0  501    0  0.00000000000E+00 -0.00000000000E+00 -0.12240543787E+04  0.12240543787E+04  0.25500000000E-02 0. -1.
    8880023    1    1    2    0    0  0.11318496767E+04 -0.33780937636E+03  0.12226929044E+04  0.18231804656E+04  0.65864270000E+03 0.  0.
    8880022    1    1    2    0    0 -0.11318496767E+04  0.33780937636E+03 -0.53991412589E+03  0.13077070703E+04  0.15294330000E+03 0.  0.
<mgrwt>
<rscale>  0 0.13101260E+04</rscale>
<asrwt>0</asrwt>
<pdfrwt beam="1">  1        2 0.18831606E+00 0.13524086E+04</pdfrwt>
<pdfrwt beam="2">  1       -2 0.29335895E+00 0.13524086E+04</pdfrwt>
<totfact> 0.61312935E-01</totfact>
</mgrwt>
</event>
<event>
 4    2  0.6914693E-007  0.6701566E+03  0.7818608E-02  0.1015551E+00
          2   -1    0    0  501    0  0.00000000000E+00  0.00000000000E+00  0.25253662261E+04  0.25253662261E+04  0.25500000000E-02 0. -1.
         -2   -1    0    0    0  501 -0.00000000000E+00 -0.00000000000E+00 -0.12756548192E+03  0.12756548194E+03  0.25500000000E-02 0.  1.
    8880023    1    1    2    0    0  0.10104447538E+03 -0.71342089996E+02  0.80237506176E+03  0.10454260499E+04  0.65864270000E+03 0.  1.
    8880022    1    1    2    0    0 -0.10104447538E+03  0.71342089996E+02  0.15954256824E+04  0.16075056581E+04  0.15294330000E+03 0.  0.
<mgrwt>
<rscale>  0 0.49326914E+03</rscale>
<asrwt>0</asrwt>
<pdfrwt beam="1">  1        2 0.38851788E+00 0.67015661E+03</pdfrwt>
<pdfrwt beam="2">  1       -2 0.19625459E-01 0.67015661E+03</pdfrwt>
<totfact> 0.77991045E+01</totfact>
</mgrwt>
</event>
<event>
 4    2  0.6914693E-007  0.9996786E+03  0.7818608E-02  0.9381978E-01
          2   -1    0    0  501    0  0.00000000000E+00  0.00000000000E+00  0.32276233828E+04  0.32276233828E+04  0.25500000000E-02 0. -1.
         -2   -1    0    0    0  501 -0.00000000000E+00 -0.00000000000E+00 -0.61715000972E+03  0.61715000973E+03  0.25500000000E-02 0.  1.
    8880023    1    1    2    0    0  0.73744025639E+03 -0.14740776153E+03  0.28664624311E+04  0.30357806665E+04  0.65864270000E+03 0.  0.
    8880022    1    1    2    0    0 -0.73744025639E+03  0.14740776153E+03 -0.25598905803E+03  0.80899272602E+03  0.15294330000E+03 0.  0.
<mgrwt>
<rscale>  0 0.93573761E+03</rscale>
<asrwt>0</asrwt>
<pdfrwt beam="1">  1        2 0.49655745E+00 0.99967864E+03</pdfrwt>
<pdfrwt beam="2">  1       -2 0.94946154E-01 0.99967864E+03</pdfrwt>
<totfact> 0.11909690E+00</totfact>
</mgrwt>
</event>
<event>
 4    2  0.6914693E-007  0.7461514E+03  0.7818608E-02  0.9842378E-01
         -2   -1    0    0    0  501 -0.00000000000E+00  0.00000000000E+00  0.23322025649E+03  0.23322025650E+03  0.25500000000E-02 0.  1.
          2   -1    0    0  501    0  0.00000000000E+00 -0.00000000000E+00 -0.17044080982E+04  0.17044080982E+04  0.25500000000E-02 0. -1.
    8880023    1    1    2    0    0 -0.90857397642E+01  0.35049834077E+03 -0.51184599246E+03  0.90483598724E+03  0.65864270000E+03 0.  0.
    8880022    1    1    2    0    0  0.90857397642E+01 -0.35049834077E+03 -0.95934184923E+03  0.10327923674E+04  0.15294330000E+03 0.  0.
<mgrwt>
<rscale>  0 0.63137064E+03</rscale>
<asrwt>0</asrwt>
<pdfrwt beam="1">  1        2 0.26221662E+00 0.74615135E+03</pdfrwt>
<pdfrwt beam="2">  1       -2 0.35880040E-01 0.74615135E+03</pdfrwt>
<totfact> 0.72880195E+01</totfact>
</mgrwt>
</event>
<event>
 4    2  0.6914693E-007  0.6668615E+03  0.7818608E-02  0.1018020E+00
         -2   -1    0    0    0  501 -0.00000000000E+00  0.00000000000E+00  0.43360933563E+03  0.43360933564E+03  0.25500000000E-02 0.  1.
          2   -1    0    0  501    0  0.00000000000E+00 -0.00000000000E+00 -0.93708333510E+03  0.93708333510E+03  0.25500000000E-02 0. -1.
    8880023    1    1    2    0    0 -0.80882707262E+02 -0.65970061272E+02  0.15671519146E+03  0.68502840731E+03  0.65864270000E+03 0.  0.
    8880022    1    1    2    0    0  0.80882707262E+02  0.65970061272E+02 -0.66018919093E+03  0.68566426344E+03  0.15294330000E+03 0. -1.
<mgrwt>
<rscale>  0 0.48407860E+03</rscale>
<asrwt>0</asrwt>
<pdfrwt beam="1">  1        2 0.14416667E+00 0.66686151E+03</pdfrwt>
<pdfrwt beam="2">  1       -2 0.66709129E-01 0.66686151E+03</pdfrwt>
<totfact> 0.58409862E+01</totfact>
</mgrwt>
</event>
<event>
 4    2  0.6914693E-007  0.1050299E+04  0.7818608E-02  0.9318522E-01
         -2   -1    0    0    0  501 -0.00000000000E+00  0.00000000000E+00  0.62369506059E+03  0.62369506059E+03  0.25500000000E-02 0.  1.
          2   -1    0    0  501    0  0.00000000000E+00 -0.00000000000E+00 -0.17509223656E+04  0.17509223656E+04  0.25500000000E-02 0. -1.
    8880023    1    1    2    0    0  0.61601621059E+03 -0.53836999101E+03 -0.10369977179E+03  0.10554061151E+04  0.65864270000E+03 0.  0.
    8880022    1    1    2    0    0 -0.61601621059E+03  0.53836999101E+03 -0.10235275332E+04  0.13192113110E+04  0.15294330000E+03 0.  0.
<mgrwt>
<rscale>  0 0.99095447E+03</rscale>
<asrwt>0</asrwt>
<pdfrwt beam="1">  1        2 0.26937267E+00 0.10502992E+04</pdfrwt>
<pdfrwt beam="2">  1       -2 0.95953087E-01 0.10502992E+04</pdfrwt>
<totfact> 0.83031264E+00</totfact>
</mgrwt>
</event>
<event>
 4    2  0.6914693E-007  0.1091474E+04  0.7818608E-02  0.9270609E-01
          2   -1    0    0  501    0  0.00000000000E+00  0.00000000000E+00  0.20228133518E+04  0.20228133518E+04  0.25500000000E-02 0. -1.
         -2   -1    0    0    0  501 -0.00000000000E+00 -0.00000000000E+00 -0.55651240796E+03  0.55651240796E+03  0.25500000000E-02 0.  1.
    8880023    1    1    2    0    0  0.43704815957E+03  0.75265756768E+03  0.12691181434E+04  0.16739102652E+04  0.65864270000E+03 0.  0.
    8880022    1    1    2    0    0 -0.43704815957E+03 -0.75265756768E+03  0.19718280051E+03  0.90541549456E+03  0.15294330000E+03 0.  0.
<mgrwt>
<rscale>  0 0.10353426E+04</rscale>
<asrwt>0</asrwt>
<pdfrwt beam="1">  1        2 0.31120206E+00 0.10914736E+04</pdfrwt>
<pdfrwt beam="2">  1       -2 0.85617293E-01 0.10914736E+04</pdfrwt>
<totfact> 0.76278583E+00</totfact>
</mgrwt>
</event>
<event>
 4    2  0.6914693E-007  0.7344735E+03  0.7818608E-02  0.9876348E-01
          2   -1    0    0  501    0  0.00000000000E+00  0.00000000000E+00  0.91521851651E+03  0.91521851651E+03  0.25500000000E-02 0. -1.
         -2   -1    0    0    0  501 -0.00000000000E+00 -0.00000000000E+00 -0.35540504654E+03  0.35540504655E+03  0.25500000000E-02 0.  1.
    8880023    1    1    2    0    0 -0.91409917681E+02 -0.31190598736E+03  0.53859029282E+03  0.91078582981E+03  0.65864270000E+03 0. -1.
    8880022    1    1    2    0    0  0.91409917681E+02  0.31190598736E+03  0.21223177154E+02  0.35983773325E+03  0.15294330000E+03 0.  1.
<mgrwt>
<rscale>  0 0.61421385E+03</rscale>
<asrwt>0</asrwt>
<pdfrwt beam="1">  1        2 0.14080285E+00 0.73447350E+03</pdfrwt>
<pdfrwt beam="2">  1       -2 0.54677700E-01 0.73447350E+03</pdfrwt>
<totfact> 0.91424920E+01</totfact>
</mgrwt>
</event>
<event>
 4    2  0.6914693E-007  0.7538021E+03  0.7818608E-02  0.9821426E-01
         -2   -1    0    0    0  501 -0.00000000000E+00  0.00000000000E+00  0.31378077480E+03  0.31378077481E+03  0.25500000000E-02 0.  1.
          2   -1    0    0  501    0  0.00000000000E+00 -0.00000000000E+00 -0.26965166890E+04  0.26965166890E+04  0.25500000000E-02 0. -1.
    8880023    1    1    2    0    0  0.34572321237E+03 -0.12199548858E+03 -0.18395770841E+03  0.77592401919E+03  0.65864270000E+03 0.  1.
    8880022    1    1    2    0    0 -0.34572321237E+03  0.12199548858E+03 -0.21987782057E+04  0.22343734446E+04  0.15294330000E+03 0.  0.
<mgrwt>
<rscale>  0 0.64225291E+03</rscale>
<asrwt>0</asrwt>
<pdfrwt beam="1">  1        2 0.41484871E+00 0.75380213E+03</pdfrwt>
<pdfrwt beam="2">  1       -2 0.48273967E-01 0.75380213E+03</pdfrwt>
<totfact> 0.11420451E+01</totfact>
</mgrwt>
</event>
<event>
 4    2  0.6914693E-007  0.7447478E+03  0.7818608E-02  0.9846327E-01
          2   -1    0    0  501    0  0.00000000000E+00  0.00000000000E+00  0.79892484547E+03  0.79892484548E+03  0.25500000000E-02 0. -1.
         -2   -1    0    0    0  501 -0.00000000000E+00 -0.00000000000E+00 -0.69501516931E+03  0.69501516931E+03  0.25500000000E-02 0.  1.
    8880023    1    1    2    0    0 -0.18854554868E+03 -0.29204382097E+03 -0.41371038538E+03  0.85194219671E+03  0.65864270000E+03 0.  0.
    8880022    1    1    2    0    0  0.18854554868E+03  0.29204382097E+03  0.51762006155E+03  0.64199781809E+03  0.15294330000E+03 0.  0.
<mgrwt>
<rscale>  0 0.62934546E+03</rscale>
<asrwt>0</asrwt>
<pdfrwt beam="1">  1        2 0.12291151E+00 0.74474776E+03</pdfrwt>
<pdfrwt beam="2">  1       -2 0.10692541E+00 0.74474776E+03</pdfrwt>
<totfact> 0.24641369E+01</totfact>
</mgrwt>
</event>
<event>
 4    2  0.6914693E-007  0.7115604E+03  0.7818608E-02  0.9952252E-01
          2   -1    0    0  501    0  0.00000000000E+00  0.00000000000E+00  0.11886848176E+04  0.11886848176E+04  0.25500000000E-02 0. -1.
         -2   -1    0    0    0  501 -0.00000000000E+00 -0.00000000000E+00 -0.73991153142E+03  0.73991153143E+03  0.25500000000E-02 0.  1.
    8880023    1    1    2    0    0 -0.26460401865E+03  0.49927340395E+02 -0.53948693047E+03  0.89295261935E+03  0.65864270000E+03 0.  1.
    8880022    1    1    2    0    0  0.26460401865E+03 -0.49927340395E+02  0.98826021669E+03  0.10356437297E+04  0.15294330000E+03 0.  0.
<mgrwt>
<rscale>  0 0.57794430E+03</rscale>
<asrwt>0</asrwt>
<pdfrwt beam="1">  1        2 0.18287459E+00 0.71156042E+03</pdfrwt>
<pdfrwt beam="2">  1       -2 0.11383254E+00 0.71156042E+03</pdfrwt>
<totfact> 0.11913913E+01</totfact>
</mgrwt>
</event>
<event>
 4    2  0.6914693E-007  0.1070339E+04  0.7818608E-02  0.9294821E-01
         -2   -1    0    0    0  501 -0.00000000000E+00  0.00000000000E+00  0.60831134651E+03  0.60831134651E+03  0.25500000000E-02 0.  1.
          2   -1    0    0  501    0  0.00000000000E+00 -0.00000000000E+00 -0.20512085792E+04  0.20512085792E+04  0.25500000000E-02 0. -1.
    8880023    1    1    2    0    0 -0.77136848298E+03  0.34176949421E+03 -0.11180242728E+03  0.10761624936E+04  0.65864270000E+03 0.  0.
    8880022    1    1    2    0    0  0.77136848298E+03 -0.34176949421E+03 -0.13310948055E+04  0.15833574321E+04  0.15294330000E+03 0.  0.
<mgrwt>
<rscale>  0 0.10126102E+04</rscale>
<asrwt>0</asrwt>
<pdfrwt beam="1">  1        2 0.31557055E+00 0.10703392E+04</pdfrwt>
<pdfrwt beam="2">  1       -2 0.93586362E-01 0.10703392E+04</pdfrwt>
<totfact> 0.59999335E+00</totfact>
</mgrwt>
</event>
<event>
 4    2  0.6914693E-007  0.6632680E+03  0.7818608E-02  0.1021033E+00
         -2   -1    0    0    0  501 -0.00000000000E+00  0.00000000000E+00  0.48028999241E+03  0.48028999242E+03  0.25500000000E-02 0.  1.
          2   -1    0    0  501    0  0.00000000000E+00 -0.00000000000E+00 -0.65610714262E+03  0.65610714263E+03  0.25500000000E-02 0. -1.
    8880023    1    1    2    0    0  0.47813587041E+02 -0.61871832697E+02  0.22494439533E+03  0.70037450699E+03  0.65864270000E+03 0.  1.
    8880022    1    1    2    0    0 -0.47813587041E+02  0.61871832697E+02 -0.40076154553E+03  0.43602262806E+03  0.15294330000E+03 0.  0.
<mgrwt>
<rscale>  0 0.47315718E+03</rscale>
<asrwt>0</asrwt>
<pdfrwt beam="1">  1        2 0.10093956E+00 0.66326802E+03</pdfrwt>
<pdfrwt beam="2">  1       -2 0.73890768E-01 0.66326802E+03</pdfrwt>
<totfact> 0.74693469E+01</totfact>
</mgrwt>
</event>
<event>
 4    2  0.6914693E-007  0.8863776E+03  0.7818608E-02  0.9548264E-01
         -2   -1    0    0    0  501 -0.00000000000E+00  0.00000000000E+00  0.10261288492E+04  0.10261288492E+04  0.25500000000E-02 0.  1.
          2   -1    0    0  501    0  0.00000000000E+00 -0.00000000000E+00 -0.12493034667E+04  0.12493034667E+04  0.25500000000E-02 0. -1.
    8880023    1    1    2    0    0 -0.48454064889E+03 -0.34216282092E+03  0.72600143702E+03  0.11457501164E+04  0.65864270000E+03 0.  1.
    8880022    1    1    2    0    0  0.48454064889E+03  0.34216282092E+03 -0.94917605453E+03  0.11296821995E+04  0.15294330000E+03 0.  0.
<mgrwt>
<rscale>  0 0.80817179E+03</rscale>
<asrwt>0</asrwt>
<pdfrwt beam="1">  1        2 0.19220053E+00 0.88637760E+03</pdfrwt>
<pdfrwt beam="2">  1       -2 0.15786598E+00 0.88637760E+03</pdfrwt>
<totfact> 0.46455093E+00</totfact>
</mgrwt>
</event>
<event>
 4    2  0.6914693E-007  0.7291749E+03  0.7818608E-02  0.9892682E-01
         -2   -1    0    0    0  501 -0.00000000000E+00  0.00000000000E+00  0.39119069486E+03  0.39119069487E+03  0.25500000000E-02 0.  1.
          2   -1    0    0  501    0  0.00000000000E+00 -0.00000000000E+00 -0.75211095591E+03  0.75211095592E+03  0.25500000000E-02 0. -1.
    8880023    1    1    2    0    0  0.12942921396E+03  0.28484015790E+03 -0.18091985720E+03  0.75128425910E+03  0.65864270000E+03 0.  0.
    8880022    1    1    2    0    0 -0.12942921396E+03 -0.28484015790E+03 -0.18000040385E+03  0.39201739168E+03  0.15294330000E+03 0. -1.
<mgrwt>
<rscale>  0 0.60617261E+03</rscale>
<asrwt>0</asrwt>
<pdfrwt beam="1">  1        2 0.11570938E+00 0.72917491E+03</pdfrwt>
<pdfrwt beam="2">  1       -2 0.60183184E-01 0.72917491E+03</pdfrwt>
<totfact> 0.97447579E+01</totfact>
</mgrwt>
</event>
<event>
 4    2  0.6914693E-007  0.6840198E+03  0.7818608E-02  0.1007135E+00
         -2   -1    0    0    0  501 -0.00000000000E+00  0.00000000000E+00  0.53304966857E+03  0.53304966858E+03  0.25500000000E-02 0.  1.
          2   -1    0    0  501    0  0.00000000000E+00 -0.00000000000E+00 -0.86341368561E+03  0.86341368562E+03  0.25500000000E-02 0. -1.
    8880023    1    1    2    0    0  0.25469062748E+02  0.18282287636E+03  0.28122336516E+03  0.73957397510E+03  0.65864270000E+03 0.  0.
    8880022    1    1    2    0    0 -0.25469062748E+02 -0.18282287636E+03 -0.61158738220E+03  0.65688937909E+03  0.15294330000E+03 0.  0.
<mgrwt>
<rscale>  0 0.52629166E+03</rscale>
<asrwt>0</asrwt>
<pdfrwt beam="1">  1        2 0.13283287E+00 0.68401980E+03</pdfrwt>
<pdfrwt beam="2">  1       -2 0.82007642E-01 0.68401980E+03</pdfrwt>
<totfact> 0.41431680E+01</totfact>
</mgrwt>
</event>
<event>
 4    2  0.6914693E-007  0.9939785E+03  0.7818608E-02  0.9389478E-01
          2   -1    0    0  501    0  0.00000000000E+00  0.00000000000E+00  0.30885189560E+04  0.30885189560E+04  0.25500000000E-02 0. -1.
         -2   -1    0    0    0  501 -0.00000000000E+00 -0.00000000000E+00 -0.57186546390E+03  0.57186546391E+03  0.25500000000E-02 0.  1.
    8880023    1    1    2    0    0  0.69661780625E+03  0.26250077008E+03 -0.38380062923E+02  0.99471918538E+03  0.65864270000E+03 0.  1.
    8880022    1    1    2    0    0 -0.69661780625E+03 -0.26250077008E+03  0.25550335550E+04  0.26656652345E+04  0.15294330000E+03 0. -1.
<mgrwt>
<rscale>  0 0.92946653E+03</rscale>
<asrwt>0</asrwt>
<pdfrwt beam="1">  1        2 0.47515677E+00 0.99397848E+03</pdfrwt>
<pdfrwt beam="2">  1       -2 0.87979302E-01 0.99397848E+03</pdfrwt>
<totfact> 0.17448297E+00</totfact>
</mgrwt>
</event>
<event>
 4    2  0.8639282E-007  0.1663214E+04  0.7818608E-02  0.8802232E-01
         -2   -1    0    0    0  501 -0.00000000000E+00  0.00000000000E+00  0.13547929370E+04  0.13547929370E+04  0.25500000000E-02 0.  1.
          2   -1    0    0  501    0  0.00000000000E+00 -0.00000000000E+00 -0.30953498534E+04  0.30953498534E+04  0.25500000000E-02 0. -1.
    8880023    1    1    2    0    0 -0.14334119257E+04  0.52706775600E+03  0.49777664491E+03  0.17361054008E+04  0.65864270000E+03 0.  0.
    8880022    1    1    2    0    0  0.14334119257E+04 -0.52706775600E+03 -0.22383335613E+04  0.27140373897E+04  0.15294330000E+03 0.  0.
<mgrwt>
<rscale>  0 0.16301584E+04</rscale>
<asrwt>0</asrwt>
<pdfrwt beam="1">  1        2 0.47620767E+00 0.16632139E+04</pdfrwt>
<pdfrwt beam="2">  1       -2 0.20842968E+00 0.16632139E+04</pdfrwt>
<totfact> 0.16417352E-01</totfact>
</mgrwt>
</event>
<event>
 4    2  0.6914693E-007  0.6899398E+03  0.7818608E-02  0.1004181E+00
          2   -1    0    0  501    0  0.00000000000E+00  0.00000000000E+00  0.45977715603E+03  0.45977715604E+03  0.25500000000E-02 0. -1.
         -2   -1    0    0    0  501 -0.00000000000E+00 -0.00000000000E+00 -0.14582059959E+04  0.14582059959E+04  0.25500000000E-02 0.  1.
    8880023    1    1    2    0    0 -0.18960936466E+03 -0.79088520739E+02 -0.13304205185E+04  0.14986779732E+04  0.65864270000E+03 0.  1.
    8880022    1    1    2    0    0  0.18960936466E+03  0.79088520739E+02  0.33199167855E+03  0.41930517874E+03  0.15294330000E+03 0.  0.
<mgrwt>
<rscale>  0 0.53854254E+03</rscale>
<asrwt>0</asrwt>
<pdfrwt beam="1">  1        2 0.70734948E-01 0.68993979E+03</pdfrwt>
<pdfrwt beam="2">  1       -2 0.22433938E+00 0.68993979E+03</pdfrwt>
<totfact> 0.64912273E+00</totfact>
</mgrwt>
</event>
<event>
 4    2  0.6914693E-007  0.6917265E+03  0.7818608E-02  0.1003343E+00
          2   -1    0    0  501    0  0.00000000000E+00  0.00000000000E+00  0.19090655327E+04  0.19090655327E+04  0.25500000000E-02 0. -1.
         -2   -1    0    0    0  501 -0.00000000000E+00 -0.00000000000E+00 -0.18624216669E+03  0.18624216671E+03  0.25500000000E-02 0.  1.
    8880023    1    1    2    0    0 -0.16226114782E+03  0.13545011074E+03  0.52230886337E+03  0.86677111604E+03  0.65864270000E+03 0.  0.
    8880022    1    1    2    0    0  0.16226114782E+03 -0.13545011074E+03  0.12005145027E+04  0.12285365834E+04  0.15294330000E+03 0. -1.
<mgrwt>
<rscale>  0 0.54208571E+03</rscale>
<asrwt>0</asrwt>
<pdfrwt beam="1">  1        2 0.29370238E+00 0.69172655E+03</pdfrwt>
<pdfrwt beam="2">  1       -2 0.28652642E-01 0.69172655E+03</pdfrwt>
<totfact> 0.86480028E+01</totfact>
</mgrwt>
</event>
<event>
 4    2  0.6914693E-007  0.8550055E+03  0.7818608E-02  0.9602510E-01
          2   -1    0    0  501    0  0.00000000000E+00  0.00000000000E+00  0.20511932574E+04  0.20511932574E+04  0.25500000000E-02 0. -1.
         -2   -1    0    0    0  501 -0.00000000000E+00 -0.00000000000E+00 -0.35493505219E+03  0.35493505220E+03  0.25500000000E-02 0.  1.
    8880023    1    1    2    0    0 -0.11949097041E+03 -0.53192673729E+03  0.31133745139E+03  0.90992601939E+03  0.65864270000E+03 0.  0.
    8880022    1    1    2    0    0  0.11949097041E+03  0.53192673729E+03  0.13849207538E+04  0.14962022902E+04  0.15294330000E+03 0.  0.
<mgrwt>
<rscale>  0 0.77130258E+03</rscale>
<asrwt>0</asrwt>
<pdfrwt beam="1">  1        2 0.31556819E+00 0.85500547E+03</pdfrwt>
<pdfrwt beam="2">  1       -2 0.54605392E-01 0.85500547E+03</pdfrwt>
<totfact> 0.20159691E+01</totfact>
</mgrwt>
</event>
<event>
 4    2  0.6914693E-007  0.6667262E+03  0.7818608E-02  0.1018127E+00
          2   -1    0    0  501    0  0.00000000000E+00  0.00000000000E+00  0.15629086937E+04  0.15629086937E+04  0.25500000000E-02 0. -1.
         -2   -1    0    0    0  501 -0.00000000000E+00 -0.00000000000E+00 -0.20096964337E+03  0.20096964339E+03  0.25500000000E-02 0.  1.
    8880023    1    1    2    0    0  0.48220670304E+02 -0.91587964600E+02  0.38554838518E+03  0.77017618237E+03  0.65864270000E+03 0.  1.
    8880022    1    1    2    0    0 -0.48220670304E+02  0.91587964600E+02  0.97639066513E+03  0.99370215471E+03  0.15294330000E+03 0.  0.
<mgrwt>
<rscale>  0 0.48368573E+03</rscale>
<asrwt>0</asrwt>
<pdfrwt beam="1">  1        2 0.24044748E+00 0.66672618E+03</pdfrwt>
<pdfrwt beam="2">  1       -2 0.30918408E-01 0.66672618E+03</pdfrwt>
<totfact> 0.11633948E+02</totfact>
</mgrwt>
</event>
<event>
 4    2  0.6914693E-007  0.9060819E+03  0.7818608E-02  0.9516338E-01
         -2   -1    0    0    0  501 -0.00000000000E+00  0.00000000000E+00  0.11651015061E+04  0.11651015061E+04  0.25500000000E-02 0.  1.
          2   -1    0    0  501    0  0.00000000000E+00 -0.00000000000E+00 -0.98668874913E+03  0.98668874913E+03  0.25500000000E-02 0. -1.
    8880023    1    1    2    0    0  0.38258617717E+03 -0.49071589469E+03  0.83658277522E+03  0.12332295887E+04  0.65864270000E+03 0.  0.
    8880022    1    1    2    0    0 -0.38258617717E+03  0.49071589469E+03 -0.65817001825E+03  0.91856066659E+03  0.15294330000E+03 0.  0.
<mgrwt>
<rscale>  0 0.83089944E+03</rscale>
<asrwt>0</asrwt>
<pdfrwt beam="1">  1        2 0.15179827E+00 0.90608194E+03</pdfrwt>
<pdfrwt beam="2">  1       -2 0.17924638E+00 0.90608194E+03</pdfrwt>
<totfact> 0.47216496E+00</totfact>
</mgrwt>
</event>
<event>
 4    2  0.6914693E-007  0.6859823E+03  0.7818608E-02  0.1006124E+00
         -2   -1    0    0    0  501 -0.00000000000E+00  0.00000000000E+00  0.19066087294E+03  0.19066087296E+03  0.25500000000E-02 0.  1.
          2   -1    0    0  501    0  0.00000000000E+00 -0.00000000000E+00 -0.19354277761E+04  0.19354277761E+04  0.25500000000E-02 0. -1.
    8880023    1    1    2    0    0  0.48371689941E+02 -0.18553067558E+03 -0.47872744465E+03  0.83651158061E+03  0.65864270000E+03 0.  0.
    8880022    1    1    2    0    0 -0.48371689941E+02  0.18553067558E+03 -0.12660394585E+04  0.12895770684E+04  0.15294330000E+03 0.  0.
<mgrwt>
<rscale>  0 0.53044690E+03</rscale>
<asrwt>0</asrwt>
<pdfrwt beam="1">  1        2 0.29775811E+00 0.68598226E+03</pdfrwt>
<pdfrwt beam="2">  1       -2 0.29332443E-01 0.68598226E+03</pdfrwt>
<totfact> 0.80187402E+01</totfact>
</mgrwt>
</event>
<event>
 4    2  0.6914693E-007  0.7243601E+03  0.7818608E-02  0.9908100E-01
         -2   -1    0    0    0  501 -0.00000000000E+00  0.00000000000E+00  0.12314519106E+03  0.12314519109E+03  0.25500000000E-02 0.  1.
          2   -1    0    0  501    0  0.00000000000E+00 -0.00000000000E+00 -0.22949170411E+04  0.22949170411E+04  0.25500000000E-02 0. -1.
    8880023    1    1    2    0    0 -0.28951735981E+03 -0.84065953219E+02 -0.14362856135E+04  0.16086062153E+04  0.65864270000E+03 0.  1.
    8880022    1    1    2    0    0  0.28951735981E+03  0.84065953219E+02 -0.73548623656E+03  0.80945601691E+03  0.15294330000E+03 0. -1.
<mgrwt>
<rscale>  0 0.59870340E+03</rscale>
<asrwt>0</asrwt>
<pdfrwt beam="1">  1        2 0.35306413E+00 0.72436013E+03</pdfrwt>
<pdfrwt beam="2">  1       -2 0.18945416E-01 0.72436013E+03</pdfrwt>
<totfact> 0.11087145E+02</totfact>
</mgrwt>
</event>
<event>
 4    2  0.6914693E-007  0.8363388E+03  0.7818608E-02  0.9637123E-01
         -2   -1    0    0    0  501 -0.00000000000E+00  0.00000000000E+00  0.75974450279E+03  0.75974450279E+03  0.25500000000E-02 0.  1.
          2   -1    0    0  501    0  0.00000000000E+00 -0.00000000000E+00 -0.20924820183E+04  0.20924820183E+04  0.25500000000E-02 0. -1.
    8880023    1    1    2    0    0  0.13006764388E+03  0.49873316477E+03  0.47804178701E+03  0.96332056867E+03  0.65864270000E+03 0.  1.
    8880022    1    1    2    0    0 -0.13006764388E+03 -0.49873316477E+03 -0.18107793026E+04  0.18889059525E+04  0.15294330000E+03 0.  0.
<mgrwt>
<rscale>  0 0.74887128E+03</rscale>
<asrwt>0</asrwt>
<pdfrwt beam="1">  1        2 0.32192031E+00 0.83633879E+03</pdfrwt>
<pdfrwt beam="2">  1       -2 0.11688377E+00 0.83633879E+03</pdfrwt>
<totfact> 0.34428294E+00</totfact>
</mgrwt>
</event>
<event>
 4    2  0.6914693E-007  0.8174318E+03  0.7818608E-02  0.9674300E-01
         -2   -1    0    0    0  501 -0.00000000000E+00  0.00000000000E+00  0.60327251886E+03  0.60327251886E+03  0.25500000000E-02 0.  1.
          2   -1    0    0  501    0  0.00000000000E+00 -0.00000000000E+00 -0.97139629959E+03  0.97139629959E+03  0.25500000000E-02 0. -1.
    8880023    1    1    2    0    0  0.41385163847E+03  0.25121963774E+03  0.16990711140E+03  0.83490305893E+03  0.65864270000E+03 0.  0.
    8880022    1    1    2    0    0 -0.41385163847E+03 -0.25121963774E+03 -0.53803089213E+03  0.73976575952E+03  0.15294330000E+03 0.  0.
<mgrwt>
<rscale>  0 0.72567802E+03</rscale>
<asrwt>0</asrwt>
<pdfrwt beam="1">  1        2 0.14944559E+00 0.81743177E+03</pdfrwt>
<pdfrwt beam="2">  1       -2 0.92811156E-01 0.81743177E+03</pdfrwt>
<totfact> 0.26114996E+01</totfact>
</mgrwt>
</event>
<event>
 4    2  0.6914693E-007  0.1060069E+04  0.7818608E-02  0.9306874E-01
          2   -1    0    0  501    0  0.00000000000E+00  0.00000000000E+00  0.11100456941E+04  0.11100456941E+04  0.25500000000E-02 0. -1.
         -2   -1    0    0    0  501 -0.00000000000E+00 -0.00000000000E+00 -0.10533660955E+04  0.10533660955E+04  0.25500000000E-02 0.  1.
    8880023    1    1    2    0    0  0.80720688294E+03 -0.19583806111E+03 -0.47900672688E+03  0.11632683047E+04  0.65864270000E+03 0.  0.
    8880022    1    1    2    0    0 -0.80720688294E+03  0.19583806111E+03  0.53568632553E+03  0.10001434849E+04  0.15294330000E+03 0.  0.
<mgrwt>
<rscale>  0 0.10015246E+04</rscale>
<asrwt>0</asrwt>
<pdfrwt beam="1">  1        2 0.17077626E+00 0.10600687E+04</pdfrwt>
<pdfrwt beam="2">  1       -2 0.16205632E+00 0.10600687E+04</pdfrwt>
<totfact> 0.51471134E+00</totfact>
</mgrwt>
</event>
<event>
 4    2  0.6914693E-007  0.8620816E+03  0.7818608E-02  0.9589871E-01
         -2   -1    0    0    0  501 -0.00000000000E+00  0.00000000000E+00  0.45005726636E+03  0.45005726636E+03  0.25500000000E-02 0.  1.
          2   -1    0    0  501    0  0.00000000000E+00 -0.00000000000E+00 -0.27125375958E+04  0.27125375958E+04  0.25500000000E-02 0. -1.
    8880023    1    1    2    0    0  0.33382504026E+03 -0.44489928157E+03 -0.36252592982E+02  0.86284354608E+03  0.65864270000E+03 0.  0.
    8880022    1    1    2    0    0 -0.33382504026E+03  0.44489928157E+03 -0.22262277365E+04  0.22997513161E+04  0.15294330000E+03 0.  0.
<mgrwt>
<rscale>  0 0.77970208E+03</rscale>
<asrwt>0</asrwt>
<pdfrwt beam="1">  1        2 0.41731347E+00 0.86208163E+03</pdfrwt>
<pdfrwt beam="2">  1       -2 0.69239581E-01 0.86208163E+03</pdfrwt>
<totfact> 0.51492422E+00</totfact>
</mgrwt>
</event>
<event>
 4    2  0.6914693E-007  0.8300130E+03  0.7818608E-02  0.9649307E-01
          2   -1    0    0  501    0  0.00000000000E+00  0.00000000000E+00  0.11508862903E+04  0.11508862903E+04  0.25500000000E-02 0. -1.
         -2   -1    0    0    0  501 -0.00000000000E+00 -0.00000000000E+00 -0.57492981993E+03  0.57492981994E+03  0.25500000000E-02 0.  1.
    8880023    1    1    2    0    0  0.33676451290E+03  0.37643205487E+03 -0.13445965768E+03  0.84083353578E+03  0.65864270000E+03 0.  0.
    8880022    1    1    2    0    0 -0.33676451290E+03 -0.37643205487E+03  0.71041612799E+03  0.88498257441E+03  0.15294330000E+03 0.  0.
<mgrwt>
<rscale>  0 0.74116932E+03</rscale>
<asrwt>0</asrwt>
<pdfrwt beam="1">  1        2 0.17705942E+00 0.83001303E+03</pdfrwt>
<pdfrwt beam="2">  1       -2 0.88450744E-01 0.83001303E+03</pdfrwt>
<totfact> 0.22527600E+01</totfact>
</mgrwt>
</event>
<event>
 4    2  0.6914693E-007  0.7068293E+03  0.7818608E-02  0.9969969E-01
         -2   -1    0    0    0  501 -0.00000000000E+00  0.00000000000E+00  0.47549392658E+03  0.47549392658E+03  0.25500000000E-02 0.  1.
          2   -1    0    0  501    0  0.00000000000E+00 -0.00000000000E+00 -0.21833712846E+04  0.21833712846E+04  0.25500000000E-02 0. -1.
    8880023    1    1    2    0    0  0.23195646064E+03 -0.10951584443E+03  0.19456974498E+03  0.73312012095E+03  0.65864270000E+03 0.  0.
    8880022    1    1    2    0    0 -0.23195646064E+03  0.10951584443E+03 -0.19024471030E+04  0.19257450902E+04  0.15294330000E+03 0.  0.
<mgrwt>
<rscale>  0 0.56986889E+03</rscale>
<asrwt>0</asrwt>
<pdfrwt beam="1">  1        2 0.33590327E+00 0.70682935E+03</pdfrwt>
<pdfrwt beam="2">  1       -2 0.73152913E-01 0.70682935E+03</pdfrwt>
<totfact> 0.93258304E+00</totfact>
</mgrwt>
</event>
<event>
 4    2  0.6914693E-007  0.6698594E+03  0.7818608E-02  0.1015764E+00
          2   -1    0    0  501    0  0.00000000000E+00  0.00000000000E+00  0.25706396181E+03  0.25706396182E+03  0.25500000000E-02 0. -1.
         -2   -1    0    0    0  501 -0.00000000000E+00 -0.00000000000E+00 -0.98882111186E+03  0.98882111186E+03  0.25500000000E-02 0.  1.
    8880023    1    1    2    0    0  0.12119037890E+03  0.14639031588E+02 -0.79560380489E+03  0.10400466479E+04  0.65864270000E+03 0.  1.
    8880022    1    1    2    0    0 -0.12119037890E+03 -0.14639031588E+02  0.63846654834E+02  0.20583842579E+03  0.15294330000E+03 0.  0.
<mgrwt>
<rscale>  0 0.49246770E+03</rscale>
<asrwt>0</asrwt>
<pdfrwt beam="1">  1        2 0.39548302E-01 0.66985940E+03</pdfrwt>
<pdfrwt beam="2">  1       -2 0.15212632E+00 0.66985940E+03</pdfrwt>
<totfact> 0.38281113E+01</totfact>
</mgrwt>
</event>
<event>
 4    2  0.6914693E-007  0.7720244E+03  0.7818608E-02  0.9774917E-01
          2   -1    0    0  501    0  0.00000000000E+00  0.00000000000E+00  0.22114251585E+04  0.22114251585E+04  0.25500000000E-02 0. -1.
         -2   -1    0    0    0  501 -0.00000000000E+00 -0.00000000000E+00 -0.28951847815E+03  0.28951847816E+03  0.25500000000E-02 0.  1.
    8880023    1    1    2    0    0  0.35564148078E+03  0.18902526562E+03  0.30912623291E+03  0.83161328033E+03  0.65864270000E+03 0.  0.
    8880022    1    1    2    0    0 -0.35564148078E+03 -0.18902526562E+03  0.16127804475E+04  0.16693303563E+04  0.15294330000E+03 0.  0.
<mgrwt>
<rscale>  0 0.66726201E+03</rscale>
<asrwt>0</asrwt>
<pdfrwt beam="1">  1        2 0.34021926E+00 0.77202437E+03</pdfrwt>
<pdfrwt beam="2">  1       -2 0.44541304E-01 0.77202437E+03</pdfrwt>
<totfact> 0.25164091E+01</totfact>
</mgrwt>
</event>
<event>
 4    2  0.6914693E-007  0.9669331E+03  0.7818608E-02  0.9426159E-01
          2   -1    0    0  501    0  0.00000000000E+00  0.00000000000E+00  0.65469043464E+03  0.65469043465E+03  0.25500000000E-02 0. -1.
         -2   -1    0    0    0  501 -0.00000000000E+00 -0.00000000000E+00 -0.16393032444E+04  0.16393032444E+04  0.25500000000E-02 0.  1.
    8880023    1    1    2    0    0  0.72939540651E+01 -0.70788143823E+03 -0.11974595983E+04  0.15391130655E+04  0.65864270000E+03 0.  1.
    8880022    1    1    2    0    0 -0.72939540651E+01  0.70788143823E+03  0.21284678858E+03  0.75488061359E+03  0.15294330000E+03 0.  0.
<mgrwt>
<rscale>  0 0.89953846E+03</rscale>
<asrwt>0</asrwt>
<pdfrwt beam="1">  1        2 0.10072161E+00 0.96693306E+03</pdfrwt>
<pdfrwt beam="2">  1       -2 0.25220050E+00 0.96693306E+03</pdfrwt>
<totfact> 0.27827160E+00</totfact>
</mgrwt>
</event>
<event>
 4    2  0.6914693E-007  0.8800945E+03  0.7818608E-02  0.9558773E-01
         -2   -1    0    0    0  501 -0.00000000000E+00  0.00000000000E+00  0.32786204554E+03  0.32786204555E+03  0.25500000000E-02 0.  1.
          2   -1    0    0  501    0  0.00000000000E+00 -0.00000000000E+00 -0.20623438378E+04  0.20623438378E+04  0.25500000000E-02 0. -1.
    8880023    1    1    2    0    0  0.57954414504E+03 -0.69890821062E+02 -0.49041299596E+03  0.10075074470E+04  0.65864270000E+03 0.  1.
    8880022    1    1    2    0    0 -0.57954414504E+03  0.69890821062E+02 -0.12440687963E+04  0.13826984364E+04  0.15294330000E+03 0. -1.
<mgrwt>
<rscale>  0 0.80086017E+03</rscale>
<asrwt>0</asrwt>
<pdfrwt beam="1">  1        2 0.31728366E+00 0.88009451E+03</pdfrwt>
<pdfrwt beam="2">  1       -2 0.50440316E-01 0.88009451E+03</pdfrwt>
<totfact> 0.23336838E+01</totfact>
</mgrwt>
</event>
<event>
 4    2  0.6914693E-007  0.1068761E+04  0.7818608E-02  0.9296661E-01
         -2   -1    0    0    0  501 -0.00000000000E+00  0.00000000000E+00  0.10706003860E+04  0.10706003860E+04  0.25500000000E-02 0.  1.
          2   -1    0    0  501    0  0.00000000000E+00 -0.00000000000E+00 -0.17295247335E+04  0.17295247335E+04  0.25500000000E-02 0. -1.
    8880023    1    1    2    0    0 -0.82865135706E+03  0.14757079871E+03  0.63930824861E+03  0.12453776356E+04  0.65864270000E+03 0.  1.
    8880022    1    1    2    0    0  0.82865135706E+03 -0.14757079871E+03 -0.12982325961E+04  0.15547474840E+04  0.15294330000E+03 0.  0.
<mgrwt>
<rscale>  0 0.10109086E+04</rscale>
<asrwt>0</asrwt>
<pdfrwt beam="1">  1        2 0.26608073E+00 0.10687612E+04</pdfrwt>
<pdfrwt beam="2">  1       -2 0.16470775E+00 0.10687612E+04</pdfrwt>
<totfact> 0.21658781E+00</totfact>
</mgrwt>
</event>
<event>
 4    2  0.6914693E-007  0.6596908E+03  0.7818608E-02  0.1024475E+00
         -2   -1    0    0    0  501 -0.00000000000E+00  0.00000000000E+00  0.25314788643E+03  0.25314788645E+03  0.25500000000E-02 0.  1.
          2   -1    0    0  501    0  0.00000000000E+00 -0.00000000000E+00 -0.18349137068E+04  0.18349137068E+04  0.25500000000E-02 0. -1.
    8880023    1    1    2    0    0 -0.31025362113E+02 -0.20474636683E+02 -0.18872249363E+03  0.68615462522E+03  0.65864270000E+03 0.  1.
    8880022    1    1    2    0    0  0.31025362113E+02  0.20474636683E+02 -0.13930433267E+04  0.14019069680E+04  0.15294330000E+03 0.  0.
<mgrwt>
<rscale>  0 0.46105594E+03</rscale>
<asrwt>0</asrwt>
<pdfrwt beam="1">  1        2 0.28229441E+00 0.65969083E+03</pdfrwt>
<pdfrwt beam="2">  1       -2 0.38945830E-01 0.65969083E+03</pdfrwt>
<totfact> 0.53378281E+01</totfact>
</mgrwt>
</event>
<event>
 4    2  0.6914693E-007  0.1057695E+04  0.7818608E-02  0.9309688E-01
         -2   -1    0    0    0  501 -0.00000000000E+00  0.00000000000E+00  0.29796925652E+03  0.29796925653E+03  0.25500000000E-02 0.  1.
          2   -1    0    0  501    0  0.00000000000E+00 -0.00000000000E+00 -0.31418822491E+04  0.31418822491E+04  0.25500000000E-02 0. -1.
    8880023    1    1    2    0    0  0.37764488272E+02 -0.82672954850E+03 -0.19051887641E+04  0.21790966789E+04  0.65864270000E+03 0.  0.
    8880022    1    1    2    0    0 -0.37764488272E+02  0.82672954850E+03 -0.93872422850E+03  0.12607548267E+04  0.15294330000E+03 0.  0.
<mgrwt>
<rscale>  0 0.99895833E+03</rscale>
<asrwt>0</asrwt>
<pdfrwt beam="1">  1        2 0.48336648E+00 0.10576947E+04</pdfrwt>
<pdfrwt beam="2">  1       -2 0.45841426E-01 0.10576947E+04</pdfrwt>
<totfact> 0.65017298E+00</totfact>
</mgrwt>
</event>
<event>
 4    2  0.6914693E-007  0.7073941E+03  0.7818608E-02  0.9967808E-01
         -2   -1    0    0    0  501 -0.00000000000E+00  0.00000000000E+00  0.18017863067E+04  0.18017863067E+04  0.25500000000E-02 0.  1.
          2   -1    0    0  501    0  0.00000000000E+00 -0.00000000000E+00 -0.25740790696E+03  0.25740790697E+03  0.25500000000E-02 0. -1.
    8880023    1    1    2    0    0  0.38686114236E+02  0.25514616793E+03  0.28178188168E+03  0.76145086352E+03  0.65864270000E+03 0. -1.
    8880022    1    1    2    0    0 -0.38686114236E+02 -0.25514616793E+03  0.12625965181E+04  0.12977433502E+04  0.15294330000E+03 0.  0.
<mgrwt>
<rscale>  0 0.57084611E+03</rscale>
<asrwt>0</asrwt>
<pdfrwt beam="1">  1        2 0.39601217E-01 0.70739408E+03</pdfrwt>
<pdfrwt beam="2">  1       -2 0.27719789E+00 0.70739408E+03</pdfrwt>
<totfact> 0.59260965E+00</totfact>
</mgrwt>
</event>
<event>
 4    2  0.6914693E-007  0.8122311E+03  0.7818608E-02  0.9684948E-01
         -2   -1    0    0    0  501 -0.00000000000E+00  0.00000000000E+00  0.77677324023E+03  0.77677324024E+03  0.25500000000E-02 0.  1.
          2   -1    0    0  501    0  0.00000000000E+00 -0.00000000000E+00 -0.67287519274E+03  0.67287519275E+03  0.25500000000E-02 0. -1.
    8880023    1    1    2    0    0  0.33599257324E+03 -0.33618176263E+03  0.36007217070E+03  0.88846573438E+03  0.65864270000E+03 0.  0.
    8880022    1    1    2    0    0 -0.33599257324E+03  0.33618176263E+03 -0.25617412321E+03  0.56118269860E+03  0.15294330000E+03 0.  0.
<mgrwt>
<rscale>  0 0.71920084E+03</rscale>
<asrwt>0</asrwt>
<pdfrwt beam="1">  1        2 0.10351926E+00 0.81223112E+03</pdfrwt>
<pdfrwt beam="2">  1       -2 0.11950358E+00 0.81223112E+03</pdfrwt>
<totfact> 0.23292228E+01</totfact>
</mgrwt>
</event>
<event>
 4    2  0.6914693E-007  0.6715652E+03  0.7818608E-02  0.1014565E+00
          2   -1    0    0  501    0  0.00000000000E+00  0.00000000000E+00  0.43564236377E+03  0.43564236378E+03  0.25500000000E-02 0. -1.
         -2   -1    0    0    0  501 -0.00000000000E+00 -0.00000000000E+00 -0.10207229871E+04  0.10207229871E+04  0.25500000000E-02 0.  1.
    8880023    1    1    2    0    0  0.13040489688E+03 -0.13573532562E+02 -0.87519938081E+03  0.11031653731E+04  0.65864270000E+03 0.  1.
    8880022    1    1    2    0    0 -0.13040489688E+03  0.13573532562E+02  0.29011875744E+03  0.35319997785E+03  0.15294330000E+03 0.  0.
<mgrwt>
<rscale>  0 0.49700064E+03</rscale>
<asrwt>0</asrwt>
<pdfrwt beam="1">  1        2 0.67021902E-01 0.67156525E+03</pdfrwt>
<pdfrwt beam="2">  1       -2 0.15703431E+00 0.67156525E+03</pdfrwt>
<totfact> 0.19528453E+01</totfact>
</mgrwt>
</event>
<event>
 4    2  0.6914693E-007  0.1267515E+04  0.7818608E-02  0.9094133E-01
          2   -1    0    0  501    0  0.00000000000E+00  0.00000000000E+00  0.16723499047E+04  0.16723499047E+04  0.25500000000E-02 0. -1.
         -2   -1    0    0    0  501 -0.00000000000E+00 -0.00000000000E+00 -0.84652111785E+03  0.84652111785E+03  0.25500000000E-02 0.  1.
    8880023    1    1    2    0    0  0.17972967901E+03  0.10679334560E+04  0.59887845315E+03  0.14018738288E+04  0.65864270000E+03 0. -1.
    8880022    1    1    2    0    0 -0.17972967901E+03 -0.10679334560E+04  0.22695033371E+03  0.11169971938E+04  0.15294330000E+03 0.  1.
<mgrwt>
<rscale>  0 0.12216289E+04</rscale>
<asrwt>0</asrwt>
<pdfrwt beam="1">  1        2 0.25728460E+00 0.12675152E+04</pdfrwt>
<pdfrwt beam="2">  1       -2 0.13023402E+00 0.12675152E+04</pdfrwt>
<totfact> 0.42511225E+00</totfact>
</mgrwt>
</event>
<event>
 4    2  0.6914693E-007  0.8991321E+03  0.7818608E-02  0.9527426E-01
         -2   -1    0    0    0  501 -0.00000000000E+00  0.00000000000E+00  0.11925214293E+04  0.11925214293E+04  0.25500000000E-02 0.  1.
          2   -1    0    0  501    0  0.00000000000E+00 -0.00000000000E+00 -0.55692861180E+03  0.55692861180E+03  0.25500000000E-02 0. -1.
    8880023    1    1    2    0    0  0.60507946012E+03  0.92234156374E+02  0.66429133809E+03  0.11179094242E+04  0.65864270000E+03 0.  1.
    8880022    1    1    2    0    0 -0.60507946012E+03 -0.92234156374E+02 -0.28698520597E+02  0.63154061687E+03  0.15294330000E+03 0. -1.
<mgrwt>
<rscale>  0 0.82291641E+03</rscale>
<asrwt>0</asrwt>
<pdfrwt beam="1">  1        2 0.85681326E-01 0.89913208E+03</pdfrwt>
<pdfrwt beam="2">  1       -2 0.18346483E+00 0.89913208E+03</pdfrwt>
<totfact> 0.93339960E+00</totfact>
</mgrwt>
</event>
<event>
 4    2  0.6914693E-007  0.6790412E+03  0.7818608E-02  0.1009871E+00
         -2   -1    0    0    0  501 -0.00000000000E+00  0.00000000000E+00  0.47596571522E+03  0.47596571523E+03  0.25500000000E-02 0.  1.
          2   -1    0    0  501    0  0.00000000000E+00 -0.00000000000E+00 -0.74284987205E+03  0.74284987205E+03  0.25500000000E-02 0. -1.
    8880023    1    1    2    0    0 -0.16498153473E+03  0.82340752861E+01  0.19372706497E+03  0.70613531902E+03  0.65864270000E+03 0. -1.
    8880022    1    1    2    0    0  0.16498153473E+03 -0.82340752861E+01 -0.46061122180E+03  0.51268026826E+03  0.15294330000E+03 0.  0.
<mgrwt>
<rscale>  0 0.51525818E+03</rscale>
<asrwt>0</asrwt>
<pdfrwt beam="1">  1        2 0.11428460E+00 0.67904117E+03</pdfrwt>
<pdfrwt beam="2">  1       -2 0.73225495E-01 0.67904117E+03</pdfrwt>
<totfact> 0.65101924E+01</totfact>
</mgrwt>
</event>
<event>
 4    2  0.6914693E-007  0.8866049E+03  0.7818608E-02  0.9547886E-01
         -2   -1    0    0    0  501 -0.00000000000E+00  0.00000000000E+00  0.88041322029E+03  0.88041322029E+03  0.25500000000E-02 0.  1.
          2   -1    0    0  501    0  0.00000000000E+00 -0.00000000000E+00 -0.12611779383E+04  0.12611779383E+04  0.25500000000E-02 0. -1.
    8880023    1    1    2    0    0 -0.29403350606E+03 -0.51556017487E+03 -0.95401394275E+03  0.13023865808E+04  0.65864270000E+03 0. -1.
    8880022    1    1    2    0    0  0.29403350606E+03  0.51556017487E+03  0.57324922479E+03  0.83920457776E+03  0.15294330000E+03 0.  0.
<mgrwt>
<rscale>  0 0.80843566E+03</rscale>
<asrwt>0</asrwt>
<pdfrwt beam="1">  1        2 0.19402737E+00 0.88660487E+03</pdfrwt>
<pdfrwt beam="2">  1       -2 0.13544819E+00 0.88660487E+03</pdfrwt>
<totfact> 0.68431237E+00</totfact>
</mgrwt>
</event>
<event>
 4    2  0.6914693E-007  0.9523015E+03  0.7818608E-02  0.9446810E-01
          2   -1    0    0  501    0  0.00000000000E+00  0.00000000000E+00  0.11749668316E+04  0.11749668317E+04  0.25500000000E-02 0. -1.
         -2   -1    0    0    0  501 -0.00000000000E+00 -0.00000000000E+00 -0.78371062326E+03  0.78371062326E+03  0.25500000000E-02 0.  1.
    8880023    1    1    2    0    0 -0.66363655975E+03  0.18070550461E+03 -0.27265721182E+03  0.99056555778E+03  0.65864270000E+03 0.  0.
    8880022    1    1    2    0    0  0.66363655975E+03 -0.18070550461E+03  0.66391342021E+03  0.96811189714E+03  0.15294330000E+03 0.  0.
<mgrwt>
<rscale>  0 0.88321482E+03</rscale>
<asrwt>0</asrwt>
<pdfrwt beam="1">  1        2 0.18076413E+00 0.95230151E+03</pdfrwt>
<pdfrwt beam="2">  1       -2 0.12057086E+00 0.95230151E+03</pdfrwt>
<totfact> 0.10259835E+01</totfact>
</mgrwt>
</event>
<event>
 4    2  0.6914693E-007  0.8037740E+03  0.7818608E-02  0.9702695E-01
          2   -1    0    0  501    0  0.00000000000E+00  0.00000000000E+00  0.27354887625E+03  0.27354887626E+03  0.25500000000E-02 0. -1.
         -2   -1    0    0    0  501 -0.00000000000E+00 -0.00000000000E+00 -0.15897553524E+04  0.15897553524E+04  0.25500000000E-02 0.  1.
    8880023    1    1    2    0    0  0.37523613899E+03 -0.26728308844E+03 -0.10041837002E+04  0.12862494002E+04  0.65864270000E+03 0. -1.
    8880022    1    1    2    0    0 -0.37523613899E+03  0.26728308844E+03 -0.31202277589E+03  0.57705482847E+03  0.15294330000E+03 0.  0.
<mgrwt>
<rscale>  0 0.70856585E+03</rscale>
<asrwt>0</asrwt>
<pdfrwt beam="1">  1        2 0.42084444E-01 0.80377398E+03</pdfrwt>
<pdfrwt beam="2">  1       -2 0.24457774E+00 0.80377398E+03</pdfrwt>
<totfact> 0.86150584E+00</totfact>
</mgrwt>
</event>
<event>
 4    2  0.6914693E-007  0.1005722E+04  0.7818608E-02  0.9374110E-01
         -2   -1    0    0    0  501 -0.00000000000E+00  0.00000000000E+00  0.56058230587E+03  0.56058230587E+03  0.25500000000E-02 0.  1.
          2   -1    0    0  501    0  0.00000000000E+00 -0.00000000000E+00 -0.17949660221E+04  0.17949660221E+04  0.25500000000E-02 0. -1.
    8880023    1    1    2    0    0  0.74032102929E+03  0.17201919769E+03 -0.12187186234E+04  0.15801111101E+04  0.65864270000E+03 0.  0.
    8880022    1    1    2    0    0 -0.74032102929E+03 -0.17201919769E+03 -0.15665092802E+02  0.77543721792E+03  0.15294330000E+03 0.  0.
<mgrwt>
<rscale>  0 0.94237303E+03</rscale>
<asrwt>0</asrwt>
<pdfrwt beam="1">  1        2 0.27614862E+00 0.10057216E+04</pdfrwt>
<pdfrwt beam="2">  1       -2 0.86243433E-01 0.10057216E+04</pdfrwt>
<totfact> 0.10108236E+01</totfact>
</mgrwt>
</event>
<event>
 4    2  0.6914693E-007  0.6760273E+03  0.7818608E-02  0.1011666E+00
         -2   -1    0    0    0  501 -0.00000000000E+00  0.00000000000E+00  0.12566767221E+03  0.12566767224E+03  0.25500000000E-02 0.  1.
          2   -1    0    0  501    0  0.00000000000E+00 -0.00000000000E+00 -0.23950149773E+04  0.23950149773E+04  0.25500000000E-02 0. -1.
    8880023    1    1    2    0    0  0.15166403755E+03  0.14167439754E+02 -0.85506557079E+03  0.10900229508E+04  0.65864270000E+03 0.  1.
    8880022    1    1    2    0    0 -0.15166403755E+03 -0.14167439754E+02 -0.14142817343E+04  0.14306596988E+04  0.15294330000E+03 0.  0.
<mgrwt>
<rscale>  0 0.50817680E+03</rscale>
<asrwt>0</asrwt>
<pdfrwt beam="1">  1        2 0.36846381E+00 0.67602729E+03</pdfrwt>
<pdfrwt beam="2">  1       -2 0.19333490E-01 0.67602729E+03</pdfrwt>
<totfact> 0.94703590E+01</totfact>
</mgrwt>
</event>
<event>
 4    2  0.6914693E-007  0.6790571E+03  0.7818608E-02  0.1009862E+00
          2   -1    0    0  501    0  0.00000000000E+00  0.00000000000E+00  0.21823075465E+04  0.21823075465E+04  0.25500000000E-02 0. -1.
         -2   -1    0    0    0  501 -0.00000000000E+00 -0.00000000000E+00 -0.36471789071E+03  0.36471789072E+03  0.25500000000E-02 0.  1.
    8880023    1    1    2    0    0  0.16359509174E+03 -0.23343924818E+02 -0.35807798126E+02  0.68000051289E+03  0.65864270000E+03 0.  1.
    8880022    1    1    2    0    0 -0.16359509174E+03  0.23343924818E+02  0.18533974539E+04  0.18670249243E+04  0.15294330000E+03 0.  0.
<mgrwt>
<rscale>  0 0.51529466E+03</rscale>
<asrwt>0</asrwt>
<pdfrwt beam="1">  1        2 0.33573962E+00 0.67905707E+03</pdfrwt>
<pdfrwt beam="2">  1       -2 0.56110445E-01 0.67905707E+03</pdfrwt>
<totfact> 0.16548901E+01</totfact>
</mgrwt>
</event>
<event>
 4    2  0.6914693E-007  0.7219810E+03  0.7818608E-02  0.9915939E-01
         -2   -1    0    0    0  501 -0.00000000000E+00  0.00000000000E+00  0.16104967207E+03  0.16104967209E+03  0.25500000000E-02 0.  1.
          2   -1    0    0  501    0  0.00000000000E+00 -0.00000000000E+00 -0.24840671563E+04  0.24840671563E+04  0.25500000000E-02 0. -1.
    8880023    1    1    2    0    0  0.13826632428E+03  0.26139764061E+03 -0.76487261962E+03  0.10518016132E+04  0.65864270000E+03 0.  1.
    8880022    1    1    2    0    0 -0.13826632428E+03 -0.26139764061E+03 -0.15581448646E+04  0.15933152152E+04  0.15294330000E+03 0.  0.
<mgrwt>
<rscale>  0 0.59494987E+03</rscale>
<asrwt>0</asrwt>
<pdfrwt beam="1">  1        2 0.38216415E+00 0.72198096E+03</pdfrwt>
<pdfrwt beam="2">  1       -2 0.24776874E-01 0.72198096E+03</pdfrwt>
<totfact> 0.54077866E+01</totfact>
</mgrwt>
</event>
<event>
 4    2  0.6914693E-007  0.7485898E+03  0.7818608E-02  0.9835597E-01
         -2   -1    0    0    0  501 -0.00000000000E+00  0.00000000000E+00  0.33821072838E+03  0.33821072839E+03  0.25500000000E-02 0.  1.
          2   -1    0    0  501    0  0.00000000000E+00 -0.00000000000E+00 -0.17634458240E+04  0.17634458240E+04  0.25500000000E-02 0. -1.
    8880023    1    1    2    0    0 -0.35363169232E+03 -0.39000496601E+02 -0.14287976638E+03  0.76210317310E+03  0.65864270000E+03 0.  0.
    8880022    1    1    2    0    0  0.35363169232E+03  0.39000496601E+02 -0.12823553293E+04  0.13395533793E+04  0.15294330000E+03 0.  0.
<mgrwt>
<rscale>  0 0.63486701E+03</rscale>
<asrwt>0</asrwt>
<pdfrwt beam="1">  1        2 0.27129935E+00 0.74858975E+03</pdfrwt>
<pdfrwt beam="2">  1       -2 0.52032421E-01 0.74858975E+03</pdfrwt>
<totfact> 0.32409193E+01</totfact>
</mgrwt>
</event>
<event>
 4    2  0.6914693E-007  0.8086734E+03  0.7818608E-02  0.9692347E-01
          2   -1    0    0  501    0  0.00000000000E+00  0.00000000000E+00  0.28585067826E+04  0.28585067826E+04  0.25500000000E-02 0. -1.
         -2   -1    0    0    0  501 -0.00000000000E+00 -0.00000000000E+00 -0.15915947030E+03  0.15915947032E+03  0.25500000000E-02 0.  1.
    8880023    1    1    2    0    0  0.36308225498E+03  0.29717625025E+03  0.12707967216E+04  0.15062791778E+04  0.65864270000E+03 0.  0.
    8880022    1    1    2    0    0 -0.36308225498E+03 -0.29717625025E+03  0.14285505908E+04  0.15113870752E+04  0.15294330000E+03 0.  0.
<mgrwt>
<rscale>  0 0.71474288E+03</rscale>
<asrwt>0</asrwt>
<pdfrwt beam="1">  1        2 0.43977025E+00 0.80867339E+03</pdfrwt>
<pdfrwt beam="2">  1       -2 0.24486074E-01 0.80867339E+03</pdfrwt>
<totfact> 0.33089678E+01</totfact>
</mgrwt>
</event>
<event>
 4    2  0.6914693E-007  0.7226523E+03  0.7818608E-02  0.9913711E-01
          2   -1    0    0  501    0  0.00000000000E+00  0.00000000000E+00  0.26314350492E+04  0.26314350492E+04  0.25500000000E-02 0. -1.
         -2   -1    0    0    0  501 -0.00000000000E+00 -0.00000000000E+00 -0.20654690139E+03  0.20654690140E+03  0.25500000000E-02 0.  1.
    8880023    1    1    2    0    0 -0.29730278111E+03  0.52198498782E+01  0.48694240916E+03  0.87140077266E+03  0.65864270000E+03 0.  0.
    8880022    1    1    2    0    0  0.29730278111E+03 -0.52198498782E+01  0.19379457387E+04  0.19665811780E+04  0.15294330000E+03 0. -1.
<mgrwt>
<rscale>  0 0.59601349E+03</rscale>
<asrwt>0</asrwt>
<pdfrwt beam="1">  1        2 0.40483615E+00 0.72265233E+03</pdfrwt>
<pdfrwt beam="2">  1       -2 0.31776447E-01 0.72265233E+03</pdfrwt>
<totfact> 0.28219153E+01</totfact>
</mgrwt>
</event>
<event>
 4    2  0.6914693E-007  0.1301015E+04  0.7818608E-02  0.9064684E-01
          2   -1    0    0  501    0  0.00000000000E+00  0.00000000000E+00  0.18577732778E+04  0.18577732778E+04  0.25500000000E-02 0. -1.
         -2   -1    0    0    0  501 -0.00000000000E+00 -0.00000000000E+00 -0.10979382870E+04  0.10979382871E+04  0.25500000000E-02 0.  1.
    8880023    1    1    2    0    0  0.39229120787E+03  0.10511595528E+04 -0.37356390396E+03  0.13535837595E+04  0.65864270000E+03 0.  0.
    8880022    1    1    2    0    0 -0.39229120787E+03 -0.10511595528E+04  0.11333988948E+04  0.16021278054E+04  0.15294330000E+03 0.  0.
<mgrwt>
<rscale>  0 0.12566287E+04</rscale>
<asrwt>0</asrwt>
<pdfrwt beam="1">  1        2 0.28581127E+00 0.13010146E+04</pdfrwt>
<pdfrwt beam="2">  1       -2 0.16891358E+00 0.13010146E+04</pdfrwt>
<totfact> 0.16709053E+00</totfact>
</mgrwt>
</event>
<event>
 4    2  0.6914693E-007  0.7548825E+03  0.7818608E-02  0.9818541E-01
         -2   -1    0    0    0  501 -0.00000000000E+00  0.00000000000E+00  0.23092672541E+03  0.23092672543E+03  0.25500000000E-02 0.  1.
          2   -1    0    0  501    0  0.00000000000E+00 -0.00000000000E+00 -0.14421929774E+04  0.14421929774E+04  0.25500000000E-02 0. -1.
    8880023    1    1    2    0    0  0.50785874761E+02  0.36531922594E+03 -0.78689342340E+03  0.10904351462E+04  0.65864270000E+03 0. -1.
    8880022    1    1    2    0    0 -0.50785874761E+02 -0.36531922594E+03 -0.42437282855E+03  0.58268455664E+03  0.15294330000E+03 0. -1.
<mgrwt>
<rscale>  0 0.64376953E+03</rscale>
<asrwt>0</asrwt>
<pdfrwt beam="1">  1        2 0.22187584E+00 0.75488247E+03</pdfrwt>
<pdfrwt beam="2">  1       -2 0.35527189E-01 0.75488247E+03</pdfrwt>
<totfact> 0.10362979E+02</totfact>
</mgrwt>
</event>
<event>
 4    2  0.6914693E-007  0.8563337E+03  0.7818608E-02  0.9600119E-01
          2   -1    0    0  501    0  0.00000000000E+00  0.00000000000E+00  0.14760050238E+04  0.14760050238E+04  0.25500000000E-02 0. -1.
         -2   -1    0    0    0  501 -0.00000000000E+00 -0.00000000000E+00 -0.59448052120E+03  0.59448052120E+03  0.25500000000E-02 0.  1.
    8880023    1    1    2    0    0 -0.53704529570E+03  0.10525966942E+03 -0.17204787606E+03  0.87344600609E+03  0.65864270000E+03 0.  0.
    8880022    1    1    2    0    0  0.53704529570E+03 -0.10525966942E+03  0.10535723787E+04  0.11970395389E+04  0.15294330000E+03 0.  0.
<mgrwt>
<rscale>  0 0.77288331E+03</rscale>
<asrwt>0</asrwt>
<pdfrwt beam="1">  1        2 0.22707769E+00 0.85633373E+03</pdfrwt>
<pdfrwt beam="2">  1       -2 0.91458542E-01 0.85633373E+03</pdfrwt>
<totfact> 0.13481409E+01</totfact>
</mgrwt>
</event>
<event>
 4    2  0.6914693E-007  0.7479486E+03  0.7818608E-02  0.9837370E-01
         -2   -1    0    0    0  501 -0.00000000000E+00  0.00000000000E+00  0.35283543089E+04  0.35283543089E+04  0.25500000000E-02 0.  1.
          2   -1    0    0  501    0  0.00000000000E+00 -0.00000000000E+00 -0.31520124475E+03  0.31520124476E+03  0.25500000000E-02 0. -1.
    8880023    1    1    2    0    0 -0.40780149124E+02 -0.35207084542E+03  0.33511582943E+04  0.34336116583E+04  0.65864270000E+03 0.  1.
    8880022    1    1    2    0    0  0.40780149124E+02  0.35207084542E+03 -0.13800523012E+03  0.40994389532E+03  0.15294330000E+03 0.  0.
<mgrwt>
<rscale>  0 0.63395030E+03</rscale>
<asrwt>0</asrwt>
<pdfrwt beam="1">  1        2 0.48492500E-01 0.74794860E+03</pdfrwt>
<pdfrwt beam="2">  1       -2 0.54282373E+00 0.74794860E+03</pdfrwt>
<totfact> 0.10055466E-01</totfact>
</mgrwt>
</event>
<event>
 4    2  0.6914693E-007  0.6864177E+03  0.7818608E-02  0.1005904E+00
          2   -1    0    0  501    0  0.00000000000E+00  0.00000000000E+00  0.14019281069E+04  0.14019281069E+04  0.25500000000E-02 0. -1.
         -2   -1    0    0    0  501 -0.00000000000E+00 -0.00000000000E+00 -0.18284631990E+03  0.18284631991E+03  0.25500000000E-02 0.  1.
    8880023    1    1    2    0    0  0.61395270245E+02  0.18327482617E+03  0.57598506374E+03  0.89606252071E+03  0.65864270000E+03 0.  1.
    8880022    1    1    2    0    0 -0.61395270245E+02 -0.18327482617E+03  0.64309672322E+03  0.68871190606E+03  0.15294330000E+03 0. -1.
<mgrwt>
<rscale>  0 0.53135559E+03</rscale>
<asrwt>0</asrwt>
<pdfrwt beam="1">  1        2 0.21568125E+00 0.68641769E+03</pdfrwt>
<pdfrwt beam="2">  1       -2 0.28130202E-01 0.68641769E+03</pdfrwt>
<totfact> 0.16997671E+02</totfact>
</mgrwt>
</event>
<event>
 4    2  0.6914693E-007  0.6975123E+03  0.7818608E-02  0.1000768E+00
         -2   -1    0    0    0  501 -0.00000000000E+00  0.00000000000E+00  0.10888492688E+03  0.10888492691E+03  0.25500000000E-02 0.  1.
          2   -1    0    0  501    0  0.00000000000E+00 -0.00000000000E+00 -0.27423358013E+04  0.27423358013E+04  0.25500000000E-02 0. -1.
    8880023    1    1    2    0    0 -0.54889015617E+02  0.22293600232E+03 -0.11711675486E+04  0.13631422884E+04  0.65864270000E+03 0.  0.
    8880022    1    1    2    0    0  0.54889015617E+02 -0.22293600232E+03 -0.14622833258E+04  0.14880784398E+04  0.15294330000E+03 0.  0.
<mgrwt>
<rscale>  0 0.55314694E+03</rscale>
<asrwt>0</asrwt>
<pdfrwt beam="1">  1        2 0.42189776E+00 0.69751234E+03</pdfrwt>
<pdfrwt beam="2">  1       -2 0.16751529E-01 0.69751234E+03</pdfrwt>
<totfact> 0.76602698E+01</totfact>
</mgrwt>
</event>
<event>
 4    2  0.6914693E-007  0.7332477E+03  0.7818608E-02  0.9880071E-01
         -2   -1    0    0    0  501 -0.00000000000E+00  0.00000000000E+00  0.42729018681E+03  0.42729018682E+03  0.25500000000E-02 0.  1.
          2   -1    0    0  501    0  0.00000000000E+00 -0.00000000000E+00 -0.94337281069E+03  0.94337281069E+03  0.25500000000E-02 0. -1.
    8880023    1    1    2    0    0 -0.27500560239E+03  0.16796981015E+03  0.12063398901E+02  0.73334689631E+03  0.65864270000E+03 0.  1.
    8880022    1    1    2    0    0  0.27500560239E+03 -0.16796981015E+03 -0.52814602278E+03  0.63731610121E+03  0.15294330000E+03 0.  0.
<mgrwt>
<rscale>  0 0.61236906E+03</rscale>
<asrwt>0</asrwt>
<pdfrwt beam="1">  1        2 0.14513428E+00 0.73324767E+03</pdfrwt>
<pdfrwt beam="2">  1       -2 0.65736952E-01 0.73324767E+03</pdfrwt>
<totfact> 0.59371115E+01</totfact>
</mgrwt>
</event>
<event>
 4    2  0.6914693E-007  0.1321972E+04  0.7818608E-02  0.9046814E-01
          2   -1    0    0  501    0  0.00000000000E+00  0.00000000000E+00  0.88922168489E+03  0.88922168489E+03  0.25500000000E-02 0. -1.
         -2   -1    0    0    0  501 -0.00000000000E+00 -0.00000000000E+00 -0.18112599468E+04  0.18112599468E+04  0.25500000000E-02 0.  1.
    8880023    1    1    2    0    0 -0.72918118887E+03 -0.88436142115E+03 -0.19950963980E+03  0.13369422695E+04  0.65864270000E+03 0. -1.
    8880022    1    1    2    0    0  0.72918118887E+03  0.88436142115E+03 -0.72252862213E+03  0.13635393622E+04  0.15294330000E+03 0.  1.
<mgrwt>
<rscale>  0 0.12784712E+04</rscale>
<asrwt>0</asrwt>
<pdfrwt beam="1">  1        2 0.13680334E+00 0.13219722E+04</pdfrwt>
<pdfrwt beam="2">  1       -2 0.27865538E+00 0.13219722E+04</pdfrwt>
<totfact> 0.12354886E+00</totfact>
</mgrwt>
</event>
<event>
 4    2  0.6914693E-007  0.6634163E+03  0.7818608E-02  0.1020901E+00
          2   -1    0    0  501    0  0.00000000000E+00  0.00000000000E+00  0.62668034725E+03  0.62668034725E+03  0.25500000000E-02 0. -1.
         -2   -1    0    0    0  501 -0.00000000000E+00 -0.00000000000E+00 -0.45272022602E+03  0.45272022602E+03  0.25500000000E-02 0.  1.
    8880023    1    1    2    0    0 -0.71081227137E+02 -0.35474423066E+02 -0.17854313116E+03  0.68702171108E+03  0.65864270000E+03 0.  1.
    8880022    1    1    2    0    0  0.71081227137E+02  0.35474423066E+02  0.35250325239E+03  0.39237886220E+03  0.15294330000E+03 0.  0.
<mgrwt>
<rscale>  0 0.47362974E+03</rscale>
<asrwt>0</asrwt>
<pdfrwt beam="1">  1        2 0.96412361E-01 0.66341630E+03</pdfrwt>
<pdfrwt beam="2">  1       -2 0.69649266E-01 0.66341630E+03</pdfrwt>
<totfact> 0.89936526E+01</totfact>
</mgrwt>
</event>
<event>
 4    2  0.6914693E-007  0.9928104E+03  0.7818608E-02  0.9391025E-01
         -2   -1    0    0    0  501 -0.00000000000E+00  0.00000000000E+00  0.61969455760E+03  0.61969455760E+03  0.25500000000E-02 0.  1.
          2   -1    0    0  501    0  0.00000000000E+00 -0.00000000000E+00 -0.23293050699E+04  0.23293050699E+04  0.25500000000E-02 0. -1.
    8880023    1    1    2    0    0  0.25639361154E+03 -0.69722632956E+03  0.89218577842E+02  0.99681111529E+03  0.65864270000E+03 0.  1.
    8880022    1    1    2    0    0 -0.25639361154E+03  0.69722632956E+03 -0.17988290901E+04  0.19521885122E+04  0.15294330000E+03 0.  0.
<mgrwt>
<rscale>  0 0.92817994E+03</rscale>
<asrwt>0</asrwt>
<pdfrwt beam="1">  1        2 0.35835462E+00 0.99281038E+03</pdfrwt>
<pdfrwt beam="2">  1       -2 0.95337625E-01 0.99281038E+03</pdfrwt>
<totfact> 0.40603362E+00</totfact>
</mgrwt>
</event>
<event>
 4    2  0.6914693E-007  0.9720844E+03  0.7818608E-02  0.9419027E-01
          2   -1    0    0  501    0  0.00000000000E+00  0.00000000000E+00  0.79762079497E+03  0.79762079497E+03  0.25500000000E-02 0. -1.
         -2   -1    0    0    0  501 -0.00000000000E+00 -0.00000000000E+00 -0.97775848240E+03  0.97775848240E+03  0.25500000000E-02 0.  1.
    8880023    1    1    2    0    0  0.60686201390E+03  0.37796333237E+03  0.13088785316E+03  0.98085657509E+03  0.65864270000E+03 0.  0.
    8880022    1    1    2    0    0 -0.60686201390E+03 -0.37796333237E+03 -0.31102554059E+03  0.79452270228E+03  0.15294330000E+03 0.  0.
<mgrwt>
<rscale>  0 0.90526227E+03</rscale>
<asrwt>0</asrwt>
<pdfrwt beam="1">  1        2 0.12271089E+00 0.97208435E+03</pdfrwt>
<pdfrwt beam="2">  1       -2 0.15042438E+00 0.97208435E+03</pdfrwt>
<totfact> 0.10225985E+01</totfact>
</mgrwt>
</event>
<event>
 4    2  0.6914693E-007  0.8587538E+03  0.7818608E-02  0.9595784E-01
         -2   -1    0    0    0  501 -0.00000000000E+00  0.00000000000E+00  0.60443731688E+03  0.60443731689E+03  0.25500000000E-02 0.  1.
          2   -1    0    0  501    0  0.00000000000E+00 -0.00000000000E+00 -0.22428851171E+04  0.22428851171E+04  0.25500000000E-02 0. -1.
    8880023    1    1    2    0    0  0.55014199044E+03  0.31490045463E+02  0.23353067316E+03  0.88994079251E+03  0.65864270000E+03 0.  1.
    8880022    1    1    2    0    0 -0.55014199044E+03 -0.31490045463E+02 -0.18719784733E+04  0.19573816415E+04  0.15294330000E+03 0.  0.
<mgrwt>
<rscale>  0 0.77575845E+03</rscale>
<asrwt>0</asrwt>
<pdfrwt beam="1">  1        2 0.34505924E+00 0.85875377E+03</pdfrwt>
<pdfrwt beam="2">  1       -2 0.92990358E-01 0.85875377E+03</pdfrwt>
<totfact> 0.49013948E+00</totfact>
</mgrwt>
</event>
<event>
 4    2  0.6914693E-007  0.1104042E+04  0.7818608E-02  0.9256569E-01
          2   -1    0    0  501    0  0.00000000000E+00  0.00000000000E+00  0.95341171587E+03  0.95341171588E+03  0.25500000000E-02 0. -1.
         -2   -1    0    0    0  501 -0.00000000000E+00 -0.00000000000E+00 -0.16952478922E+04  0.16952478922E+04  0.25500000000E-02 0.  1.
    8880023    1    1    2    0    0 -0.30764426768E+03  0.83093562088E+03 -0.12074404222E+04  0.16360995021E+04  0.65864270000E+03 0.  0.
    8880022    1    1    2    0    0  0.30764426768E+03 -0.83093562088E+03  0.46560424582E+03  0.10125601060E+04  0.15294330000E+03 0.  0.
<mgrwt>
<rscale>  0 0.10488144E+04</rscale>
<asrwt>0</asrwt>
<pdfrwt beam="1">  1        2 0.14667873E+00 0.11040422E+04</pdfrwt>
<pdfrwt beam="2">  1       -2 0.26080737E+00 0.11040422E+04</pdfrwt>
<totfact> 0.14687309E+00</totfact>
</mgrwt>
</event>
<event>
 4    2  0.6914693E-007  0.1137009E+04  0.7818608E-02  0.9220929E-01
          2   -1    0    0  501    0  0.00000000000E+00  0.00000000000E+00  0.82884251622E+03  0.82884251623E+03  0.25500000000E-02 0. -1.
         -2   -1    0    0    0  501 -0.00000000000E+00 -0.00000000000E+00 -0.14248058107E+04  0.14248058107E+04  0.25500000000E-02 0.  1.
    8880023    1    1    2    0    0  0.46124864822E+03  0.80388316028E+03 -0.65548092600E+03  0.13124191028E+04  0.65864270000E+03 0.  1.
    8880022    1    1    2    0    0 -0.46124864822E+03 -0.80388316028E+03  0.59517631505E+02  0.94122922412E+03  0.15294330000E+03 0. -1.
<mgrwt>
<rscale>  0 0.10839997E+04</rscale>
<asrwt>0</asrwt>
<pdfrwt beam="1">  1        2 0.12751423E+00 0.11370086E+04</pdfrwt>
<pdfrwt beam="2">  1       -2 0.21920089E+00 0.11370086E+04</pdfrwt>
<totfact> 0.32204669E+00</totfact>
</mgrwt>
</event>
<event>
 4    2  0.6914693E-007  0.7287862E+03  0.7818608E-02  0.9893905E-01
         -2   -1    0    0    0  501 -0.00000000000E+00  0.00000000000E+00  0.61952504166E+03  0.61952504167E+03  0.25500000000E-02 0.  1.
          2   -1    0    0  501    0  0.00000000000E+00 -0.00000000000E+00 -0.60876873357E+03  0.60876873358E+03  0.25500000000E-02 0. -1.
    8880023    1    1    2    0    0 -0.26710818864E+03 -0.16115946653E+03  0.28817296382E+03  0.78369191742E+03  0.65864270000E+03 0.  1.
    8880022    1    1    2    0    0  0.26710818864E+03  0.16115946653E+03 -0.27741665573E+03  0.44460185782E+03  0.15294330000E+03 0.  0.
<mgrwt>
<rscale>  0 0.60557563E+03</rscale>
<asrwt>0</asrwt>
<pdfrwt beam="1">  1        2 0.93656728E-01 0.72878623E+03</pdfrwt>
<pdfrwt beam="2">  1       -2 0.95311545E-01 0.72878623E+03</pdfrwt>
<totfact> 0.45701779E+01</totfact>
</mgrwt>
</event>
<event>
 4    2  0.6914693E-007  0.7146123E+03  0.7818608E-02  0.9941256E-01
         -2   -1    0    0    0  501 -0.00000000000E+00  0.00000000000E+00  0.67550459225E+02  0.67550459273E+02  0.25500000000E-02 0.  1.
          2   -1    0    0  501    0  0.00000000000E+00 -0.00000000000E+00 -0.40893649877E+04  0.40893649877E+04  0.25500000000E-02 0. -1.
    8880023    1    1    2    0    0  0.26936651052E+03 -0.65591644549E+02 -0.23850084971E+04  0.24897663180E+04  0.65864270000E+03 0.  1.
    8880022    1    1    2    0    0 -0.26936651052E+03  0.65591644549E+02 -0.16368060314E+04  0.16671491290E+04  0.15294330000E+03 0.  0.
<mgrwt>
<rscale>  0 0.58302830E+03</rscale>
<asrwt>0</asrwt>
<pdfrwt beam="1">  1        2 0.62913288E+00 0.71461233E+03</pdfrwt>
<pdfrwt beam="2">  1       -2 0.10392382E-01 0.71461233E+03</pdfrwt>
<totfact> 0.20733720E+01</totfact>
</mgrwt>
</event>
<event>
 4    2  0.6914693E-007  0.7542095E+03  0.7818608E-02  0.9820336E-01
          2   -1    0    0  501    0  0.00000000000E+00  0.00000000000E+00  0.29605301189E+04  0.29605301189E+04  0.25500000000E-02 0. -1.
         -2   -1    0    0    0  501 -0.00000000000E+00 -0.00000000000E+00 -0.13305758741E+03  0.13305758743E+03  0.25500000000E-02 0.  1.
    8880023    1    1    2    0    0 -0.34807162432E+03 -0.11776210449E+03  0.11934597604E+04  0.14117996228E+04  0.65864270000E+03 0.  1.
    8880022    1    1    2    0    0  0.34807162432E+03  0.11776210449E+03  0.16340127711E+04  0.16817880836E+04  0.15294330000E+03 0.  0.
<mgrwt>
<rscale>  0 0.64282535E+03</rscale>
<asrwt>0</asrwt>
<pdfrwt beam="1">  1        2 0.45546618E+00 0.75420950E+03</pdfrwt>
<pdfrwt beam="2">  1       -2 0.20470398E-01 0.75420950E+03</pdfrwt>
<totfact> 0.39801929E+01</totfact>
</mgrwt>
</event>
<event>
 4    2  0.9678561E-007  0.7040498E+03  0.7818608E-02  0.9980798E-01
          2   -1    0    0  501    0  0.00000000000E+00  0.00000000000E+00  0.16364079421E+04  0.16364079421E+04  0.25500000000E-02 0. -1.
         -2   -1    0    0    0  501 -0.00000000000E+00 -0.00000000000E+00 -0.11242231587E+04  0.11242231587E+04  0.25500000000E-02 0.  1.
    8880023    1    1    2    0    0  0.24315077422E+03 -0.52475329850E+02 -0.99862635036E+03  0.12218595472E+04  0.65864270000E+03 0.  1.
    8880022    1    1    2    0    0 -0.24315077422E+03  0.52475329850E+02  0.15108111337E+04  0.15387715536E+04  0.15294330000E+03 0.  0.
<mgrwt>
<rscale>  0 0.56500275E+03</rscale>
<asrwt>0</asrwt>
<pdfrwt beam="1">  1        2 0.25175507E+00 0.70404983E+03</pdfrwt>
<pdfrwt beam="2">  1       -2 0.17295741E+00 0.70404983E+03</pdfrwt>
<totfact> 0.22478088E+00</totfact>
</mgrwt>
</event>
<event>
 4    2  0.6914693E-007  0.7730950E+03  0.7818608E-02  0.9772314E-01
         -2   -1    0    0    0  501 -0.00000000000E+00  0.00000000000E+00  0.24930817308E+03  0.24930817309E+03  0.25500000000E-02 0.  1.
          2   -1    0    0  501    0  0.00000000000E+00 -0.00000000000E+00 -0.17073368730E+04  0.17073368730E+04  0.25500000000E-02 0. -1.
    8880023    1    1    2    0    0  0.27794486877E+02 -0.40384785227E+03 -0.12656282748E+04  0.14830680219E+04  0.65864270000E+03 0.  0.
    8880022    1    1    2    0    0 -0.27794486877E+02  0.40384785227E+03 -0.19240042518E+03  0.47357702426E+03  0.15294330000E+03 0.  0.
<mgrwt>
<rscale>  0 0.66869715E+03</rscale>
<asrwt>0</asrwt>
<pdfrwt beam="1">  1        2 0.26266720E+00 0.77309497E+03</pdfrwt>
<pdfrwt beam="2">  1       -2 0.38355105E-01 0.77309497E+03</pdfrwt>
<totfact> 0.63687628E+01</totfact>
</mgrwt>
</event>
<event>
 4    2  0.6914693E-007  0.8246086E+03  0.7818608E-02  0.9659915E-01
         -2   -1    0    0    0  501 -0.00000000000E+00  0.00000000000E+00  0.11004747429E+04  0.11004747429E+04  0.25500000000E-02 0.  1.
          2   -1    0    0  501    0  0.00000000000E+00 -0.00000000000E+00 -0.69052302044E+03  0.69052302045E+03  0.25500000000E-02 0. -1.
    8880023    1    1    2    0    0 -0.38794860816E+03  0.30929771021E+03  0.79436231645E+03  0.11449851057E+04  0.65864270000E+03 0.  1.
    8880022    1    1    2    0    0  0.38794860816E+03 -0.30929771021E+03 -0.38441059399E+03  0.64601265770E+03  0.15294330000E+03 0.  0.
<mgrwt>
<rscale>  0 0.73454433E+03</rscale>
<asrwt>0</asrwt>
<pdfrwt beam="1">  1        2 0.10623431E+00 0.82460864E+03</pdfrwt>
<pdfrwt beam="2">  1       -2 0.16930380E+00 0.82460864E+03</pdfrwt>
<totfact> 0.90656976E+00</totfact>
</mgrwt>
</event>
<event>
 4    2  0.6914693E-007  0.1037851E+04  0.7818608E-02  0.9333631E-01
         -2   -1    0    0    0  501 -0.00000000000E+00  0.00000000000E+00  0.71752287559E+03  0.71752287559E+03  0.25500000000E-02 0.  1.
          2   -1    0    0  501    0  0.00000000000E+00 -0.00000000000E+00 -0.16708324151E+04  0.16708324151E+04  0.25500000000E-02 0. -1.
    8880023    1    1    2    0    0 -0.71769570273E+03  0.35810191302E+03  0.11448391241E+03  0.10441460024E+04  0.65864270000E+03 0.  1.
    8880022    1    1    2    0    0  0.71769570273E+03 -0.35810191302E+03 -0.10677934519E+04  0.13442092883E+04  0.15294330000E+03 0.  0.
<mgrwt>
<rscale>  0 0.97744828E+03</rscale>
<asrwt>0</asrwt>
<pdfrwt beam="1">  1        2 0.25705114E+00 0.10378508E+04</pdfrwt>
<pdfrwt beam="2">  1       -2 0.11038813E+00 0.10378508E+04</pdfrwt>
<totfact> 0.65786569E+00</totfact>
</mgrwt>
</event>
<event>
 4    2  0.6914693E-007  0.6763628E+03  0.7818608E-02  0.1011461E+00
          2   -1    0    0  501    0  0.00000000000E+00  0.00000000000E+00  0.22747138169E+04  0.22747138169E+04  0.25500000000E-02 0. -1.
         -2   -1    0    0    0  501 -0.00000000000E+00 -0.00000000000E+00 -0.16395009295E+03  0.16395009297E+03  0.25500000000E-02 0.  1.
    8880023    1    1    2    0    0 -0.95000655073E+02 -0.12096002246E+03  0.57525392829E+03  0.88790975880E+03  0.65864270000E+03 0.  1.
    8880022    1    1    2    0    0  0.95000655073E+02  0.12096002246E+03  0.15355097957E+04  0.15507541511E+04  0.15294330000E+03 0.  0.
<mgrwt>
<rscale>  0 0.50898216E+03</rscale>
<asrwt>0</asrwt>
<pdfrwt beam="1">  1        2 0.34995594E+00 0.67636282E+03</pdfrwt>
<pdfrwt beam="2">  1       -2 0.25223093E-01 0.67636282E+03</pdfrwt>
<totfact> 0.68974046E+01</totfact>
</mgrwt>
</event>
<event>
 4    2  0.6914693E-007  0.6593410E+03  0.7818608E-02  0.1024842E+00
          2   -1    0    0  501    0  0.00000000000E+00  0.00000000000E+00  0.38503644965E+04  0.38503644965E+04  0.25500000000E-02 0. -1.
         -2   -1    0    0    0  501 -0.00000000000E+00 -0.00000000000E+00 -0.60610469684E+02  0.60610469737E+02  0.25500000000E-02 0.  1.
    8880023    1    1    2    0    0  0.30007444477E+02 -0.44669290161E+01  0.18322826804E+04  0.19473033732E+04  0.65864270000E+03 0.  1.
    8880022    1    1    2    0    0 -0.30007444477E+02  0.44669290161E+01  0.19574713464E+04  0.19636715930E+04  0.15294330000E+03 0.  0.
<mgrwt>
<rscale>  0 0.45979081E+03</rscale>
<asrwt>0</asrwt>
<pdfrwt beam="1">  1        2 0.59236378E+00 0.65934104E+03</pdfrwt>
<pdfrwt beam="2">  1       -2 0.93246875E-02 0.65934104E+03</pdfrwt>
<totfact> 0.38383961E+01</totfact>
</mgrwt>
</event>
<event>
 4    2  0.6914693E-007  0.1173676E+04  0.7818608E-02  0.9183146E-01
          2   -1    0    0  501    0  0.00000000000E+00  0.00000000000E+00  0.19657040447E+04  0.19657040447E+04  0.25500000000E-02 0. -1.
         -2   -1    0    0    0  501 -0.00000000000E+00 -0.00000000000E+00 -0.74980442320E+03  0.74980442320E+03  0.25500000000E-02 0.  1.
    8880023    1    1    2    0    0 -0.74588861333E+03  0.62237806838E+03  0.12716821862E+04  0.17305172846E+04  0.65864270000E+03 0. -1.
    8880022    1    1    2    0    0  0.74588861333E+03 -0.62237806838E+03 -0.55782564720E+02  0.98499118323E+03  0.15294330000E+03 0.  0.
<mgrwt>
<rscale>  0 0.11229095E+04</rscale>
<asrwt>0</asrwt>
<pdfrwt beam="1">  1        2 0.30241601E+00 0.11736756E+04</pdfrwt>
<pdfrwt beam="2">  1       -2 0.11535453E+00 0.11736756E+04</pdfrwt>
<totfact> 0.40013630E+00</totfact>
</mgrwt>
</event>
<event>
 4    2  0.6914693E-007  0.8568378E+03  0.7818608E-02  0.9599213E-01
          2   -1    0    0  501    0  0.00000000000E+00  0.00000000000E+00  0.18079024162E+04  0.18079024162E+04  0.25500000000E-02 0. -1.
         -2   -1    0    0    0  501 -0.00000000000E+00 -0.00000000000E+00 -0.37743987654E+03  0.37743987655E+03  0.25500000000E-02 0.  1.
    8880023    1    1    2    0    0 -0.43388534648E+03 -0.33481982200E+03  0.27925483732E+03  0.90119602613E+03  0.65864270000E+03 0.  1.
    8880022    1    1    2    0    0  0.43388534648E+03  0.33481982200E+03  0.11512077023E+04  0.12841462666E+04  0.15294330000E+03 0.  0.
<mgrwt>
<rscale>  0 0.77348269E+03</rscale>
<asrwt>0</asrwt>
<pdfrwt beam="1">  1        2 0.27813883E+00 0.85683780E+03</pdfrwt>
<pdfrwt beam="2">  1       -2 0.58067673E-01 0.85683780E+03</pdfrwt>
<totfact> 0.24092257E+01</totfact>
</mgrwt>
</event>
<event>
 4    2  0.6914693E-007  0.6917960E+03  0.7818608E-02  0.1003310E+00
         -2   -1    0    0    0  501 -0.00000000000E+00  0.00000000000E+00  0.63281513553E+03  0.63281513553E+03  0.25500000000E-02 0.  1.
          2   -1    0    0  501    0  0.00000000000E+00 -0.00000000000E+00 -0.10415823102E+04  0.10415823102E+04  0.25500000000E-02 0. -1.
    8880023    1    1    2    0    0 -0.20629001375E+03  0.47073749594E+02  0.41739725377E+03  0.80796174500E+03  0.65864270000E+03 0.  1.
    8880022    1    1    2    0    0  0.20629001375E+03 -0.47073749594E+02 -0.82616442842E+03  0.86643570072E+03  0.15294330000E+03 0.  0.
<mgrwt>
<rscale>  0 0.54222215E+03</rscale>
<asrwt>0</asrwt>
<pdfrwt beam="1">  1        2 0.16024343E+00 0.69179601E+03</pdfrwt>
<pdfrwt beam="2">  1       -2 0.97356175E-01 0.69179601E+03</pdfrwt>
<totfact> 0.21340572E+01</totfact>
</mgrwt>
</event>
<event>
 4    2  0.6914693E-007  0.7953669E+03  0.7818608E-02  0.9720905E-01
          2   -1    0    0  501    0  0.00000000000E+00  0.00000000000E+00  0.93429105485E+03  0.93429105485E+03  0.25500000000E-02 0. -1.
         -2   -1    0    0    0  501 -0.00000000000E+00 -0.00000000000E+00 -0.54535943895E+03  0.54535943896E+03  0.25500000000E-02 0.  1.
    8880023    1    1    2    0    0  0.42844876207E+03  0.12340973768E+03 -0.98662863691E+02  0.80146295735E+03  0.65864270000E+03 0.  1.
    8880022    1    1    2    0    0 -0.42844876207E+03 -0.12340973768E+03  0.48759447959E+03  0.67818753646E+03  0.15294330000E+03 0.  0.
<mgrwt>
<rscale>  0 0.69785660E+03</rscale>
<asrwt>0</asrwt>
<pdfrwt beam="1">  1        2 0.14373709E+00 0.79536690E+03</pdfrwt>
<pdfrwt beam="2">  1       -2 0.83901452E-01 0.79536690E+03</pdfrwt>
<totfact> 0.34899786E+01</totfact>
</mgrwt>
</event>
<event>
 4    2  0.6914693E-007  0.7738102E+03  0.7818608E-02  0.9770583E-01
         -2   -1    0    0    0  501 -0.00000000000E+00  0.00000000000E+00  0.30752532727E+03  0.30752532728E+03  0.25500000000E-02 0.  1.
          2   -1    0    0  501    0  0.00000000000E+00 -0.00000000000E+00 -0.15238797681E+04  0.15238797681E+04  0.25500000000E-02 0. -1.
    8880023    1    1    2    0    0 -0.41352260985E+02  0.40405687552E+03 -0.32360696470E+03  0.83875123965E+03  0.65864270000E+03 0.  0.
    8880022    1    1    2    0    0  0.41352260985E+02 -0.40405687552E+03 -0.89274747614E+03  0.99265385574E+03  0.15294330000E+03 0.  0.
<mgrwt>
<rscale>  0 0.66965398E+03</rscale>
<asrwt>0</asrwt>
<pdfrwt beam="1">  1        2 0.23444304E+00 0.77381017E+03</pdfrwt>
<pdfrwt beam="2">  1       -2 0.47311590E-01 0.77381017E+03</pdfrwt>
<totfact> 0.53111153E+01</totfact>
</mgrwt>
</event>
<event>
 4    2  0.6914693E-007  0.6857682E+03  0.7818608E-02  0.1006233E+00
         -2   -1    0    0    0  501 -0.00000000000E+00  0.00000000000E+00  0.83061501192E+03  0.83061501192E+03  0.25500000000E-02 0.  1.
          2   -1    0    0  501    0  0.00000000000E+00 -0.00000000000E+00 -0.43746441151E+03  0.43746441151E+03  0.25500000000E-02 0. -1.
    8880023    1    1    2    0    0  0.82103329035E+02 -0.17241477239E+03  0.62732023880E+03  0.92941309365E+03  0.65864270000E+03 0.  0.
    8880022    1    1    2    0    0 -0.82103329035E+02  0.17241477239E+03 -0.23416963838E+03  0.33866632979E+03  0.15294330000E+03 0.  0.
<mgrwt>
<rscale>  0 0.52999846E+03</rscale>
<asrwt>0</asrwt>
<pdfrwt beam="1">  1        2 0.67302217E-01 0.68576819E+03</pdfrwt>
<pdfrwt beam="2">  1       -2 0.12778693E+00 0.68576819E+03</pdfrwt>
<totfact> 0.33133566E+01</totfact>
</mgrwt>
</event>
<event>
 4    2  0.6914693E-007  0.7211167E+03  0.7818608E-02  0.9918825E-01
         -2   -1    0    0    0  501 -0.00000000000E+00  0.00000000000E+00  0.78425799965E+03  0.78425799966E+03  0.25500000000E-02 0.  1.
          2   -1    0    0  501    0  0.00000000000E+00 -0.00000000000E+00 -0.59316762243E+03  0.59316762243E+03  0.25500000000E-02 0. -1.
    8880023    1    1    2    0    0  0.18390820406E+03 -0.22885992560E+03  0.53664566001E+03  0.89888701389E+03  0.65864270000E+03 0.  1.
    8880022    1    1    2    0    0 -0.18390820406E+03  0.22885992560E+03 -0.34555528278E+03  0.47853860820E+03  0.15294330000E+03 0.  0.
<mgrwt>
<rscale>  0 0.59357541E+03</rscale>
<asrwt>0</asrwt>
<pdfrwt beam="1">  1        2 0.91256558E-01 0.72111670E+03</pdfrwt>
<pdfrwt beam="2">  1       -2 0.12065508E+00 0.72111670E+03</pdfrwt>
<totfact> 0.26749134E+01</totfact>
</mgrwt>
</event>
<event>
 4    2  0.6914693E-007  0.9092511E+03  0.7818608E-02  0.9511341E-01
          2   -1    0    0  501    0  0.00000000000E+00  0.00000000000E+00  0.15010381170E+04  0.15010381170E+04  0.25500000000E-02 0. -1.
         -2   -1    0    0    0  501 -0.00000000000E+00 -0.00000000000E+00 -0.43671560608E+03  0.43671560608E+03  0.25500000000E-02 0.  1.
    8880023    1    1    2    0    0 -0.84246727751E+02 -0.62115203999E+03  0.34771729286E+03  0.97347053881E+03  0.65864270000E+03 0.  0.
    8880022    1    1    2    0    0  0.84246727751E+02  0.62115203999E+03  0.71660521809E+03  0.96428318430E+03  0.15294330000E+03 0.  1.
<mgrwt>
<rscale>  0 0.83452848E+03</rscale>
<asrwt>0</asrwt>
<pdfrwt beam="1">  1        2 0.23092894E+00 0.90925111E+03</pdfrwt>
<pdfrwt beam="2">  1       -2 0.67187016E-01 0.90925111E+03</pdfrwt>
<totfact> 0.25931978E+01</totfact>
</mgrwt>
</event>
<event>
 4    2  0.6914693E-007  0.8188139E+03  0.7818608E-02  0.9671502E-01
         -2   -1    0    0    0  501 -0.00000000000E+00  0.00000000000E+00  0.58807017961E+03  0.58807017961E+03  0.25500000000E-02 0.  1.
          2   -1    0    0  501    0  0.00000000000E+00 -0.00000000000E+00 -0.82933085317E+03  0.82933085318E+03  0.25500000000E-02 0. -1.
    8880023    1    1    2    0    0  0.30657158587E+03 -0.37770336422E+03  0.66965849648E+02  0.82154768571E+03  0.65864270000E+03 0.  0.
    8880022    1    1    2    0    0 -0.30657158587E+03  0.37770336422E+03 -0.30822652321E+03  0.59585334708E+03  0.15294330000E+03 0.  0.
<mgrwt>
<rscale>  0 0.72739183E+03</rscale>
<asrwt>0</asrwt>
<pdfrwt beam="1">  1        2 0.12758936E+00 0.81881388E+03</pdfrwt>
<pdfrwt beam="2">  1       -2 0.90472335E-01 0.81881388E+03</pdfrwt>
<totfact> 0.34557556E+01</totfact>
</mgrwt>
</event>
<event>
 4    2  0.6914693E-007  0.7464870E+03  0.7818608E-02  0.9841438E-01
         -2   -1    0    0    0  501 -0.00000000000E+00  0.00000000000E+00  0.39600901305E+03  0.39600901306E+03  0.25500000000E-02 0.  1.
          2   -1    0    0  501    0  0.00000000000E+00 -0.00000000000E+00 -0.81288191610E+03  0.81288191610E+03  0.25500000000E-02 0. -1.
    8880023    1    1    2    0    0 -0.28002892988E+03 -0.21217072659E+03 -0.22077012801E+03  0.77844863317E+03  0.65864270000E+03 0.  1.
    8880022    1    1    2    0    0  0.28002892988E+03  0.21217072659E+03 -0.19610277504E+03  0.43044229600E+03  0.15294330000E+03 0. -1.
<mgrwt>
<rscale>  0 0.63185353E+03</rscale>
<asrwt>0</asrwt>
<pdfrwt beam="1">  1        2 0.12505876E+00 0.74648699E+03</pdfrwt>
<pdfrwt beam="2">  1       -2 0.60924464E-01 0.74648699E+03</pdfrwt>
<totfact> 0.85645753E+01</totfact>
</mgrwt>
</event>
<event>
 4    2  0.6914693E-007  0.6855754E+03  0.7818608E-02  0.1006331E+00
          2   -1    0    0  501    0  0.00000000000E+00  0.00000000000E+00  0.64839152166E+03  0.64839152167E+03  0.25500000000E-02 0. -1.
         -2   -1    0    0    0  501 -0.00000000000E+00 -0.00000000000E+00 -0.45212212316E+03  0.45212212316E+03  0.25500000000E-02 0.  1.
    8880023    1    1    2    0    0 -0.14742132038E+03 -0.12029291588E+03 -0.12514323009E+03  0.69690348372E+03  0.65864270000E+03 0.  1.
    8880022    1    1    2    0    0  0.14742132038E+03  0.12029291588E+03  0.32141262860E+03  0.40361016111E+03  0.15294330000E+03 0.  0.
<mgrwt>
<rscale>  0 0.52959360E+03</rscale>
<asrwt>0</asrwt>
<pdfrwt beam="1">  1        2 0.99752542E-01 0.68557541E+03</pdfrwt>
<pdfrwt beam="2">  1       -2 0.69557249E-01 0.68557541E+03</pdfrwt>
<totfact> 0.86384383E+01</totfact>
</mgrwt>
</event>
<event>
 4    2  0.6914693E-007  0.1134784E+04  0.7818608E-02  0.9223282E-01
         -2   -1    0    0    0  501 -0.00000000000E+00  0.00000000000E+00  0.69376418097E+03  0.69376418098E+03  0.25500000000E-02 0.  1.
          2   -1    0    0  501    0  0.00000000000E+00 -0.00000000000E+00 -0.18600833747E+04  0.18600833747E+04  0.25500000000E-02 0. -1.
    8880023    1    1    2    0    0 -0.92397525147E+03 -0.13929396358E+02 -0.10699544796E+03  0.11398168825E+04  0.65864270000E+03 0.  1.
    8880022    1    1    2    0    0  0.92397525147E+03  0.13929396358E+02 -0.10593237458E+04  0.14140306732E+04  0.15294330000E+03 0.  0.
<mgrwt>
<rscale>  0 0.10816316E+04</rscale>
<asrwt>0</asrwt>
<pdfrwt beam="1">  1        2 0.28616667E+00 0.11347839E+04</pdfrwt>
<pdfrwt beam="2">  1       -2 0.10673295E+00 0.11347839E+04</pdfrwt>
<totfact> 0.55549481E+00</totfact>
</mgrwt>
</event>
<event>
 4    2  0.6914693E-007  0.9204375E+03  0.7818608E-02  0.9493988E-01
          2   -1    0    0  501    0  0.00000000000E+00  0.00000000000E+00  0.95658213142E+03  0.95658213142E+03  0.25500000000E-02 0. -1.
         -2   -1    0    0    0  501 -0.00000000000E+00 -0.00000000000E+00 -0.11390216201E+04  0.11390216201E+04  0.25500000000E-02 0.  1.
    8880023    1    1    2    0    0  0.61023053823E+03 -0.20251841131E+03 -0.77857788938E+03  0.12055657397E+04  0.65864270000E+03 0.  1.
    8880022    1    1    2    0    0 -0.61023053823E+03  0.20251841131E+03  0.59613840067E+03  0.89003801182E+03  0.15294330000E+03 0.  0.
<mgrwt>
<rscale>  0 0.84728478E+03</rscale>
<asrwt>0</asrwt>
<pdfrwt beam="1">  1        2 0.14716648E+00 0.92043752E+03</pdfrwt>
<pdfrwt beam="2">  1       -2 0.17523410E+00 0.92043752E+03</pdfrwt>
<totfact> 0.52591096E+00</totfact>
</mgrwt>
</event>
<event>
 4    2  0.6914693E-007  0.9803216E+03  0.7818608E-02  0.9407768E-01
          2   -1    0    0  501    0  0.00000000000E+00  0.00000000000E+00  0.17282225664E+04  0.17282225664E+04  0.25500000000E-02 0. -1.
         -2   -1    0    0    0  501 -0.00000000000E+00 -0.00000000000E+00 -0.49894609083E+03  0.49894609084E+03  0.25500000000E-02 0.  1.
    8880023    1    1    2    0    0  0.72486726518E+03 -0.42280730713E+02  0.11008992736E+04  0.14741131670E+04  0.65864270000E+03 0.  0.
    8880022    1    1    2    0    0 -0.72486726518E+03  0.42280730713E+02  0.12837720194E+03  0.75305549019E+03  0.15294330000E+03 0.  0.
<mgrwt>
<rscale>  0 0.91439138E+03</rscale>
<asrwt>0</asrwt>
<pdfrwt beam="1">  1        2 0.26588039E+00 0.98032159E+03</pdfrwt>
<pdfrwt beam="2">  1       -2 0.76760938E-01 0.98032159E+03</pdfrwt>
<totfact> 0.14361965E+01</totfact>
</mgrwt>
</event>
<event>
 4    2  0.6914693E-007  0.6939401E+03  0.7818608E-02  0.1002333E+00
          2   -1    0    0  501    0  0.00000000000E+00  0.00000000000E+00  0.33734961937E+04  0.33734961937E+04  0.25500000000E-02 0. -1.
         -2   -1    0    0    0  501 -0.00000000000E+00 -0.00000000000E+00 -0.11922994596E+03  0.11922994599E+03  0.25500000000E-02 0.  1.
    8880023    1    1    2    0    0  0.20218944964E+03  0.82838000377E+02  0.96846928159E+03  0.11914216984E+04  0.65864270000E+03 0.  1.
    8880022    1    1    2    0    0 -0.20218944964E+03 -0.82838000377E+02  0.22857969661E+04  0.23013044412E+04  0.15294330000E+03 0.  0.
<mgrwt>
<rscale>  0 0.54638836E+03</rscale>
<asrwt>0</asrwt>
<pdfrwt beam="1">  1        2 0.51899945E+00 0.69394014E+03</pdfrwt>
<pdfrwt beam="2">  1       -2 0.18343067E-01 0.69394014E+03</pdfrwt>
<totfact> 0.26674306E+01</totfact>
</mgrwt>
</event>
<event>
 4    2  0.6914693E-007  0.1122286E+04  0.7818608E-02  0.9236640E-01
         -2   -1    0    0    0  501 -0.00000000000E+00  0.00000000000E+00  0.51104961160E+03  0.51104961161E+03  0.25500000000E-02 0.  1.
          2   -1    0    0  501    0  0.00000000000E+00 -0.00000000000E+00 -0.22502499137E+04  0.22502499137E+04  0.25500000000E-02 0. -1.
    8880023    1    1    2    0    0  0.90724002335E+03  0.51290118483E+02 -0.13640332673E+04  0.17663839042E+04  0.65864270000E+03 0.  1.
    8880022    1    1    2    0    0 -0.90724002335E+03 -0.51290118483E+02 -0.37516703478E+03  0.99491562116E+03  0.15294330000E+03 0.  0.
<mgrwt>
<rscale>  0 0.10683114E+04</rscale>
<asrwt>0</asrwt>
<pdfrwt beam="1">  1        2 0.34619229E+00 0.11222858E+04</pdfrwt>
<pdfrwt beam="2">  1       -2 0.78623019E-01 0.11222858E+04</pdfrwt>
<totfact> 0.68969032E+00</totfact>
</mgrwt>
</event>
<event>
 4    2  0.6914693E-007  0.7540304E+03  0.7818608E-02  0.9820815E-01
          2   -1    0    0  501    0  0.00000000000E+00  0.00000000000E+00  0.21757873792E+04  0.21757873792E+04  0.25500000000E-02 0. -1.
         -2   -1    0    0    0  501 -0.00000000000E+00 -0.00000000000E+00 -0.47491915886E+03  0.47491915887E+03  0.25500000000E-02 0.  1.
    8880023    1    1    2    0    0  0.36524143450E+03 -0.36747469019E+02 -0.14039429306E+03  0.76698920836E+03  0.65864270000E+03 0.  1.
    8880022    1    1    2    0    0 -0.36524143450E+03  0.36747469019E+02  0.18412625134E+04  0.18837173297E+04  0.15294330000E+03 0.  0.
<mgrwt>
<rscale>  0 0.64257380E+03</rscale>
<asrwt>0</asrwt>
<pdfrwt beam="1">  1        2 0.33473652E+00 0.75403043E+03</pdfrwt>
<pdfrwt beam="2">  1       -2 0.73064486E-01 0.75403043E+03</pdfrwt>
<totfact> 0.93688563E+00</totfact>
</mgrwt>
</event>
<event>
 4    2  0.6914693E-007  0.8360778E+03  0.7818608E-02  0.9637621E-01
         -2   -1    0    0    0  501 -0.00000000000E+00  0.00000000000E+00  0.12823855587E+04  0.12823855587E+04  0.25500000000E-02 0.  1.
          2   -1    0    0  501    0  0.00000000000E+00 -0.00000000000E+00 -0.69492635281E+03  0.69492635281E+03  0.25500000000E-02 0. -1.
    8880023    1    1    2    0    0  0.51029236868E+03 -0.69408895630E+02  0.99745322085E+03  0.13015141299E+04  0.65864270000E+03 0.  1.
    8880022    1    1    2    0    0 -0.51029236868E+03  0.69408895630E+02 -0.40999401494E+03  0.67579778161E+03  0.15294330000E+03 0.  0.
<mgrwt>
<rscale>  0 0.74855460E+03</rscale>
<asrwt>0</asrwt>
<pdfrwt beam="1">  1        2 0.10691175E+00 0.83607781E+03</pdfrwt>
<pdfrwt beam="2">  1       -2 0.19729008E+00 0.83607781E+03</pdfrwt>
<totfact> 0.57890350E+00</totfact>
</mgrwt>
</event>
<event>
 4    2  0.7472726E-007  0.8401447E+03  0.7818608E-02  0.9629908E-01
         -2   -1    0    0    0  501 -0.00000000000E+00  0.00000000000E+00  0.98382182128E+03  0.98382182128E+03  0.25500000000E-02 0.  1.
          2   -1    0    0  501    0  0.00000000000E+00 -0.00000000000E+00 -0.16574504258E+04  0.16574504258E+04  0.25500000000E-02 0. -1.
    8880023    1    1    2    0    0 -0.48853212630E+03 -0.18267245514E+03  0.74449948236E+03  0.11225518027E+04  0.65864270000E+03 0.  1.
    8880022    1    1    2    0    0  0.48853212630E+03  0.18267245514E+03 -0.14181280869E+04  0.15187204444E+04  0.15294330000E+03 0.  0.
<mgrwt>
<rscale>  0 0.75347939E+03</rscale>
<asrwt>0</asrwt>
<pdfrwt beam="1">  1        2 0.25499237E+00 0.84014467E+03</pdfrwt>
<pdfrwt beam="2">  1       -2 0.15135720E+00 0.84014467E+03</pdfrwt>
<totfact> 0.30768006E+00</totfact>
</mgrwt>
</event>
<event>
 4    2  0.6914693E-007  0.7296583E+03  0.7818608E-02  0.9891165E-01
          2   -1    0    0  501    0  0.00000000000E+00  0.00000000000E+00  0.21116658061E+04  0.21116658061E+04  0.25500000000E-02 0. -1.
         -2   -1    0    0    0  501 -0.00000000000E+00 -0.00000000000E+00 -0.21549851162E+03  0.21549851163E+03  0.25500000000E-02 0.  1.
    8880023    1    1    2    0    0  0.31175814041E+03  0.37388703861E+02  0.49157284861E+03  0.87979834340E+03  0.65864270000E+03 0.  1.
    8880022    1    1    2    0    0 -0.31175814041E+03 -0.37388703861E+02  0.14045944459E+04  0.14473659744E+04  0.15294330000E+03 0.  0.
<mgrwt>
<rscale>  0 0.60691369E+03</rscale>
<asrwt>0</asrwt>
<pdfrwt beam="1">  1        2 0.32487166E+00 0.72965832E+03</pdfrwt>
<pdfrwt beam="2">  1       -2 0.33153617E-01 0.72965832E+03</pdfrwt>
<totfact> 0.50863883E+01</totfact>
</mgrwt>
</event>
<event>
 4    2  0.6914693E-007  0.8221239E+03  0.7818608E-02  0.9664856E-01
          2   -1    0    0  501    0  0.00000000000E+00  0.00000000000E+00  0.20571498489E+04  0.20571498489E+04  0.25500000000E-02 0. -1.
         -2   -1    0    0    0  501 -0.00000000000E+00 -0.00000000000E+00 -0.38914326533E+03  0.38914326534E+03  0.25500000000E-02 0.  1.
    8880023    1    1    2    0    0  0.49116136438E+03  0.28947321499E+02  0.14025933825E+03  0.83400259083E+03  0.65864270000E+03 0.  0.
    8880022    1    1    2    0    0 -0.49116136438E+03 -0.28947321499E+02  0.15277472453E+04  0.16122905234E+04  0.15294330000E+03 0.  0.
<mgrwt>
<rscale>  0 0.73148375E+03</rscale>
<asrwt>0</asrwt>
<pdfrwt beam="1">  1        2 0.31648459E+00 0.82212386E+03</pdfrwt>
<pdfrwt beam="2">  1       -2 0.59868195E-01 0.82212386E+03</pdfrwt>
<totfact> 0.16569810E+01</totfact>
</mgrwt>
</event>
<event>
 4    2  0.6914693E-007  0.1150196E+04  0.7818608E-02  0.9207125E-01
         -2   -1    0    0    0  501 -0.00000000000E+00  0.00000000000E+00  0.37303911433E+03  0.37303911434E+03  0.25500000000E-02 0.  1.
          2   -1    0    0  501    0  0.00000000000E+00 -0.00000000000E+00 -0.42269476544E+04  0.42269476544E+04  0.25500000000E-02 0. -1.
    8880023    1    1    2    0    0  0.83446765821E+03 -0.43909449068E+03 -0.80233280168E+03  0.14023866711E+04  0.65864270000E+03 0.  0.
    8880022    1    1    2    0    0 -0.83446765821E+03  0.43909449068E+03 -0.30515757384E+04  0.31976000976E+04  0.15294330000E+03 0.  0.
<mgrwt>
<rscale>  0 0.10980190E+04</rscale>
<asrwt>0</asrwt>
<pdfrwt beam="1">  1        2 0.65029961E+00 0.11501958E+04</pdfrwt>
<pdfrwt beam="2">  1       -2 0.57390636E-01 0.11501958E+04</pdfrwt>
<totfact> 0.64879560E-01</totfact>
</mgrwt>
</event>
<event>
 4    2  0.6914693E-007  0.7569796E+03  0.7818608E-02  0.9812991E-01
          2   -1    0    0  501    0  0.00000000000E+00  0.00000000000E+00  0.31489785444E+04  0.31489785444E+04  0.25500000000E-02 0. -1.
         -2   -1    0    0    0  501 -0.00000000000E+00 -0.00000000000E+00 -0.13564495849E+03  0.13564495851E+03  0.25500000000E-02 0.  1.
    8880023    1    1    2    0    0 -0.17719456756E+03 -0.32834439257E+03  0.11403707166E+04  0.13687452402E+04  0.65864270000E+03 0.  0.
    8880022    1    1    2    0    0  0.17719456756E+03  0.32834439257E+03  0.18729628693E+04  0.19158782628E+04  0.15294330000E+03 0.  0.
<mgrwt>
<rscale>  0 0.64670033E+03</rscale>
<asrwt>0</asrwt>
<pdfrwt beam="1">  1        2 0.48445823E+00 0.75697963E+03</pdfrwt>
<pdfrwt beam="2">  1       -2 0.20868455E-01 0.75697963E+03</pdfrwt>
<totfact> 0.29408486E+01</totfact>
</mgrwt>
</event>
<event>
 4    2  0.6914693E-007  0.1284526E+04  0.7818608E-02  0.9079039E-01
         -2   -1    0    0    0  501 -0.00000000000E+00  0.00000000000E+00  0.21016307033E+04  0.21016307033E+04  0.25500000000E-02 0.  1.
          2   -1    0    0  501    0  0.00000000000E+00 -0.00000000000E+00 -0.10310139743E+04  0.10310139743E+04  0.25500000000E-02 0. -1.
    8880023    1    1    2    0    0 -0.10995857218E+04  0.84306302171E+02  0.14678496192E+04  0.19505355734E+04  0.65864270000E+03 0.  0.
    8880022    1    1    2    0    0  0.10995857218E+04 -0.84306302171E+02 -0.39723289017E+03  0.11821091042E+04  0.15294330000E+03 0.  0.
<mgrwt>
<rscale>  0 0.12394151E+04</rscale>
<asrwt>0</asrwt>
<pdfrwt beam="1">  1        2 0.15861754E+00 0.12845258E+04</pdfrwt>
<pdfrwt beam="2">  1       -2 0.32332780E+00 0.12845258E+04</pdfrwt>
<totfact> 0.53307724E-01</totfact>
</mgrwt>
</event>
<event>
 4    2  0.1109018E-006  0.1479210E+04  0.7818608E-02  0.8924458E-01
          2   -1    0    0  501    0  0.00000000000E+00  0.00000000000E+00  0.25726630370E+04  0.25726630370E+04  0.25500000000E-02 0. -1.
         -2   -1    0    0    0  501 -0.00000000000E+00 -0.00000000000E+00 -0.14209888120E+04  0.14209888120E+04  0.25500000000E-02 0.  1.
    8880023    1    1    2    0    0 -0.54220672494E+03  0.12084134870E+04 -0.75994408778E+03  0.16630022583E+04  0.65864270000E+03 0.  0.
    8880022    1    1    2    0    0  0.54220672494E+03 -0.12084134870E+04  0.19116183128E+04  0.23306495908E+04  0.15294330000E+03 0.  0.
<mgrwt>
<rscale>  0 0.14412950E+04</rscale>
<asrwt>0</asrwt>
<pdfrwt beam="1">  1        2 0.39579431E+00 0.14792098E+04</pdfrwt>
<pdfrwt beam="2">  1       -2 0.21861366E+00 0.14792098E+04</pdfrwt>
<totfact> 0.29976337E-01</totfact>
</mgrwt>
</event>
<event>
 4    2  0.6914693E-007  0.7711497E+03  0.7818608E-02  0.9777053E-01
          2   -1    0    0  501    0  0.00000000000E+00  0.00000000000E+00  0.38655847517E+04  0.38655847517E+04  0.25500000000E-02 0. -1.
         -2   -1    0    0    0  501 -0.00000000000E+00 -0.00000000000E+00 -0.15514499763E+03  0.15514499766E+03  0.25500000000E-02 0.  1.
    8880023    1    1    2    0    0  0.36018318024E+03 -0.17643638461E+03  0.34116810632E+04  0.34977477903E+04  0.65864270000E+03 0. -1.
    8880022    1    1    2    0    0 -0.36018318024E+03  0.17643638461E+03  0.29875869087E+03  0.52298195909E+03  0.15294330000E+03 0.  0.
<mgrwt>
<rscale>  0 0.66608702E+03</rscale>
<asrwt>0</asrwt>
<pdfrwt beam="1">  1        2 0.59470535E+00 0.77114974E+03</pdfrwt>
<pdfrwt beam="2">  1       -2 0.23868461E-01 0.77114974E+03</pdfrwt>
<totfact> 0.74394241E+00</totfact>
</mgrwt>
</event>
<event>
 4    2  0.6914693E-007  0.6883031E+03  0.7818608E-02  0.1004970E+00
         -2   -1    0    0    0  501 -0.00000000000E+00  0.00000000000E+00  0.54131465097E+03  0.54131465097E+03  0.25500000000E-02 0.  1.
          2   -1    0    0  501    0  0.00000000000E+00 -0.00000000000E+00 -0.68912800188E+03  0.68912800188E+03  0.25500000000E-02 0. -1.
    8880023    1    1    2    0    0 -0.19009042803E+03 -0.61778851929E+02  0.27270926588E+03  0.74035906649E+03  0.65864270000E+03 0.  0.
    8880022    1    1    2    0    0  0.19009042803E+03  0.61778851929E+02 -0.42052261679E+03  0.49008358636E+03  0.15294330000E+03 0.  0.
<mgrwt>
<rscale>  0 0.53523788E+03</rscale>
<asrwt>0</asrwt>
<pdfrwt beam="1">  1        2 0.10601969E+00 0.68830313E+03</pdfrwt>
<pdfrwt beam="2">  1       -2 0.83279177E-01 0.68830313E+03</pdfrwt>
<totfact> 0.53680854E+01</totfact>
</mgrwt>
</event>
<event>
 4    2  0.6914693E-007  0.7012895E+03  0.7818608E-02  0.9991893E-01
          2   -1    0    0  501    0  0.00000000000E+00  0.00000000000E+00  0.21765732089E+04  0.21765732089E+04  0.25500000000E-02 0. -1.
         -2   -1    0    0    0  501 -0.00000000000E+00 -0.00000000000E+00 -0.34715799438E+03  0.34715799439E+03  0.25500000000E-02 0.  1.
    8880023    1    1    2    0    0 -0.13287876363E+02 -0.24045824020E+03  0.30094989799E+02  0.70193493118E+03  0.65864270000E+03 0.  1.
    8880022    1    1    2    0    0  0.13287876363E+02  0.24045824020E+03  0.17993202247E+04  0.18217962721E+04  0.15294330000E+03 0.  0.
<mgrwt>
<rscale>  0 0.56007127E+03</rscale>
<asrwt>0</asrwt>
<pdfrwt beam="1">  1        2 0.33485742E+00 0.70128948E+03</pdfrwt>
<pdfrwt beam="2">  1       -2 0.53408922E-01 0.70128948E+03</pdfrwt>
<totfact> 0.18396626E+01</totfact>
</mgrwt>
</event>
<event>
 4    2  0.6914693E-007  0.8628247E+03  0.7818608E-02  0.9588559E-01
          2   -1    0    0  501    0  0.00000000000E+00  0.00000000000E+00  0.14665873061E+04  0.14665873061E+04  0.25500000000E-02 0. -1.
         -2   -1    0    0    0  501 -0.00000000000E+00 -0.00000000000E+00 -0.58291668877E+03  0.58291668877E+03  0.25500000000E-02 0.  1.
    8880023    1    1    2    0    0 -0.49544761655E+02  0.55515898294E+03 -0.13983669780E+03  0.87408276957E+03  0.65864270000E+03 0.  1.
    8880022    1    1    2    0    0  0.49544761655E+02 -0.55515898294E+03  0.10235073151E+04  0.11754212253E+04  0.15294330000E+03 0.  0.
<mgrwt>
<rscale>  0 0.78058103E+03</rscale>
<asrwt>0</asrwt>
<pdfrwt beam="1">  1        2 0.22562882E+00 0.86282466E+03</pdfrwt>
<pdfrwt beam="2">  1       -2 0.89679490E-01 0.86282466E+03</pdfrwt>
<totfact> 0.14271277E+01</totfact>
</mgrwt>
</event>
<event>
 4    2  0.6914693E-007  0.6893491E+03  0.7818608E-02  0.1004464E+00
          2   -1    0    0  501    0  0.00000000000E+00  0.00000000000E+00  0.45559819656E+03  0.45559819656E+03  0.25500000000E-02 0. -1.
         -2   -1    0    0    0  501 -0.00000000000E+00 -0.00000000000E+00 -0.16157153344E+04  0.16157153344E+04  0.25500000000E-02 0.  1.
    8880023    1    1    2    0    0  0.64532430717E+02 -0.19294422268E+03 -0.14975835070E+04  0.16486232057E+04  0.65864270000E+03 0.  1.
    8880022    1    1    2    0    0 -0.64532430717E+02  0.19294422268E+03  0.33746636920E+03  0.42269032522E+03  0.15294330000E+03 0.  0.
<mgrwt>
<rscale>  0 0.53735648E+03</rscale>
<asrwt>0</asrwt>
<pdfrwt beam="1">  1        2 0.70092031E-01 0.68934905E+03</pdfrwt>
<pdfrwt beam="2">  1       -2 0.24857159E+00 0.68934905E+03</pdfrwt>
<totfact> 0.46626839E+00</totfact>
</mgrwt>
</event>
<event>
 4    2  0.6914693E-007  0.6821151E+03  0.7818608E-02  0.1008152E+00
          2   -1    0    0  501    0  0.00000000000E+00  0.00000000000E+00  0.25086575521E+04  0.25086575521E+04  0.25500000000E-02 0. -1.
         -2   -1    0    0    0  501 -0.00000000000E+00 -0.00000000000E+00 -0.15026220055E+03  0.15026220057E+03  0.25500000000E-02 0.  1.
    8880023    1    1    2    0    0 -0.78415075914E+02  0.15912833140E+03  0.67615462673E+03  0.96045095424E+03  0.65864270000E+03 0.  1.
    8880022    1    1    2    0    0  0.78415075914E+02 -0.15912833140E+03  0.16822407248E+04  0.16984687984E+04  0.15294330000E+03 0.  0.
<mgrwt>
<rscale>  0 0.52215878E+03</rscale>
<asrwt>0</asrwt>
<pdfrwt beam="1">  1        2 0.38594730E+00 0.68211506E+03</pdfrwt>
<pdfrwt beam="2">  1       -2 0.23117263E-01 0.68211506E+03</pdfrwt>
<totfact> 0.59632056E+01</totfact>
</mgrwt>
</event>
<event>
 4    2  0.6914693E-007  0.1054635E+04  0.7818608E-02  0.9313330E-01
         -2   -1    0    0    0  501 -0.00000000000E+00  0.00000000000E+00  0.65808243932E+03  0.65808243933E+03  0.25500000000E-02 0.  1.
          2   -1    0    0  501    0  0.00000000000E+00 -0.00000000000E+00 -0.15995548538E+04  0.15995548538E+04  0.25500000000E-02 0. -1.
    8880023    1    1    2    0    0  0.79356551244E+03  0.22067946644E+03 -0.95061126592E+03  0.14198301429E+04  0.65864270000E+03 0.  0.
    8880022    1    1    2    0    0 -0.79356551244E+03 -0.22067946644E+03  0.91388514155E+01  0.83780715028E+03  0.15294330000E+03 0.  0.
<mgrwt>
<rscale>  0 0.99564913E+03</rscale>
<asrwt>0</asrwt>
<pdfrwt beam="1">  1        2 0.24608536E+00 0.10546354E+04</pdfrwt>
<pdfrwt beam="2">  1       -2 0.10124345E+00 0.10546354E+04</pdfrwt>
<totfact> 0.88654417E+00</totfact>
</mgrwt>
</event>
<event>
 4    2  0.6914693E-007  0.6867158E+03  0.7818608E-02  0.1005754E+00
          2   -1    0    0  501    0  0.00000000000E+00  0.00000000000E+00  0.99797093152E+03  0.99797093152E+03  0.25500000000E-02 0. -1.
         -2   -1    0    0    0  501 -0.00000000000E+00 -0.00000000000E+00 -0.36517035531E+03  0.36517035532E+03  0.25500000000E-02 0.  1.
    8880023    1    1    2    0    0 -0.18839698168E+03 -0.47695908802E+02  0.32123299350E+01  0.68672326868E+03  0.65864270000E+03 0.  0.
    8880022    1    1    2    0    0  0.18839698168E+03  0.47695908802E+02  0.62958824627E+03  0.67641801815E+03  0.15294330000E+03 0.  0.
<mgrwt>
<rscale>  0 0.53197494E+03</rscale>
<asrwt>0</asrwt>
<pdfrwt beam="1">  1        2 0.15353399E+00 0.68671576E+03</pdfrwt>
<pdfrwt beam="2">  1       -2 0.56180055E-01 0.68671576E+03</pdfrwt>
<totfact> 0.76627355E+01</totfact>
</mgrwt>
</event>
<event>
 4    2  0.6914693E-007  0.6997859E+03  0.7818608E-02  0.9998090E-01
         -2   -1    0    0    0  501 -0.00000000000E+00  0.00000000000E+00  0.19418601096E+03  0.19418601098E+03  0.25500000000E-02 0.  1.
          2   -1    0    0  501    0  0.00000000000E+00 -0.00000000000E+00 -0.28700768690E+04  0.28700768690E+04  0.25500000000E-02 0. -1.
    8880023    1    1    2    0    0  0.95552567141E+02 -0.21624017877E+03 -0.47577964772E+03  0.84620717762E+03  0.65864270000E+03 0.  1.
    8880022    1    1    2    0    0 -0.95552567141E+02  0.21624017877E+03 -0.22001112103E+04  0.22180557024E+04  0.15294330000E+03 0.  0.
<mgrwt>
<rscale>  0 0.55734044E+03</rscale>
<asrwt>0</asrwt>
<pdfrwt beam="1">  1        2 0.44155026E+00 0.69978591E+03</pdfrwt>
<pdfrwt beam="2">  1       -2 0.29874773E-01 0.69978591E+03</pdfrwt>
<totfact> 0.23029709E+01</totfact>
</mgrwt>
</event>
<event>
 4    2  0.7199224E-007  0.7768522E+03  0.7818608E-02  0.9763284E-01
         -2   -1    0    0    0  501 -0.00000000000E+00  0.00000000000E+00  0.81424015841E+03  0.81424015841E+03  0.25500000000E-02 0.  1.
          2   -1    0    0  501    0  0.00000000000E+00 -0.00000000000E+00 -0.18828885943E+04  0.18828885943E+04  0.25500000000E-02 0. -1.
    8880023    1    1    2    0    0  0.30972800094E+03  0.27158364909E+03  0.59366460865E+03  0.97772030092E+03  0.65864270000E+03 0.  1.
    8880022    1    1    2    0    0 -0.30972800094E+03 -0.27158364909E+03 -0.16623130445E+04  0.17194084518E+04  0.15294330000E+03 0.  0.
<mgrwt>
<rscale>  0 0.67370717E+03</rscale>
<asrwt>0</asrwt>
<pdfrwt beam="1">  1        2 0.28967517E+00 0.77685219E+03</pdfrwt>
<pdfrwt beam="2">  1       -2 0.12526772E+00 0.77685219E+03</pdfrwt>
<totfact> 0.38094499E+00</totfact>
</mgrwt>
</event>
<event>
 4    2  0.6914693E-007  0.7087763E+03  0.7818608E-02  0.9962573E-01
          2   -1    0    0  501    0  0.00000000000E+00  0.00000000000E+00  0.26009999533E+04  0.26009999533E+04  0.25500000000E-02 0. -1.
         -2   -1    0    0    0  501 -0.00000000000E+00 -0.00000000000E+00 -0.21120213140E+03  0.21120213141E+03  0.25500000000E-02 0.  1.
    8880023    1    1    2    0    0 -0.24293074883E+03  0.97664382468E+02  0.42984810836E+03  0.82893502933E+03  0.65864270000E+03 0.  1.
    8880022    1    1    2    0    0  0.24293074883E+03 -0.97664382468E+02  0.19599497135E+04  0.19832670554E+04  0.15294330000E+03 0.  0.
<mgrwt>
<rscale>  0 0.57322235E+03</rscale>
<asrwt>0</asrwt>
<pdfrwt beam="1">  1        2 0.40015387E+00 0.70877633E+03</pdfrwt>
<pdfrwt beam="2">  1       -2 0.32492633E-01 0.70877633E+03</pdfrwt>
<totfact> 0.28237162E+01</totfact>
</mgrwt>
</event>
<event>
 4    2  0.6914693E-007  0.6884325E+03  0.7818608E-02  0.1004907E+00
         -2   -1    0    0    0  501 -0.00000000000E+00  0.00000000000E+00  0.84160712213E+03  0.84160712214E+03  0.25500000000E-02 0.  1.
          2   -1    0    0  501    0  0.00000000000E+00 -0.00000000000E+00 -0.70609392932E+03  0.70609392933E+03  0.25500000000E-02 0. -1.
    8880023    1    1    2    0    0  0.19665356785E+03 -0.38163181759E+02  0.66758076301E+03  0.95895950676E+03  0.65864270000E+03 0.  1.
    8880022    1    1    2    0    0 -0.19665356785E+03  0.38163181759E+02 -0.53206757020E+03  0.58874154471E+03  0.15294330000E+03 0.  0.
<mgrwt>
<rscale>  0 0.53550117E+03</rscale>
<asrwt>0</asrwt>
<pdfrwt beam="1">  1        2 0.10862984E+00 0.68843247E+03</pdfrwt>
<pdfrwt beam="2">  1       -2 0.12947802E+00 0.68843247E+03</pdfrwt>
<totfact> 0.18143684E+01</totfact>
</mgrwt>
</event>
<event>
 4    2  0.6914693E-007  0.6622106E+03  0.7818608E-02  0.1021998E+00
         -2   -1    0    0    0  501 -0.00000000000E+00  0.00000000000E+00  0.19710610270E+03  0.19710610272E+03  0.25500000000E-02 0.  1.
          2   -1    0    0  501    0  0.00000000000E+00 -0.00000000000E+00 -0.21615364591E+04  0.21615364591E+04  0.25500000000E-02 0. -1.
    8880023    1    1    2    0    0  0.50139173921E+02  0.46890833328E+02 -0.37624130964E+03  0.76163010468E+03  0.65864270000E+03 0.  1.
    8880022    1    1    2    0    0 -0.50139173921E+02 -0.46890833328E+02 -0.15881890467E+04  0.15970124571E+04  0.15294330000E+03 0.  0.
<mgrwt>
<rscale>  0 0.46972511E+03</rscale>
<asrwt>0</asrwt>
<pdfrwt beam="1">  1        2 0.33254405E+00 0.66221061E+03</pdfrwt>
<pdfrwt beam="2">  1       -2 0.30324017E-01 0.66221061E+03</pdfrwt>
<totfact> 0.56945848E+01</totfact>
</mgrwt>
</event>
<event>
 4    2  0.6914693E-007  0.8466183E+03  0.7818608E-02  0.9617825E-01
          2   -1    0    0  501    0  0.00000000000E+00  0.00000000000E+00  0.18870631131E+04  0.18870631131E+04  0.25500000000E-02 0. -1.
         -2   -1    0    0    0  501 -0.00000000000E+00 -0.00000000000E+00 -0.36964045179E+03  0.36964045180E+03  0.25500000000E-02 0.  1.
    8880023    1    1    2    0    0  0.77186331153E+02  0.52630284403E+03  0.26450010050E+03  0.88697402599E+03  0.65864270000E+03 0.  1.
    8880022    1    1    2    0    0 -0.77186331153E+02 -0.52630284403E+03  0.12529225608E+04  0.13697295389E+04  0.15294330000E+03 0.  0.
<mgrwt>
<rscale>  0 0.76127565E+03</rscale>
<asrwt>0</asrwt>
<pdfrwt beam="1">  1        2 0.29031739E+00 0.84661834E+03</pdfrwt>
<pdfrwt beam="2">  1       -2 0.56867763E-01 0.84661834E+03</pdfrwt>
<totfact> 0.22807625E+01</totfact>
</mgrwt>
</event>
<event>
 4    2  0.6914693E-007  0.7020939E+03  0.7818608E-02  0.9988623E-01
         -2   -1    0    0    0  501 -0.00000000000E+00  0.00000000000E+00  0.13304270916E+04  0.13304270916E+04  0.25500000000E-02 0.  1.
          2   -1    0    0  501    0  0.00000000000E+00 -0.00000000000E+00 -0.32796936004E+03  0.32796936005E+03  0.25500000000E-02 0. -1.
    8880023    1    1    2    0    0 -0.23103598482E+03  0.75815536073E+02  0.11408185796E+04  0.13395532314E+04  0.65864270000E+03 0.  1.
    8880022    1    1    2    0    0  0.23103598482E+03 -0.75815536073E+02 -0.13836084811E+03  0.31884322024E+03  0.15294330000E+03 0.  0.
<mgrwt>
<rscale>  0 0.56151906E+03</rscale>
<asrwt>0</asrwt>
<pdfrwt beam="1">  1        2 0.50456825E-01 0.70209389E+03</pdfrwt>
<pdfrwt beam="2">  1       -2 0.20468109E+00 0.70209389E+03</pdfrwt>
<totfact> 0.12607506E+01</totfact>
</mgrwt>
</event>
<event>
 4    2  0.6914693E-007  0.6944968E+03  0.7818608E-02  0.1002084E+00
         -2   -1    0    0    0  501 -0.00000000000E+00  0.00000000000E+00  0.51127506341E+03  0.51127506342E+03  0.25500000000E-02 0.  1.
          2   -1    0    0  501    0  0.00000000000E+00 -0.00000000000E+00 -0.17519686482E+04  0.17519686482E+04  0.25500000000E-02 0. -1.
    8880023    1    1    2    0    0 -0.14495368067E+03  0.16584359158E+03  0.25790851933E+03  0.74083917081E+03  0.65864270000E+03 0.  1.
    8880022    1    1    2    0    0  0.14495368067E+03 -0.16584359158E+03 -0.14986021041E+04  0.15224045408E+04  0.15294330000E+03 0.  0.
<mgrwt>
<rscale>  0 0.54745616E+03</rscale>
<asrwt>0</asrwt>
<pdfrwt beam="1">  1        2 0.26953364E+00 0.69449685E+03</pdfrwt>
<pdfrwt beam="2">  1       -2 0.78657703E-01 0.69449685E+03</pdfrwt>
<totfact> 0.13670477E+01</totfact>
</mgrwt>
</event>
<event>
 4    2  0.6914693E-007  0.7018004E+03  0.7818608E-02  0.9989813E-01
         -2   -1    0    0    0  501 -0.00000000000E+00  0.00000000000E+00  0.20533915318E+03  0.20533915319E+03  0.25500000000E-02 0.  1.
          2   -1    0    0  501    0  0.00000000000E+00 -0.00000000000E+00 -0.19484278780E+04  0.19484278780E+04  0.25500000000E-02 0. -1.
    8880023    1    1    2    0    0  0.98940824695E+02  0.22118824436E+03 -0.46011307522E+03  0.83918280159E+03  0.65864270000E+03 0.  1.
    8880022    1    1    2    0    0 -0.98940824695E+02 -0.22118824436E+03 -0.12829756496E+04  0.13145842296E+04  0.15294330000E+03 0.  0.
<mgrwt>
<rscale>  0 0.56099179E+03</rscale>
<asrwt>0</asrwt>
<pdfrwt beam="1">  1        2 0.29975812E+00 0.70180035E+03</pdfrwt>
<pdfrwt beam="2">  1       -2 0.31590640E-01 0.70180035E+03</pdfrwt>
<totfact> 0.68605451E+01</totfact>
</mgrwt>
</event>
<event>
 4    2  0.6914693E-007  0.1049918E+04  0.7818608E-02  0.9318980E-01
         -2   -1    0    0    0  501 -0.00000000000E+00  0.00000000000E+00  0.42727155213E+03  0.42727155214E+03  0.25500000000E-02 0.  1.
          2   -1    0    0  501    0  0.00000000000E+00 -0.00000000000E+00 -0.20887180103E+04  0.20887180103E+04  0.25500000000E-02 0. -1.
    8880023    1    1    2    0    0 -0.22608172834E+03  0.78575114745E+03 -0.81380838470E+03  0.13283870320E+04  0.65864270000E+03 0. -1.
    8880022    1    1    2    0    0  0.22608172834E+03 -0.78575114745E+03 -0.84763807347E+03  0.11876025304E+04  0.15294330000E+03 0.  1.
<mgrwt>
<rscale>  0 0.99054162E+03</rscale>
<asrwt>0</asrwt>
<pdfrwt beam="1">  1        2 0.32134123E+00 0.10499181E+04</pdfrwt>
<pdfrwt beam="2">  1       -2 0.65734086E-01 0.10499181E+04</pdfrwt>
<totfact> 0.12692558E+01</totfact>
</mgrwt>
</event>
<event>
 4    2  0.6914693E-007  0.6605886E+03  0.7818608E-02  0.1023561E+00
          2   -1    0    0  501    0  0.00000000000E+00  0.00000000000E+00  0.47396908679E+03  0.47396908679E+03  0.25500000000E-02 0. -1.
         -2   -1    0    0    0  501 -0.00000000000E+00 -0.00000000000E+00 -0.36816838196E+03  0.36816838197E+03  0.25500000000E-02 0.  1.
    8880023    1    1    2    0    0  0.21858276890E+02 -0.45709109421E+02  0.22999406776E+02  0.66098886975E+03  0.65864270000E+03 0.  1.
    8880022    1    1    2    0    0 -0.21858276890E+02  0.45709109421E+02  0.82801298048E+02  0.18114859902E+03  0.15294330000E+03 0.  0.
<mgrwt>
<rscale>  0 0.46423064E+03</rscale>
<asrwt>0</asrwt>
<pdfrwt beam="1">  1        2 0.72918321E-01 0.66058861E+03</pdfrwt>
<pdfrwt beam="2">  1       -2 0.56641289E-01 0.66058861E+03</pdfrwt>
<totfact> 0.19412230E+02</totfact>
</mgrwt>
</event>
<event>
 4    2  0.6914693E-007  0.8527997E+03  0.7818608E-02  0.9606502E-01
          2   -1    0    0  501    0  0.00000000000E+00  0.00000000000E+00  0.10251811157E+04  0.10251811157E+04  0.25500000000E-02 0. -1.
         -2   -1    0    0    0  501 -0.00000000000E+00 -0.00000000000E+00 -0.92268903954E+03  0.92268903955E+03  0.25500000000E-02 0.  1.
    8880023    1    1    2    0    0  0.51940445282E+03  0.15387027858E+03 -0.60365166914E+03  0.10448265847E+04  0.65864270000E+03 0.  1.
    8880022    1    1    2    0    0 -0.51940445282E+03 -0.15387027858E+03  0.70614374530E+03  0.90304357053E+03  0.15294330000E+03 0.  0.
<mgrwt>
<rscale>  0 0.76867323E+03</rscale>
<asrwt>0</asrwt>
<pdfrwt beam="1">  1        2 0.15772017E+00 0.85279966E+03</pdfrwt>
<pdfrwt beam="2">  1       -2 0.14195216E+00 0.85279966E+03</pdfrwt>
<totfact> 0.84600338E+00</totfact>
</mgrwt>
</event>
<event>
 4    2  0.6914693E-007  0.9803414E+03  0.7818608E-02  0.9407741E-01
         -2   -1    0    0    0  501 -0.00000000000E+00  0.00000000000E+00  0.14230540130E+04  0.14230540130E+04  0.25500000000E-02 0.  1.
          2   -1    0    0  501    0  0.00000000000E+00 -0.00000000000E+00 -0.10294122085E+04  0.10294122085E+04  0.25500000000E-02 0. -1.
    8880023    1    1    2    0    0  0.40067728866E+03  0.60557148526E+03  0.10680306482E+04  0.14497443862E+04  0.65864270000E+03 0.  1.
    8880022    1    1    2    0    0 -0.40067728866E+03 -0.60557148526E+03 -0.67438884373E+03  0.10027218353E+04  0.15294330000E+03 0.  0.
<mgrwt>
<rscale>  0 0.91441333E+03</rscale>
<asrwt>0</asrwt>
<pdfrwt beam="1">  1        2 0.15837111E+00 0.98034143E+03</pdfrwt>
<pdfrwt beam="2">  1       -2 0.21893139E+00 0.98034143E+03</pdfrwt>
<totfact> 0.24114766E+00</totfact>
</mgrwt>
</event>
<event>
 4    2  0.6914693E-007  0.7462726E+03  0.7818608E-02  0.9842038E-01
         -2   -1    0    0    0  501 -0.00000000000E+00  0.00000000000E+00  0.30515653563E+03  0.30515653564E+03  0.25500000000E-02 0.  1.
          2   -1    0    0  501    0  0.00000000000E+00 -0.00000000000E+00 -0.13586520058E+04  0.13586520058E+04  0.25500000000E-02 0. -1.
    8880023    1    1    2    0    0 -0.49798093347E+02  0.34732226076E+03 -0.27323093746E+03  0.79471878949E+03  0.65864270000E+03 0.  0.
    8880022    1    1    2    0    0  0.49798093347E+02 -0.34732226076E+03 -0.78026453274E+03  0.86908975197E+03  0.15294330000E+03 0.  0.
<mgrwt>
<rscale>  0 0.63154515E+03</rscale>
<asrwt>0</asrwt>
<pdfrwt beam="1">  1        2 0.20902338E+00 0.74627261E+03</pdfrwt>
<pdfrwt beam="2">  1       -2 0.46947160E-01 0.74627261E+03</pdfrwt>
<totfact> 0.66985907E+01</totfact>
</mgrwt>
</event>
<event>
 4    2  0.6914693E-007  0.6722875E+03  0.7818608E-02  0.1014073E+00
         -2   -1    0    0    0  501 -0.00000000000E+00  0.00000000000E+00  0.91570980761E+03  0.91570980762E+03  0.25500000000E-02 0.  1.
          2   -1    0    0  501    0  0.00000000000E+00 -0.00000000000E+00 -0.43187080565E+03  0.43187080566E+03  0.25500000000E-02 0. -1.
    8880023    1    1    2    0    0 -0.54329159503E+02  0.12332348966E+03  0.75332209911E+03  0.10096854619E+04  0.65864270000E+03 0.  1.
    8880022    1    1    2    0    0  0.54329159503E+02 -0.12332348966E+03 -0.26948309714E+03  0.33789515139E+03  0.15294330000E+03 0.  0.
<mgrwt>
<rscale>  0 0.49887333E+03</rscale>
<asrwt>0</asrwt>
<pdfrwt beam="1">  1        2 0.66441662E-01 0.67228755E+03</pdfrwt>
<pdfrwt beam="2">  1       -2 0.14087843E+00 0.67228755E+03</pdfrwt>
<totfact> 0.26248659E+01</totfact>
</mgrwt>
</event>
<event>
 4    2  0.6914693E-007  0.6828708E+03  0.7818608E-02  0.1007744E+00
         -2   -1    0    0    0  501 -0.00000000000E+00  0.00000000000E+00  0.29046060556E+03  0.29046060558E+03  0.25500000000E-02 0.  1.
          2   -1    0    0  501    0  0.00000000000E+00 -0.00000000000E+00 -0.26572490117E+04  0.26572490117E+04  0.25500000000E-02 0. -1.
    8880023    1    1    2    0    0 -0.50045676102E+02  0.17319863778E+03 -0.12589446831E+03  0.69437883122E+03  0.65864270000E+03 0.  1.
    8880022    1    1    2    0    0  0.50045676102E+02 -0.17319863778E+03 -0.22408939379E+04  0.22533307861E+04  0.15294330000E+03 0.  0.
<mgrwt>
<rscale>  0 0.52381092E+03</rscale>
<asrwt>0</asrwt>
<pdfrwt beam="1">  1        2 0.40880752E+00 0.68287081E+03</pdfrwt>
<pdfrwt beam="2">  1       -2 0.44686249E-01 0.68287081E+03</pdfrwt>
<totfact> 0.14225053E+01</totfact>
</mgrwt>
</event>
<event>
 4    2  0.6914693E-007  0.7864028E+03  0.7818608E-02  0.9741006E-01
          2   -1    0    0  501    0  0.00000000000E+00  0.00000000000E+00  0.31682489577E+04  0.31682489577E+04  0.25500000000E-02 0. -1.
         -2   -1    0    0    0  501 -0.00000000000E+00 -0.00000000000E+00 -0.37823488200E+03  0.37823488201E+03  0.25500000000E-02 0.  1.
    8880023    1    1    2    0    0  0.11642925802E+03 -0.41359818367E+03  0.29577699682E+04  0.30605281605E+04  0.65864270000E+03 0. -1.
    8880022    1    1    2    0    0 -0.11642925802E+03  0.41359818367E+03 -0.16775589257E+03  0.48595567922E+03  0.15294330000E+03 0.  0.
<mgrwt>
<rscale>  0 0.68626929E+03</rscale>
<asrwt>0</asrwt>
<pdfrwt beam="1">  1        2 0.48742293E+00 0.78640285E+03</pdfrwt>
<pdfrwt beam="2">  1       -2 0.58189981E-01 0.78640285E+03</pdfrwt>
<totfact> 0.40014328E+00</totfact>
</mgrwt>
</event>
<event>
 4    2  0.6914693E-007  0.1202537E+04  0.7818608E-02  0.9154660E-01
          2   -1    0    0  501    0  0.00000000000E+00  0.00000000000E+00  0.15183165317E+04  0.15183165317E+04  0.25500000000E-02 0. -1.
         -2   -1    0    0    0  501 -0.00000000000E+00 -0.00000000000E+00 -0.10709630756E+04  0.10709630756E+04  0.25500000000E-02 0.  1.
    8880023    1    1    2    0    0 -0.70813752073E+03 -0.71472095670E+03 -0.39758315820E+03  0.12665572897E+04  0.65864270000E+03 0.  1.
    8880022    1    1    2    0    0  0.70813752073E+03  0.71472095670E+03  0.84493661433E+03  0.13227223176E+04  0.15294330000E+03 0. -1.
<mgrwt>
<rscale>  0 0.11533917E+04</rscale>
<asrwt>0</asrwt>
<pdfrwt beam="1">  1        2 0.23358716E+00 0.12025369E+04</pdfrwt>
<pdfrwt beam="2">  1       -2 0.16476355E+00 0.12025369E+04</pdfrwt>
<totfact> 0.27969393E+00</totfact>
</mgrwt>
</event>
<event>
 4    2  0.1707507E-006  0.6785170E+03  0.7818608E-02  0.1010175E+00
         -2   -1    0    0    0  501 -0.00000000000E+00  0.00000000000E+00  0.18317612256E+04  0.18317612256E+04  0.25500000000E-02 0.  1.
          2   -1    0    0  501    0  0.00000000000E+00 -0.00000000000E+00 -0.13758059284E+04  0.13758059284E+04  0.25500000000E-02 0. -1.
    8880023    1    1    2    0    0  0.14422508918E+03 -0.75988099237E+02  0.17590829686E+04  0.18854066310E+04  0.65864270000E+03 0.  1.
    8880022    1    1    2    0    0 -0.14422508918E+03  0.75988099237E+02 -0.13031276714E+04  0.13221605230E+04  0.15294330000E+03 0.  0.
<mgrwt>
<rscale>  0 0.51405033E+03</rscale>
<asrwt>0</asrwt>
<pdfrwt beam="1">  1        2 0.21166245E+00 0.67851697E+03</pdfrwt>
<pdfrwt beam="2">  1       -2 0.28180942E+00 0.67851697E+03</pdfrwt>
<totfact> 0.65290581E-01</totfact>
</mgrwt>
</event>
<event>
 4    2  0.6914693E-007  0.8386800E+03  0.7818608E-02  0.9632674E-01
          2   -1    0    0  501    0  0.00000000000E+00  0.00000000000E+00  0.40828758413E+04  0.40828758413E+04  0.25500000000E-02 0. -1.
         -2   -1    0    0    0  501 -0.00000000000E+00 -0.00000000000E+00 -0.13450235416E+03  0.13450235418E+03  0.25500000000E-02 0.  1.
    8880023    1    1    2    0    0 -0.17982724885E+03  0.48706880733E+03  0.15893672311E+04  0.17970732495E+04  0.65864270000E+03 0. -1.
    8880022    1    1    2    0    0  0.17982724885E+03 -0.48706880733E+03  0.23590062560E+04  0.24203049460E+04  0.15294330000E+03 0.  1.
<mgrwt>
<rscale>  0 0.75170815E+03</rscale>
<asrwt>0</asrwt>
<pdfrwt beam="1">  1        2 0.62813470E+00 0.83867996E+03</pdfrwt>
<pdfrwt beam="2">  1       -2 0.20692671E-01 0.83867996E+03</pdfrwt>
<totfact> 0.63931871E+00</totfact>
</mgrwt>
</event>
<event>
 4    2  0.6914693E-007  0.6882401E+03  0.7818608E-02  0.1005000E+00
          2   -1    0    0  501    0  0.00000000000E+00  0.00000000000E+00  0.17587500574E+04  0.17587500574E+04  0.25500000000E-02 0. -1.
         -2   -1    0    0    0  501 -0.00000000000E+00 -0.00000000000E+00 -0.21853659724E+03  0.21853659726E+03  0.25500000000E-02 0.  1.
    8880023    1    1    2    0    0  0.16650223474E+03  0.11018708879E+03  0.37207073120E+03  0.78237524500E+03  0.65864270000E+03 0.  1.
    8880022    1    1    2    0    0 -0.16650223474E+03 -0.11018708879E+03  0.11681427289E+04  0.11949114096E+04  0.15294330000E+03 0.  0.
<mgrwt>
<rscale>  0 0.53510936E+03</rscale>
<asrwt>0</asrwt>
<pdfrwt beam="1">  1        2 0.27057695E+00 0.68824007E+03</pdfrwt>
<pdfrwt beam="2">  1       -2 0.33621013E-01 0.68824007E+03</pdfrwt>
<totfact> 0.77509606E+01</totfact>
</mgrwt>
</event>
<event>
 4    2  0.6914693E-007  0.8488386E+03  0.7818608E-02  0.9613734E-01
         -2   -1    0    0    0  501 -0.00000000000E+00  0.00000000000E+00  0.67171815679E+03  0.67171815679E+03  0.25500000000E-02 0.  1.
          2   -1    0    0  501    0  0.00000000000E+00 -0.00000000000E+00 -0.76032911667E+03  0.76032911667E+03  0.25500000000E-02 0. -1.
    8880023    1    1    2    0    0 -0.24976370779E+03  0.47364004023E+03  0.73615982000E+02  0.85202483327E+03  0.65864270000E+03 0.  1.
    8880022    1    1    2    0    0  0.24976370779E+03 -0.47364004023E+03 -0.16222694188E+03  0.58002244019E+03  0.15294330000E+03 0.  0.
<mgrwt>
<rscale>  0 0.76393789E+03</rscale>
<asrwt>0</asrwt>
<pdfrwt beam="1">  1        2 0.11697371E+00 0.84883862E+03</pdfrwt>
<pdfrwt beam="2">  1       -2 0.10334125E+00 0.84883862E+03</pdfrwt>
<totfact> 0.28290347E+01</totfact>
</mgrwt>
</event>
<event>
 4    2  0.7019627E-007  0.8867884E+03  0.7818608E-02  0.9547582E-01
         -2   -1    0    0    0  501 -0.00000000000E+00  0.00000000000E+00  0.80901286811E+03  0.80901286811E+03  0.25500000000E-02 0.  1.
          2   -1    0    0  501    0  0.00000000000E+00 -0.00000000000E+00 -0.30229977675E+04  0.30229977675E+04  0.25500000000E-02 0. -1.
    8880023    1    1    2    0    0  0.42516564403E+03  0.41450899073E+03  0.52142026779E+03  0.10287238843E+04  0.65864270000E+03 0.  1.
    8880022    1    1    2    0    0 -0.42516564403E+03 -0.41450899073E+03 -0.27354051672E+04  0.28032867513E+04  0.15294330000E+03 0.  0.
<mgrwt>
<rscale>  0 0.80864874E+03</rscale>
<asrwt>0</asrwt>
<pdfrwt beam="1">  1        2 0.46507657E+00 0.88678844E+03</pdfrwt>
<pdfrwt beam="2">  1       -2 0.12446352E+00 0.88678844E+03</pdfrwt>
<totfact> 0.84826699E-01</totfact>
</mgrwt>
</event>
<event>
 4    2  0.6914693E-007  0.6868185E+03  0.7818608E-02  0.1005703E+00
          2   -1    0    0  501    0  0.00000000000E+00  0.00000000000E+00  0.49162714532E+03  0.49162714533E+03  0.25500000000E-02 0. -1.
         -2   -1    0    0    0  501 -0.00000000000E+00 -0.00000000000E+00 -0.82683500191E+03  0.82683500191E+03  0.25500000000E-02 0.  1.
    8880023    1    1    2    0    0  0.15596804241E+02 -0.19407788036E+03 -0.63103448830E+03  0.93269727974E+03  0.65864270000E+03 0.  1.
    8880022    1    1    2    0    0 -0.15596804241E+02  0.19407788036E+03  0.29582663172E+03  0.38576486750E+03  0.15294330000E+03 0.  0.
<mgrwt>
<rscale>  0 0.53218799E+03</rscale>
<asrwt>0</asrwt>
<pdfrwt beam="1">  1        2 0.75634945E-01 0.68681853E+03</pdfrwt>
<pdfrwt beam="2">  1       -2 0.12720539E+00 0.68681853E+03</pdfrwt>
<totfact> 0.29321711E+01</totfact>
</mgrwt>
</event>
<event>
 4    2  0.6914693E-007  0.7246404E+03  0.7818608E-02  0.9907186E-01
         -2   -1    0    0    0  501 -0.00000000000E+00  0.00000000000E+00  0.15682454304E+03  0.15682454306E+03  0.25500000000E-02 0.  1.
          2   -1    0    0  501    0  0.00000000000E+00 -0.00000000000E+00 -0.20608885519E+04  0.20608885519E+04  0.25500000000E-02 0. -1.
    8880023    1    1    2    0    0 -0.26862443361E+03  0.13832708993E+03 -0.88482577388E+03  0.11436871629E+04  0.65864270000E+03 0. -1.
    8880022    1    1    2    0    0  0.26862443361E+03 -0.13832708993E+03 -0.10192382350E+04  0.10740259321E+04  0.15294330000E+03 0.  1.
<mgrwt>
<rscale>  0 0.59914271E+03</rscale>
<asrwt>0</asrwt>
<pdfrwt beam="1">  1        2 0.31705976E+00 0.72464038E+03</pdfrwt>
<pdfrwt beam="2">  1       -2 0.24126854E-01 0.72464038E+03</pdfrwt>
<totfact> 0.97324188E+01</totfact>
</mgrwt>
</event>
<event>
 4    2  0.6914693E-007  0.6769690E+03  0.7818608E-02  0.1011093E+00
         -2   -1    0    0    0  501 -0.00000000000E+00  0.00000000000E+00  0.21441653587E+03  0.21441653588E+03  0.25500000000E-02 0.  1.
          2   -1    0    0  501    0  0.00000000000E+00 -0.00000000000E+00 -0.18850832484E+04  0.18850832484E+04  0.25500000000E-02 0. -1.
    8880023    1    1    2    0    0 -0.14798342659E+03  0.50771438557E+02 -0.35239713134E+03  0.76319773189E+03  0.65864270000E+03 0.  1.
    8880022    1    1    2    0    0  0.14798342659E+03 -0.50771438557E+02 -0.13182695812E+04  0.13363020524E+04  0.15294330000E+03 0.  0.
<mgrwt>
<rscale>  0 0.51042602E+03</rscale>
<asrwt>0</asrwt>
<pdfrwt beam="1">  1        2 0.29001280E+00 0.67696901E+03</pdfrwt>
<pdfrwt beam="2">  1       -2 0.32987161E-01 0.67696901E+03</pdfrwt>
<totfact> 0.68683635E+01</totfact>
</mgrwt>
</event>
<event>
 4    2  0.6914693E-007  0.7556277E+03  0.7818608E-02  0.9816561E-01
          2   -1    0    0  501    0  0.00000000000E+00  0.00000000000E+00  0.76925005764E+03  0.76925005765E+03  0.25500000000E-02 0. -1.
         -2   -1    0    0    0  501 -0.00000000000E+00 -0.00000000000E+00 -0.14198327585E+04  0.14198327585E+04  0.25500000000E-02 0.  1.
    8880023    1    1    2    0    0  0.23761638186E+03  0.28408007918E+03 -0.12544010912E+04  0.14644095534E+04  0.65864270000E+03 0.  0.
    8880022    1    1    2    0    0 -0.23761638186E+03 -0.28408007918E+03  0.60381839028E+03  0.72467326277E+03  0.15294330000E+03 0.  0.
<mgrwt>
<rscale>  0 0.64481300E+03</rscale>
<asrwt>0</asrwt>
<pdfrwt beam="1">  1        2 0.11834616E+00 0.75562771E+03</pdfrwt>
<pdfrwt beam="2">  1       -2 0.21843581E+00 0.75562771E+03</pdfrwt>
<totfact> 0.37566212E+00</totfact>
</mgrwt>
</event>
<event>
 4    2  0.6914693E-007  0.7010768E+03  0.7818608E-02  0.9992763E-01
         -2   -1    0    0    0  501 -0.00000000000E+00  0.00000000000E+00  0.20648682255E+03  0.20648682256E+03  0.25500000000E-02 0.  1.
          2   -1    0    0  501    0  0.00000000000E+00 -0.00000000000E+00 -0.13879269530E+04  0.13879269530E+04  0.25500000000E-02 0. -1.
    8880023    1    1    2    0    0  0.19221040211E+03  0.14406106912E+03 -0.51567197168E+03  0.87030237214E+03  0.65864270000E+03 0.  0.
    8880022    1    1    2    0    0 -0.19221040211E+03 -0.14406106912E+03 -0.66576815874E+03  0.72411140339E+03  0.15294330000E+03 0.  1.
<mgrwt>
<rscale>  0 0.55968691E+03</rscale>
<asrwt>0</asrwt>
<pdfrwt beam="1">  1        2 0.21352722E+00 0.70107677E+03</pdfrwt>
<pdfrwt beam="2">  1       -2 0.31767204E-01 0.70107677E+03</pdfrwt>
<totfact> 0.13800867E+02</totfact>
</mgrwt>
</event>
<event>
 4    2  0.6914693E-007  0.1537596E+04  0.7818608E-02  0.8883535E-01
          2   -1    0    0  501    0  0.00000000000E+00  0.00000000000E+00  0.28584543364E+04  0.28584543364E+04  0.25500000000E-02 0. -1.
         -2   -1    0    0    0  501 -0.00000000000E+00 -0.00000000000E+00 -0.12607996015E+04  0.12607996015E+04  0.25500000000E-02 0.  1.
    8880023    1    1    2    0    0 -0.91499379740E+03 -0.10455508320E+04 -0.48389244167E+03  0.16119405364E+04  0.65864270000E+03 0.  0.
    8880022    1    1    2    0    0  0.91499379740E+03  0.10455508320E+04  0.20815471766E+04  0.25073134014E+04  0.15294330000E+03 0.  0.
<mgrwt>
<rscale>  0 0.15013817E+04</rscale>
<asrwt>0</asrwt>
<pdfrwt beam="1">  1        2 0.43976220E+00 0.15375957E+04</pdfrwt>
<pdfrwt beam="2">  1       -2 0.19396917E+00 0.15375957E+04</pdfrwt>
<totfact> 0.29130237E-01</totfact>
</mgrwt>
</event>
<event>
 4    2  0.6914693E-007  0.7349464E+03  0.7818608E-02  0.9874920E-01
          2   -1    0    0  501    0  0.00000000000E+00  0.00000000000E+00  0.53100610184E+03  0.53100610184E+03  0.25500000000E-02 0. -1.
         -2   -1    0    0    0  501 -0.00000000000E+00 -0.00000000000E+00 -0.57678772112E+03  0.57678772112E+03  0.25500000000E-02 0.  1.
    8880023    1    1    2    0    0  0.26491295350E+03  0.19015043975E+03  0.45095553448E+02  0.73632864801E+03  0.65864270000E+03 0. -1.
    8880022    1    1    2    0    0 -0.26491295350E+03 -0.19015043975E+03 -0.90877172726E+02  0.37146517496E+03  0.15294330000E+03 0.  0.
<mgrwt>
<rscale>  0 0.61492318E+03</rscale>
<asrwt>0</asrwt>
<pdfrwt beam="1">  1        2 0.81693247E-01 0.73494644E+03</pdfrwt>
<pdfrwt beam="2">  1       -2 0.88736572E-01 0.73494644E+03</pdfrwt>
<totfact> 0.63450566E+01</totfact>
</mgrwt>
</event>
<event>
 4    2  0.6914693E-007  0.8232634E+03  0.7818608E-02  0.9662585E-01
          2   -1    0    0  501    0  0.00000000000E+00  0.00000000000E+00  0.31914456469E+04  0.31914456469E+04  0.25500000000E-02 0. -1.
         -2   -1    0    0    0  501 -0.00000000000E+00 -0.00000000000E+00 -0.16113438447E+03  0.16113438449E+03  0.25500000000E-02 0.  1.
    8880023    1    1    2    0    0  0.31819528799E+03 -0.37776204184E+03  0.12346186872E+04  0.14839292135E+04  0.65864270000E+03 0.  1.
    8880022    1    1    2    0    0 -0.31819528799E+03  0.37776204184E+03  0.17956925753E+04  0.18686508180E+04  0.15294330000E+03 0.  0.
<mgrwt>
<rscale>  0 0.73288852E+03</rscale>
<asrwt>0</asrwt>
<pdfrwt beam="1">  1        2 0.49099164E+00 0.82326339E+03</pdfrwt>
<pdfrwt beam="2">  1       -2 0.24789905E-01 0.82326339E+03</pdfrwt>
<totfact> 0.20128491E+01</totfact>
</mgrwt>
</event>
<event>
 4    2  0.6914693E-007  0.9096994E+03  0.7818608E-02  0.9510637E-01
         -2   -1    0    0    0  501 -0.00000000000E+00  0.00000000000E+00  0.65245059138E+03  0.65245059138E+03  0.25500000000E-02 0.  1.
          2   -1    0    0  501    0  0.00000000000E+00 -0.00000000000E+00 -0.19709606787E+04  0.19709606787E+04  0.25500000000E-02 0. -1.
    8880023    1    1    2    0    0  0.83946236435E+02  0.62184875722E+03  0.23621895199E+03  0.93986831365E+03  0.65864270000E+03 0.  1.
    8880022    1    1    2    0    0 -0.83946236435E+02 -0.62184875722E+03 -0.15547290393E+04  0.16835429564E+04  0.15294330000E+03 0.  0.
<mgrwt>
<rscale>  0 0.83504130E+03</rscale>
<asrwt>0</asrwt>
<pdfrwt beam="1">  1        2 0.30322472E+00 0.90969943E+03</pdfrwt>
<pdfrwt beam="2">  1       -2 0.10037701E+00 0.90969943E+03</pdfrwt>
<totfact> 0.57420096E+00</totfact>
</mgrwt>
</event>
<event>
 4    2  0.6914693E-007  0.7340782E+03  0.7818608E-02  0.9877545E-01
          2   -1    0    0  501    0  0.00000000000E+00  0.00000000000E+00  0.33502686302E+04  0.33502686302E+04  0.25500000000E-02 0. -1.
         -2   -1    0    0    0  501 -0.00000000000E+00 -0.00000000000E+00 -0.20368247421E+03  0.20368247423E+03  0.25500000000E-02 0.  1.
    8880023    1    1    2    0    0 -0.31599655514E+03  0.72157947188E+02  0.51175093318E+03  0.89485184029E+03  0.65864270000E+03 0.  0.
    8880022    1    1    2    0    0  0.31599655514E+03 -0.72157947188E+02  0.26348352229E+04  0.26590992642E+04  0.15294330000E+03 0.  0.
<mgrwt>
<rscale>  0 0.61361993E+03</rscale>
<asrwt>0</asrwt>
<pdfrwt beam="1">  1        2 0.51542589E+00 0.73407820E+03</pdfrwt>
<pdfrwt beam="2">  1       -2 0.31335769E-01 0.73407820E+03</pdfrwt>
<totfact> 0.10490842E+01</totfact>
</mgrwt>
</event>
<event>
 4    2  0.6914693E-007  0.7454391E+03  0.7818608E-02  0.9844378E-01
          2   -1    0    0  501    0  0.00000000000E+00  0.00000000000E+00  0.26329401361E+04  0.26329401361E+04  0.25500000000E-02 0. -1.
         -2   -1    0    0    0  501 -0.00000000000E+00 -0.00000000000E+00 -0.14116420607E+03  0.14116420609E+03  0.25500000000E-02 0.  1.
    8880023    1    1    2    0    0  0.25579537726E+03  0.23756672633E+03  0.10834754624E+04  0.13151420107E+04  0.65864270000E+03 0.  1.
    8880022    1    1    2    0    0 -0.25579537726E+03 -0.23756672633E+03  0.14083004677E+04  0.14589623315E+04  0.15294330000E+03 0.  0.
<mgrwt>
<rscale>  0 0.63034412E+03</rscale>
<asrwt>0</asrwt>
<pdfrwt beam="1">  1        2 0.40506769E+00 0.74543909E+03</pdfrwt>
<pdfrwt beam="2">  1       -2 0.21717571E-01 0.74543909E+03</pdfrwt>
<totfact> 0.56083709E+01</totfact>
</mgrwt>
</event>
<event>
 4    2  0.6914693E-007  0.6851131E+03  0.7818608E-02  0.1006568E+00
         -2   -1    0    0    0  501 -0.00000000000E+00  0.00000000000E+00  0.35775372439E+03  0.35775372440E+03  0.25500000000E-02 0.  1.
          2   -1    0    0  501    0  0.00000000000E+00 -0.00000000000E+00 -0.61408784773E+03  0.61408784774E+03  0.25500000000E-02 0. -1.
    8880023    1    1    2    0    0 -0.11010679947E+03 -0.15312175542E+03 -0.12720548036E+03  0.69682222967E+03  0.65864270000E+03 0.  1.
    8880022    1    1    2    0    0  0.11010679947E+03  0.15312175542E+03 -0.12912864298E+03  0.27501934246E+03  0.15294330000E+03 0.  0.
<mgrwt>
<rscale>  0 0.52861894E+03</rscale>
<asrwt>0</asrwt>
<pdfrwt beam="1">  1        2 0.94475053E-01 0.68511312E+03</pdfrwt>
<pdfrwt beam="2">  1       -2 0.55039035E-01 0.68511312E+03</pdfrwt>
<totfact> 0.15176200E+02</totfact>
</mgrwt>
</event>
<event>
 4    2  0.6914693E-007  0.8052167E+03  0.7818608E-02  0.9699628E-01
          2   -1    0    0  501    0  0.00000000000E+00  0.00000000000E+00  0.35821326770E+03  0.35821326771E+03  0.25500000000E-02 0. -1.
         -2   -1    0    0    0  501 -0.00000000000E+00 -0.00000000000E+00 -0.11789607414E+04  0.11789607414E+04  0.25500000000E-02 0.  1.
    8880023    1    1    2    0    0 -0.41358018338E+03  0.20860278751E+03 -0.58564906059E+03  0.99566998522E+03  0.65864270000E+03 0.  0.
    8880022    1    1    2    0    0  0.41358018338E+03 -0.20860278751E+03 -0.23509841314E+03  0.54150402391E+03  0.15294330000E+03 0.  1.
<mgrwt>
<rscale>  0 0.71038945E+03</rscale>
<asrwt>0</asrwt>
<pdfrwt beam="1">  1        2 0.55109734E-01 0.80521668E+03</pdfrwt>
<pdfrwt beam="2">  1       -2 0.18137857E+00 0.80521668E+03</pdfrwt>
<totfact> 0.16144126E+01</totfact>
</mgrwt>
</event>
<event>
 4    2  0.6914693E-007  0.6774171E+03  0.7818608E-02  0.1010824E+00
          2   -1    0    0  501    0  0.00000000000E+00  0.00000000000E+00  0.20847535960E+04  0.20847535960E+04  0.25500000000E-02 0. -1.
         -2   -1    0    0    0  501 -0.00000000000E+00 -0.00000000000E+00 -0.10914988046E+03  0.10914988049E+03  0.25500000000E-02 0.  1.
    8880023    1    1    2    0    0 -0.14065226599E+03 -0.72805967520E+02  0.11069354502E+04  0.12977673390E+04  0.65864270000E+03 0.  1.
    8880022    1    1    2    0    0  0.14065226599E+03  0.72805967520E+02  0.86866826534E+03  0.89613613757E+03  0.15294330000E+03 0.  0.
<mgrwt>
<rscale>  0 0.51148433E+03</rscale>
<asrwt>0</asrwt>
<pdfrwt beam="1">  1        2 0.32073131E+00 0.67741714E+03</pdfrwt>
<pdfrwt beam="2">  1       -2 0.16792290E-01 0.67741714E+03</pdfrwt>
<totfact> 0.17901636E+02</totfact>
</mgrwt>
</event>
<event>
 4    2  0.6914693E-007  0.7162855E+03  0.7818608E-02  0.9935361E-01
          2   -1    0    0  501    0  0.00000000000E+00  0.00000000000E+00  0.53743815352E+03  0.53743815352E+03  0.25500000000E-02 0. -1.
         -2   -1    0    0    0  501 -0.00000000000E+00 -0.00000000000E+00 -0.12606164809E+04  0.12606164809E+04  0.25500000000E-02 0.  1.
    8880023    1    1    2    0    0 -0.27049375058E+03  0.78024721116E+02 -0.10942300788E+04  0.13078242993E+04  0.65864270000E+03 0.  1.
    8880022    1    1    2    0    0  0.27049375058E+03 -0.78024721116E+02  0.37105175143E+03  0.49023033511E+03  0.15294330000E+03 0.  0.
<mgrwt>
<rscale>  0 0.58577736E+03</rscale>
<asrwt>0</asrwt>
<pdfrwt beam="1">  1        2 0.82682793E-01 0.71628551E+03</pdfrwt>
<pdfrwt beam="2">  1       -2 0.19394100E+00 0.71628551E+03</pdfrwt>
<totfact> 0.84397800E+00</totfact>
</mgrwt>
</event>
<event>
 4    2  0.6914693E-007  0.6805156E+03  0.7818608E-02  0.1009033E+00
          2   -1    0    0  501    0  0.00000000000E+00  0.00000000000E+00  0.30645174817E+04  0.30645174817E+04  0.25500000000E-02 0. -1.
         -2   -1    0    0    0  501 -0.00000000000E+00 -0.00000000000E+00 -0.13032501339E+03  0.13032501341E+03  0.25500000000E-02 0.  1.
    8880023    1    1    2    0    0 -0.17079921132E+03 -0.10904251849E+02  0.80841780187E+03  0.10567122702E+04  0.65864270000E+03 0.  0.
    8880022    1    1    2    0    0  0.17079921132E+03  0.10904251849E+02  0.21257746664E+04  0.21381302249E+04  0.15294330000E+03 0.  0.
<mgrwt>
<rscale>  0 0.51860572E+03</rscale>
<asrwt>0</asrwt>
<pdfrwt beam="1">  1        2 0.47146423E+00 0.68051560E+03</pdfrwt>
<pdfrwt beam="2">  1       -2 0.20050002E-01 0.68051560E+03</pdfrwt>
<totfact> 0.36064853E+01</totfact>
</mgrwt>
</event>
<event>
 4    2  0.6914693E-007  0.2171533E+04  0.7818608E-02  0.8540836E-01
          2   -1    0    0  501    0  0.00000000000E+00  0.00000000000E+00  0.50389439046E+04  0.50389439046E+04  0.25500000000E-02 0. -1.
         -2   -1    0    0    0  501 -0.00000000000E+00 -0.00000000000E+00 -0.14608356740E+04  0.14608356740E+04  0.25500000000E-02 0.  1.
    8880023    1    1    2    0    0  0.15471453064E+04 -0.13740759713E+04 -0.20895668467E+03  0.21815628518E+04  0.65864270000E+03 0.  0.
    8880022    1    1    2    0    0 -0.15471453064E+04  0.13740759713E+04  0.37870649153E+04  0.43182167268E+04  0.15294330000E+03 0.  0.
<mgrwt>
<rscale>  0 0.21469558E+04</rscale>
<asrwt>0</asrwt>
<pdfrwt beam="1">  1        2 0.77522213E+00 0.21715325E+04</pdfrwt>
<pdfrwt beam="2">  1       -2 0.22474395E+00 0.21715325E+04</pdfrwt>
<totfact> 0.24929913E-03</totfact>
</mgrwt>
</event>
<event>
 4    2  0.6914693E-007  0.7768445E+03  0.7818608E-02  0.9763302E-01
         -2   -1    0    0    0  501 -0.00000000000E+00  0.00000000000E+00  0.26919041634E+03  0.26919041636E+03  0.25500000000E-02 0.  1.
          2   -1    0    0  501    0  0.00000000000E+00 -0.00000000000E+00 -0.15117216072E+04  0.15117216072E+04  0.25500000000E-02 0. -1.
    8880023    1    1    2    0    0  0.25260085283E+02 -0.41114365457E+03 -0.51851203508E+03  0.93399256602E+03  0.65864270000E+03 0.  0.
    8880022    1    1    2    0    0 -0.25260085283E+02  0.41114365457E+03 -0.72401915579E+03  0.84691945755E+03  0.15294330000E+03 0.  0.
<mgrwt>
<rscale>  0 0.67369697E+03</rscale>
<asrwt>0</asrwt>
<pdfrwt beam="1">  1        2 0.23257255E+00 0.77684450E+03</pdfrwt>
<pdfrwt beam="2">  1       -2 0.41413911E-01 0.77684450E+03</pdfrwt>
<totfact> 0.70277907E+01</totfact>
</mgrwt>
</event>
<event>
 4    2  0.6914693E-007  0.6623755E+03  0.7818608E-02  0.1021845E+00
          2   -1    0    0  501    0  0.00000000000E+00  0.00000000000E+00  0.43129579994E+03  0.43129579995E+03  0.25500000000E-02 0. -1.
         -2   -1    0    0    0  501 -0.00000000000E+00 -0.00000000000E+00 -0.73791421917E+03  0.73791421918E+03  0.25500000000E-02 0.  1.
    8880023    1    1    2    0    0 -0.54587513029E+02 -0.44173827474E+02 -0.55841241308E+03  0.86635197983E+03  0.65864270000E+03 0.  1.
    8880022    1    1    2    0    0  0.54587513029E+02  0.44173827474E+02  0.25179399385E+03  0.30285803930E+03  0.15294330000E+03 0.  0.
<mgrwt>
<rscale>  0 0.47026774E+03</rscale>
<asrwt>0</asrwt>
<pdfrwt beam="1">  1        2 0.66353200E-01 0.66237552E+03</pdfrwt>
<pdfrwt beam="2">  1       -2 0.11352526E+00 0.66237552E+03</pdfrwt>
<totfact> 0.45211800E+01</totfact>
</mgrwt>
</event>
<event>
 4    2  0.6914693E-007  0.8979974E+03  0.7818608E-02  0.9529254E-01
          2   -1    0    0  501    0  0.00000000000E+00  0.00000000000E+00  0.30224216657E+04  0.30224216657E+04  0.25500000000E-02 0. -1.
         -2   -1    0    0    0  501 -0.00000000000E+00 -0.00000000000E+00 -0.25670494038E+03  0.25670494039E+03  0.25500000000E-02 0.  1.
    8880023    1    1    2    0    0  0.31734732310E+03  0.52142092692E+03  0.75812621963E+03  0.11752253731E+04  0.65864270000E+03 0.  1.
    8880022    1    1    2    0    0 -0.31734732310E+03 -0.52142092692E+03  0.20075905057E+04  0.21039012329E+04  0.15294330000E+03 0. -1.
<mgrwt>
<rscale>  0 0.82160972E+03</rscale>
<asrwt>0</asrwt>
<pdfrwt beam="1">  1        2 0.46498794E+00 0.89799739E+03</pdfrwt>
<pdfrwt beam="2">  1       -2 0.39493069E-01 0.89799739E+03</pdfrwt>
<totfact> 0.10611486E+01</totfact>
</mgrwt>
</event>
<event>
 4    2  0.6914693E-007  0.9284058E+03  0.7818608E-02  0.9481889E-01
         -2   -1    0    0    0  501 -0.00000000000E+00  0.00000000000E+00  0.62786841272E+03  0.62786841273E+03  0.25500000000E-02 0.  1.
          2   -1    0    0  501    0  0.00000000000E+00 -0.00000000000E+00 -0.26860340813E+04  0.26860340813E+04  0.25500000000E-02 0. -1.
    8880023    1    1    2    0    0  0.11770795114E+03 -0.64363968002E+03  0.20697416289E+03  0.95119698792E+03  0.65864270000E+03 0.  1.
    8880022    1    1    2    0    0 -0.11770795114E+03  0.64363968002E+03 -0.22651398315E+04  0.23627055061E+04  0.15294330000E+03 0.  0.
<mgrwt>
<rscale>  0 0.85632354E+03</rscale>
<asrwt>0</asrwt>
<pdfrwt beam="1">  1        2 0.41323601E+00 0.92840584E+03</pdfrwt>
<pdfrwt beam="2">  1       -2 0.96595142E-01 0.92840584E+03</pdfrwt>
<totfact> 0.24837464E+00</totfact>
</mgrwt>
</event>
<event>
 4    2  0.6914693E-007  0.7688966E+03  0.7818608E-02  0.9782597E-01
         -2   -1    0    0    0  501 -0.00000000000E+00  0.00000000000E+00  0.26339003542E+03  0.26339003543E+03  0.25500000000E-02 0.  1.
          2   -1    0    0  501    0  0.00000000000E+00 -0.00000000000E+00 -0.13582364119E+04  0.13582364119E+04  0.25500000000E-02 0. -1.
    8880023    1    1    2    0    0 -0.38273410434E+03  0.10443351012E+03 -0.75101828199E+03  0.10748164582E+04  0.65864270000E+03 0.  1.
    8880022    1    1    2    0    0  0.38273410434E+03 -0.10443351012E+03 -0.34382809451E+03  0.54680998916E+03  0.15294330000E+03 0. -1.
<mgrwt>
<rscale>  0 0.66304922E+03</rscale>
<asrwt>0</asrwt>
<pdfrwt beam="1">  1        2 0.20895944E+00 0.76889659E+03</pdfrwt>
<pdfrwt beam="2">  1       -2 0.40521545E-01 0.76889659E+03</pdfrwt>
<totfact> 0.89551268E+01</totfact>
</mgrwt>
</event>
<event>
 4    2  0.6914693E-007  0.8080937E+03  0.7818608E-02  0.9693562E-01
         -2   -1    0    0    0  501 -0.00000000000E+00  0.00000000000E+00  0.17180645842E+03  0.17180645844E+03  0.25500000000E-02 0.  1.
          2   -1    0    0  501    0  0.00000000000E+00 -0.00000000000E+00 -0.37383489779E+04  0.37383489779E+04  0.25500000000E-02 0. -1.
    8880023    1    1    2    0    0 -0.46814341557E+03 -0.68483201619E+01 -0.94794404921E+03  0.12456377016E+04  0.65864270000E+03 0.  0.
    8880022    1    1    2    0    0  0.46814341557E+03  0.68483201619E+01 -0.26185984703E+04  0.26645177347E+04  0.15294330000E+03 0.  0.
<mgrwt>
<rscale>  0 0.71401430E+03</rscale>
<asrwt>0</asrwt>
<pdfrwt beam="1">  1        2 0.57513055E+00 0.80809366E+03</pdfrwt>
<pdfrwt beam="2">  1       -2 0.26431766E-01 0.80809366E+03</pdfrwt>
<totfact> 0.76348596E+00</totfact>
</mgrwt>
</event>
<event>
 4    2  0.6914693E-007  0.6618791E+03  0.7818608E-02  0.1022309E+00
         -2   -1    0    0    0  501 -0.00000000000E+00  0.00000000000E+00  0.15439272108E+03  0.15439272110E+03  0.25500000000E-02 0.  1.
          2   -1    0    0  501    0  0.00000000000E+00 -0.00000000000E+00 -0.19539659515E+04  0.19539659515E+04  0.25500000000E-02 0. -1.
    8880023    1    1    2    0    0  0.45638378181E+01  0.65214363162E+02 -0.58775197118E+03  0.88517587386E+03  0.65864270000E+03 0.  1.
    8880022    1    1    2    0    0 -0.45638378181E+01 -0.65214363162E+02 -0.12118212593E+04  0.12231827988E+04  0.15294330000E+03 0.  0.
<mgrwt>
<rscale>  0 0.46862571E+03</rscale>
<asrwt>0</asrwt>
<pdfrwt beam="1">  1        2 0.30061013E+00 0.66187910E+03</pdfrwt>
<pdfrwt beam="2">  1       -2 0.23752728E-01 0.66187910E+03</pdfrwt>
<totfact> 0.11526241E+02</totfact>
</mgrwt>
</event>
<event>
 4    2  0.6914693E-007  0.7029937E+03  0.7818608E-02  0.9985001E-01
          2   -1    0    0  501    0  0.00000000000E+00  0.00000000000E+00  0.12793622397E+04  0.12793622397E+04  0.25500000000E-02 0. -1.
         -2   -1    0    0    0  501 -0.00000000000E+00 -0.00000000000E+00 -0.97606685886E+03  0.97606685886E+03  0.25500000000E-02 0.  1.
    8880023    1    1    2    0    0 -0.12023019686E+03  0.21432382441E+03 -0.82887383982E+03  0.10868449984E+04  0.65864270000E+03 0.  1.
    8880022    1    1    2    0    0  0.12023019686E+03 -0.21432382441E+03  0.11321692207E+04  0.11685841002E+04  0.15294330000E+03 0.  0.
<mgrwt>
<rscale>  0 0.56312812E+03</rscale>
<asrwt>0</asrwt>
<pdfrwt beam="1">  1        2 0.19682496E+00 0.70299375E+03</pdfrwt>
<pdfrwt beam="2">  1       -2 0.15016413E+00 0.70299375E+03</pdfrwt>
<totfact> 0.52291227E+00</totfact>
</mgrwt>
</event>
<event>
 4    2  0.6914693E-007  0.6767978E+03  0.7818608E-02  0.1011196E+00
         -2   -1    0    0    0  501 -0.00000000000E+00  0.00000000000E+00  0.42756188953E+03  0.42756188954E+03  0.25500000000E-02 0.  1.
          2   -1    0    0  501    0  0.00000000000E+00 -0.00000000000E+00 -0.47143837824E+03  0.47143837825E+03  0.25500000000E-02 0. -1.
    8880023    1    1    2    0    0 -0.12561135676E+03  0.92015239243E+02 -0.63995784557E+02  0.67981665462E+03  0.65864270000E+03 0.  0.
    8880022    1    1    2    0    0  0.12561135676E+03 -0.92015239243E+02  0.20119295848E+02  0.21918361316E+03  0.15294330000E+03 0. -1.
<mgrwt>
<rscale>  0 0.51001960E+03</rscale>
<asrwt>0</asrwt>
<pdfrwt beam="1">  1        2 0.72528982E-01 0.67679777E+03</pdfrwt>
<pdfrwt beam="2">  1       -2 0.65778752E-01 0.67679777E+03</pdfrwt>
<totfact> 0.14221899E+02</totfact>
</mgrwt>
</event>
<event>
 4    2  0.6914693E-007  0.8090423E+03  0.7818608E-02  0.9691575E-01
         -2   -1    0    0    0  501 -0.00000000000E+00  0.00000000000E+00  0.36165662579E+03  0.36165662580E+03  0.25500000000E-02 0.  1.
          2   -1    0    0  501    0  0.00000000000E+00 -0.00000000000E+00 -0.15154632138E+04  0.15154632138E+04  0.25500000000E-02 0. -1.
    8880023    1    1    2    0    0  0.19482902029E+03  0.42752877012E+03 -0.24951081939E+03  0.84664340290E+03  0.65864270000E+03 0.  1.
    8880022    1    1    2    0    0 -0.19482902029E+03 -0.42752877012E+03 -0.90429576867E+03  0.10304764367E+04  0.15294330000E+03 0.  0.
<mgrwt>
<rscale>  0 0.71520616E+03</rscale>
<asrwt>0</asrwt>
<pdfrwt beam="1">  1        2 0.23314818E+00 0.80904227E+03</pdfrwt>
<pdfrwt beam="2">  1       -2 0.55639482E-01 0.80904227E+03</pdfrwt>
<totfact> 0.38380655E+01</totfact>
</mgrwt>
</event>
<event>
 4    2  0.6914693E-007  0.1044491E+04  0.7818608E-02  0.9325533E-01
          2   -1    0    0  501    0  0.00000000000E+00  0.00000000000E+00  0.65715142998E+03  0.65715142998E+03  0.25500000000E-02 0. -1.
         -2   -1    0    0    0  501 -0.00000000000E+00 -0.00000000000E+00 -0.31188069342E+04  0.31188069342E+04  0.25500000000E-02 0.  1.
    8880023    1    1    2    0    0 -0.71242398815E+03  0.38678715075E+03  0.13336210172E+03  0.10529709850E+04  0.65864270000E+03 0.  0.
    8880022    1    1    2    0    0  0.71242398815E+03 -0.38678715075E+03 -0.25950176059E+04  0.27229873791E+04  0.15294330000E+03 0.  0.
<mgrwt>
<rscale>  0 0.98465863E+03</rscale>
<asrwt>0</asrwt>
<pdfrwt beam="1">  1        2 0.10110022E+00 0.10444915E+04</pdfrwt>
<pdfrwt beam="2">  1       -2 0.47981644E+00 0.10444915E+04</pdfrwt>
<totfact> 0.99048575E-02</totfact>
</mgrwt>
</event>
<event>
 4    2  0.6914693E-007  0.8139361E+03  0.7818608E-02  0.9681436E-01
         -2   -1    0    0    0  501 -0.00000000000E+00  0.00000000000E+00  0.11511736431E+04  0.11511736431E+04  0.25500000000E-02 0.  1.
          2   -1    0    0  501    0  0.00000000000E+00 -0.00000000000E+00 -0.82958089462E+03  0.82958089463E+03  0.25500000000E-02 0. -1.
    8880023    1    1    2    0    0 -0.36078534305E+03  0.31387223326E+03  0.90091830567E+03  0.12141440781E+04  0.65864270000E+03 0.  0.
    8880022    1    1    2    0    0  0.36078534305E+03 -0.31387223326E+03 -0.57932555721E+03  0.76661045964E+03  0.15294330000E+03 0.  0.
<mgrwt>
<rscale>  0 0.72132943E+03</rscale>
<asrwt>0</asrwt>
<pdfrwt beam="1">  1        2 0.12762783E+00 0.81393615E+03</pdfrwt>
<pdfrwt beam="2">  1       -2 0.17710364E+00 0.81393615E+03</pdfrwt>
<totfact> 0.63006272E+00</totfact>
</mgrwt>
</event>
<event>
 4    2  0.6914693E-007  0.9522087E+03  0.7818608E-02  0.9446943E-01
          2   -1    0    0  501    0  0.00000000000E+00  0.00000000000E+00  0.15200997122E+04  0.15200997122E+04  0.25500000000E-02 0. -1.
         -2   -1    0    0    0  501 -0.00000000000E+00 -0.00000000000E+00 -0.52721380698E+03  0.52721380699E+03  0.25500000000E-02 0.  1.
    8880023    1    1    2    0    0  0.62442527375E+03  0.28806983932E+03  0.17551387749E+03  0.96824918398E+03  0.65864270000E+03 0.  0.
    8880022    1    1    2    0    0 -0.62442527375E+03 -0.28806983932E+03  0.81737202776E+03  0.10790643352E+04  0.15294330000E+03 0.  0.
<mgrwt>
<rscale>  0 0.88311092E+03</rscale>
<asrwt>0</asrwt>
<pdfrwt beam="1">  1        2 0.23386149E+00 0.95220868E+03</pdfrwt>
<pdfrwt beam="2">  1       -2 0.81109819E-01 0.95220868E+03</pdfrwt>
<totfact> 0.16600427E+01</totfact>
</mgrwt>
</event>
<event>
 4    2  0.6914693E-007  0.8551797E+03  0.7818608E-02  0.9602196E-01
         -2   -1    0    0    0  501 -0.00000000000E+00  0.00000000000E+00  0.18684235141E+04  0.18684235141E+04  0.25500000000E-02 0.  1.
          2   -1    0    0  501    0  0.00000000000E+00 -0.00000000000E+00 -0.30364670052E+03  0.30364670053E+03  0.25500000000E-02 0. -1.
    8880023    1    1    2    0    0  0.49146789910E+03 -0.23660390791E+03  0.12763997774E+04  0.15364012181E+04  0.65864270000E+03 0.  1.
    8880022    1    1    2    0    0 -0.49146789910E+03  0.23660390791E+03  0.28837703620E+03  0.63566899650E+03  0.15294330000E+03 0. -1.
<mgrwt>
<rscale>  0 0.77151003E+03</rscale>
<asrwt>0</asrwt>
<pdfrwt beam="1">  1        2 0.46714877E-01 0.85517970E+03</pdfrwt>
<pdfrwt beam="2">  1       -2 0.28744977E+00 0.85517970E+03</pdfrwt>
<totfact> 0.42031304E+00</totfact>
</mgrwt>
</event>
<event>
 4    2  0.6914693E-007  0.7015287E+03  0.7818608E-02  0.9990918E-01
          2   -1    0    0  501    0  0.00000000000E+00  0.00000000000E+00  0.64206987557E+03  0.64206987557E+03  0.25500000000E-02 0. -1.
         -2   -1    0    0    0  501 -0.00000000000E+00 -0.00000000000E+00 -0.40389529699E+03  0.40389529700E+03  0.25500000000E-02 0.  1.
    8880023    1    1    2    0    0  0.14038049051E+03 -0.19653414681E+03  0.49148474325E+02  0.70324827179E+03  0.65864270000E+03 0.  0.
    8880022    1    1    2    0    0 -0.14038049051E+03  0.19653414681E+03  0.18902610425E+03  0.34271690078E+03  0.15294330000E+03 0.  0.
<mgrwt>
<rscale>  0 0.56050282E+03</rscale>
<asrwt>0</asrwt>
<pdfrwt beam="1">  1        2 0.98779981E-01 0.70152873E+03</pdfrwt>
<pdfrwt beam="2">  1       -2 0.62137738E-01 0.70152873E+03</pdfrwt>
<totfact> 0.11132449E+02</totfact>
</mgrwt>
</event>
<event>
 4    2  0.6914693E-007  0.1664055E+04  0.7818608E-02  0.8801715E-01
          2   -1    0    0  501    0  0.00000000000E+00  0.00000000000E+00  0.37646738319E+04  0.37646738319E+04  0.25500000000E-02 0. -1.
         -2   -1    0    0    0  501 -0.00000000000E+00 -0.00000000000E+00 -0.69618167591E+03  0.69618167592E+03  0.25500000000E-02 0.  1.
    8880023    1    1    2    0    0  0.12725600079E+04 -0.84608589705E+03  0.12539177084E+04  0.20836002843E+04  0.65864270000E+03 0.  0.
    8880022    1    1    2    0    0 -0.12725600079E+04  0.84608589705E+03  0.18145744476E+04  0.23772552235E+04  0.15294330000E+03 0.  0.
<mgrwt>
<rscale>  0 0.16310191E+04</rscale>
<asrwt>0</asrwt>
<pdfrwt beam="1">  1        2 0.57918060E+00 0.16640554E+04</pdfrwt>
<pdfrwt beam="2">  1       -2 0.10710487E+00 0.16640554E+04</pdfrwt>
<totfact> 0.34627422E-01</totfact>
</mgrwt>
</event>
<event>
 4    2  0.6914693E-007  0.9550792E+03  0.7818608E-02  0.9442844E-01
          2   -1    0    0  501    0  0.00000000000E+00  0.00000000000E+00  0.19854346804E+04  0.19854346804E+04  0.25500000000E-02 0. -1.
         -2   -1    0    0    0  501 -0.00000000000E+00 -0.00000000000E+00 -0.48762398214E+03  0.48762398215E+03  0.25500000000E-02 0.  1.
    8880023    1    1    2    0    0 -0.68040186911E+03 -0.12417436897E+03  0.17279294765E+03  0.97058414701E+03  0.65864270000E+03 0.  0.
    8880022    1    1    2    0    0  0.68040186911E+03  0.12417436897E+03  0.13250177506E+04  0.15024745155E+04  0.15294330000E+03 0.  0.
<mgrwt>
<rscale>  0 0.88632147E+03</rscale>
<asrwt>0</asrwt>
<pdfrwt beam="1">  1        2 0.30545149E+00 0.95507915E+03</pdfrwt>
<pdfrwt beam="2">  1       -2 0.75019074E-01 0.95507915E+03</pdfrwt>
<totfact> 0.10944814E+01</totfact>
</mgrwt>
</event>
<event>
 4    2  0.6914693E-007  0.1020526E+04  0.7818608E-02  0.9355182E-01
         -2   -1    0    0    0  501 -0.00000000000E+00  0.00000000000E+00  0.96117886693E+03  0.96117886694E+03  0.25500000000E-02 0.  1.
          2   -1    0    0  501    0  0.00000000000E+00 -0.00000000000E+00 -0.10474859357E+04  0.10474859357E+04  0.25500000000E-02 0. -1.
    8880023    1    1    2    0    0 -0.56360658832E+03  0.53852664406E+03  0.37829876963E+03  0.10883857304E+04  0.65864270000E+03 0.  0.
    8880022    1    1    2    0    0  0.56360658832E+03 -0.53852664406E+03 -0.46460583841E+03  0.92027907227E+03  0.15294330000E+03 0.  0.
<mgrwt>
<rscale>  0 0.95857587E+03</rscale>
<asrwt>0</asrwt>
<pdfrwt beam="1">  1        2 0.16115168E+00 0.10205261E+04</pdfrwt>
<pdfrwt beam="2">  1       -2 0.14787367E+00 0.10205261E+04</pdfrwt>
<totfact> 0.72328316E+00</totfact>
</mgrwt>
</event>
<event>
 4    2  0.6914693E-007  0.6749462E+03  0.7818608E-02  0.1012340E+00
          2   -1    0    0  501    0  0.00000000000E+00  0.00000000000E+00  0.37046402722E+04  0.37046402722E+04  0.25500000000E-02 0. -1.
         -2   -1    0    0    0  501 -0.00000000000E+00 -0.00000000000E+00 -0.13654773810E+03  0.13654773812E+03  0.25500000000E-02 0.  1.
    8880023    1    1    2    0    0 -0.12697816738E+03 -0.74958331539E+02  0.72641501761E+03  0.99158014831E+03  0.65864270000E+03 0.  1.
    8880022    1    1    2    0    0  0.12697816738E+03  0.74958331539E+02  0.28416775165E+04  0.28496078620E+04  0.15294330000E+03 0.  0.
<mgrwt>
<rscale>  0 0.50555067E+03</rscale>
<asrwt>0</asrwt>
<pdfrwt beam="1">  1        2 0.56994463E+00 0.67494623E+03</pdfrwt>
<pdfrwt beam="2">  1       -2 0.21007345E-01 0.67494623E+03</pdfrwt>
<totfact> 0.12508943E+01</totfact>
</mgrwt>
</event>
<event>
 4    2  0.6914693E-007  0.7949420E+03  0.7818608E-02  0.9721841E-01
         -2   -1    0    0    0  501 -0.00000000000E+00  0.00000000000E+00  0.26676425438E+03  0.26676425439E+03  0.25500000000E-02 0.  1.
          2   -1    0    0  501    0  0.00000000000E+00 -0.00000000000E+00 -0.29406426811E+04  0.29406426811E+04  0.25500000000E-02 0. -1.
    8880023    1    1    2    0    0 -0.40293473520E+03 -0.18911962396E+03 -0.40870154326E+03  0.89385110098E+03  0.65864270000E+03 0.  0.
    8880022    1    1    2    0    0  0.40293473520E+03  0.18911962396E+03 -0.22651768835E+04  0.23135558345E+04  0.15294330000E+03 0.  0.
<mgrwt>
<rscale>  0 0.69731148E+03</rscale>
<asrwt>0</asrwt>
<pdfrwt beam="1">  1        2 0.45240654E+00 0.79494204E+03</pdfrwt>
<pdfrwt beam="2">  1       -2 0.41040657E-01 0.79494204E+03</pdfrwt>
<totfact> 0.11224280E+01</totfact>
</mgrwt>
</event>
<event>
 4    2  0.6914693E-007  0.9537495E+03  0.7818608E-02  0.9444740E-01
         -2   -1    0    0    0  501 -0.00000000000E+00  0.00000000000E+00  0.67579865724E+03  0.67579865724E+03  0.25500000000E-02 0.  1.
          2   -1    0    0  501    0  0.00000000000E+00 -0.00000000000E+00 -0.19418674766E+04  0.19418674766E+04  0.25500000000E-02 0. -1.
    8880023    1    1    2    0    0  0.22488533315E+03  0.65211546489E+03  0.21412028655E+03  0.97748948638E+03  0.65864270000E+03 0.  0.
    8880022    1    1    2    0    0 -0.22488533315E+03 -0.65211546489E+03 -0.14801891060E+04  0.16401766475E+04  0.15294330000E+03 0.  0.
<mgrwt>
<rscale>  0 0.88483485E+03</rscale>
<asrwt>0</asrwt>
<pdfrwt beam="1">  1        2 0.29874884E+00 0.95374955E+03</pdfrwt>
<pdfrwt beam="2">  1       -2 0.10396903E+00 0.95374955E+03</pdfrwt>
<totfact> 0.54454267E+00</totfact>
</mgrwt>
</event>
<event>
 4    2  0.9234439E-007  0.1532402E+04  0.7818608E-02  0.8887089E-01
          2   -1    0    0  501    0  0.00000000000E+00  0.00000000000E+00  0.28218722002E+04  0.28218722002E+04  0.25500000000E-02 0. -1.
         -2   -1    0    0    0  501 -0.00000000000E+00 -0.00000000000E+00 -0.13142320092E+04  0.13142320092E+04  0.25500000000E-02 0.  1.
    8880023    1    1    2    0    0 -0.13119137792E+03  0.13774008652E+04 -0.57020430556E+03  0.16350496866E+04  0.65864270000E+03 0.  1.
    8880022    1    1    2    0    0  0.13119137792E+03 -0.13774008652E+04  0.20778444966E+04  0.25010545229E+04  0.15294330000E+03 0.  0.
<mgrwt>
<rscale>  0 0.14960430E+04</rscale>
<asrwt>0</asrwt>
<pdfrwt beam="1">  1        2 0.43413419E+00 0.15324016E+04</pdfrwt>
<pdfrwt beam="2">  1       -2 0.20218954E+00 0.15324016E+04</pdfrwt>
<totfact> 0.27054452E-01</totfact>
</mgrwt>
</event>
<event>
 4    2  0.6914693E-007  0.7373131E+03  0.7818608E-02  0.9867844E-01
         -2   -1    0    0    0  501 -0.00000000000E+00  0.00000000000E+00  0.52496116209E+03  0.52496116209E+03  0.25500000000E-02 0.  1.
          2   -1    0    0  501    0  0.00000000000E+00 -0.00000000000E+00 -0.25008756085E+04  0.25008756085E+04  0.25500000000E-02 0. -1.
    8880023    1    1    2    0    0  0.17011822560E+03 -0.28439446314E+03  0.24360058791E+03  0.77651263611E+03  0.65864270000E+03 0.  1.
    8880022    1    1    2    0    0 -0.17011822560E+03  0.28439446314E+03 -0.22195150344E+04  0.22493241345E+04  0.15294330000E+03 0.  0.
<mgrwt>
<rscale>  0 0.61845331E+03</rscale>
<asrwt>0</asrwt>
<pdfrwt beam="1">  1        2 0.38475009E+00 0.73731311E+03</pdfrwt>
<pdfrwt beam="2">  1       -2 0.80763257E-01 0.73731311E+03</pdfrwt>
<totfact> 0.49505201E+00</totfact>
</mgrwt>
</event>
<event>
 4    2  0.6914693E-007  0.7469392E+03  0.7818608E-02  0.9840176E-01
          2   -1    0    0  501    0  0.00000000000E+00  0.00000000000E+00  0.26298646913E+04  0.26298646913E+04  0.25500000000E-02 0. -1.
         -2   -1    0    0    0  501 -0.00000000000E+00 -0.00000000000E+00 -0.33450283385E+03  0.33450283386E+03  0.25500000000E-02 0.  1.
    8880023    1    1    2    0    0  0.20476098285E+03 -0.28667214115E+03  0.12139796244E+03  0.75674014573E+03  0.65864270000E+03 0.  0.
    8880022    1    1    2    0    0 -0.20476098285E+03  0.28667214115E+03  0.21739638950E+04  0.22076273794E+04  0.15294330000E+03 0.  0.
<mgrwt>
<rscale>  0 0.63250332E+03</rscale>
<asrwt>0</asrwt>
<pdfrwt beam="1">  1        2 0.40459453E+00 0.74693921E+03</pdfrwt>
<pdfrwt beam="2">  1       -2 0.51461979E-01 0.74693921E+03</pdfrwt>
<totfact> 0.10971851E+01</totfact>
</mgrwt>
</event>
<event>
 4    2  0.6914693E-007  0.8664746E+03  0.7818608E-02  0.9582148E-01
          2   -1    0    0  501    0  0.00000000000E+00  0.00000000000E+00  0.29233999066E+04  0.29233999066E+04  0.25500000000E-02 0. -1.
         -2   -1    0    0    0  501 -0.00000000000E+00 -0.00000000000E+00 -0.33358632429E+03  0.33358632430E+03  0.25500000000E-02 0.  1.
    8880023    1    1    2    0    0  0.41044495436E+03  0.38536090166E+03  0.33674482015E+03  0.92961032979E+03  0.65864270000E+03 0.  0.
    8880022    1    1    2    0    0 -0.41044495436E+03 -0.38536090166E+03  0.22530687622E+04  0.23273759011E+04  0.15294330000E+03 0.  0.
<mgrwt>
<rscale>  0 0.78489066E+03</rscale>
<asrwt>0</asrwt>
<pdfrwt beam="1">  1        2 0.44975384E+00 0.86647463E+03</pdfrwt>
<pdfrwt beam="2">  1       -2 0.51320972E-01 0.86647463E+03</pdfrwt>
<totfact> 0.72594010E+00</totfact>
</mgrwt>
</event>
<event>
 4    2  0.6914693E-007  0.7718133E+03  0.7818608E-02  0.9775431E-01
         -2   -1    0    0    0  501 -0.00000000000E+00  0.00000000000E+00  0.34647878957E+03  0.34647878958E+03  0.25500000000E-02 0.  1.
          2   -1    0    0  501    0  0.00000000000E+00 -0.00000000000E+00 -0.17745719034E+04  0.17745719035E+04  0.25500000000E-02 0. -1.
    8880023    1    1    2    0    0  0.36670558182E+03  0.16556741790E+03 -0.16856963405E+03  0.79000726667E+03  0.65864270000E+03 0.  1.
    8880022    1    1    2    0    0 -0.36670558182E+03 -0.16556741790E+03 -0.12595234798E+04  0.13310434264E+04  0.15294330000E+03 0.  0.
<mgrwt>
<rscale>  0 0.66697866E+03</rscale>
<asrwt>0</asrwt>
<pdfrwt beam="1">  1        2 0.27301106E+00 0.77181329E+03</pdfrwt>
<pdfrwt beam="2">  1       -2 0.53304430E-01 0.77181329E+03</pdfrwt>
<totfact> 0.30324977E+01</totfact>
</mgrwt>
</event>
<event>
 4    2  0.6914693E-007  0.8284485E+03  0.7818608E-02  0.9652359E-01
         -2   -1    0    0    0  501 -0.00000000000E+00  0.00000000000E+00  0.26243586111E+03  0.26243586112E+03  0.25500000000E-02 0.  1.
          2   -1    0    0  501    0  0.00000000000E+00 -0.00000000000E+00 -0.21528686006E+04  0.21528686006E+04  0.25500000000E-02 0. -1.
    8880023    1    1    2    0    0  0.96079159076E+02 -0.49323973884E+03 -0.60247795223E+03  0.10243566439E+04  0.65864270000E+03 0.  1.
    8880022    1    1    2    0    0 -0.96079159076E+02  0.49323973884E+03 -0.12879547872E+04  0.13909478178E+04  0.15294330000E+03 0.  0.
<mgrwt>
<rscale>  0 0.73925576E+03</rscale>
<asrwt>0</asrwt>
<pdfrwt beam="1">  1        2 0.33121054E+00 0.82844846E+03</pdfrwt>
<pdfrwt beam="2">  1       -2 0.40374749E-01 0.82844846E+03</pdfrwt>
<totfact> 0.32669306E+01</totfact>
</mgrwt>
</event>
<event>
 4    2  0.6914693E-007  0.7939662E+03  0.7818608E-02  0.9723997E-01
         -2   -1    0    0    0  501 -0.00000000000E+00  0.00000000000E+00  0.13982753464E+04  0.13982753464E+04  0.25500000000E-02 0.  1.
          2   -1    0    0  501    0  0.00000000000E+00 -0.00000000000E+00 -0.56439152980E+03  0.56439152981E+03  0.25500000000E-02 0. -1.
    8880023    1    1    2    0    0  0.44336392589E+03  0.76534843453E+00  0.11497250642E+04  0.13972294321E+04  0.65864270000E+03 0.  1.
    8880022    1    1    2    0    0 -0.44336392589E+03 -0.76534843453E+00 -0.31584124754E+03  0.56543744411E+03  0.15294330000E+03 0.  0.
<mgrwt>
<rscale>  0 0.69605799E+03</rscale>
<asrwt>0</asrwt>
<pdfrwt beam="1">  1        2 0.86829468E-01 0.79396622E+03</pdfrwt>
<pdfrwt beam="2">  1       -2 0.21511928E+00 0.79396622E+03</pdfrwt>
<totfact> 0.57643803E+00</totfact>
</mgrwt>
</event>
<event>
 4    2  0.6914693E-007  0.7345711E+03  0.7818608E-02  0.9876053E-01
         -2   -1    0    0    0  501 -0.00000000000E+00  0.00000000000E+00  0.37662302218E+03  0.37662302219E+03  0.25500000000E-02 0.  1.
          2   -1    0    0  501    0  0.00000000000E+00 -0.00000000000E+00 -0.15839475003E+04  0.15839475003E+04  0.25500000000E-02 0. -1.
    8880023    1    1    2    0    0 -0.29043789154E+03  0.14639122158E+03 -0.36118663440E+02  0.73545857987E+03  0.65864270000E+03 0.  1.
    8880022    1    1    2    0    0  0.29043789154E+03 -0.14639122158E+03 -0.11712058147E+04  0.12251119427E+04  0.15294330000E+03 0.  0.
<mgrwt>
<rscale>  0 0.61436040E+03</rscale>
<asrwt>0</asrwt>
<pdfrwt beam="1">  1        2 0.24368423E+00 0.73457114E+03</pdfrwt>
<pdfrwt beam="2">  1       -2 0.57942004E-01 0.73457114E+03</pdfrwt>
<totfact> 0.32575829E+01</totfact>
</mgrwt>
</event>
<event>
 4    2  0.7218447E-007  0.6632792E+03  0.7818608E-02  0.1021023E+00
         -2   -1    0    0    0  501 -0.00000000000E+00  0.00000000000E+00  0.44060902013E+03  0.44060902014E+03  0.25500000000E-02 0.  1.
          2   -1    0    0  501    0  0.00000000000E+00 -0.00000000000E+00 -0.11426375771E+04  0.11426375772E+04  0.25500000000E-02 0. -1.
    8880023    1    1    2    0    0 -0.77157397083E+02 -0.13258311650E+02  0.17788231378E+03  0.68671782456E+03  0.65864270000E+03 0.  1.
    8880022    1    1    2    0    0  0.77157397083E+02  0.13258311650E+02 -0.87991087080E+03  0.89652877272E+03  0.15294330000E+03 0.  0.
<mgrwt>
<rscale>  0 0.47319277E+03</rscale>
<asrwt>0</asrwt>
<pdfrwt beam="1">  1        2 0.17579039E+00 0.66327917E+03</pdfrwt>
<pdfrwt beam="2">  1       -2 0.67786004E-01 0.66327917E+03</pdfrwt>
<totfact> 0.41979154E+01</totfact>
</mgrwt>
</event>
<event>
 4    2  0.6914693E-007  0.8700523E+03  0.7818608E-02  0.9575926E-01
         -2   -1    0    0    0  501 -0.00000000000E+00  0.00000000000E+00  0.25173289245E+04  0.25173289245E+04  0.25500000000E-02 0.  1.
          2   -1    0    0  501    0  0.00000000000E+00 -0.00000000000E+00 -0.28351878240E+03  0.28351878242E+03  0.25500000000E-02 0. -1.
    8880023    1    1    2    0    0  0.56497035350E+03  0.63161573937E+02  0.19742463885E+04  0.21574614466E+04  0.65864270000E+03 0.  1.
    8880022    1    1    2    0    0 -0.56497035350E+03 -0.63161573937E+02  0.25956375357E+03  0.64338626030E+03  0.15294330000E+03 0. -1.
<mgrwt>
<rscale>  0 0.78910229E+03</rscale>
<asrwt>0</asrwt>
<pdfrwt beam="1">  1        2 0.43618274E-01 0.87005235E+03</pdfrwt>
<pdfrwt beam="2">  1       -2 0.38728138E+00 0.87005235E+03</pdfrwt>
<totfact> 0.10921870E+00</totfact>
</mgrwt>
</event>
<event>
 4    2  0.6914693E-007  0.8933702E+03  0.7818608E-02  0.9536759E-01
         -2   -1    0    0    0  501 -0.00000000000E+00  0.00000000000E+00  0.40070773674E+03  0.40070773675E+03  0.25500000000E-02 0.  1.
          2   -1    0    0  501    0  0.00000000000E+00 -0.00000000000E+00 -0.14478313584E+04  0.14478313584E+04  0.25500000000E-02 0. -1.
    8880023    1    1    2    0    0  0.57604868179E+03  0.18018887376E+03 -0.70534854466E+03  0.11382560739E+04  0.65864270000E+03 0. -1.
    8880022    1    1    2    0    0 -0.57604868179E+03 -0.18018887376E+03 -0.34177507698E+03  0.71028302125E+03  0.15294330000E+03 0.  1.
<mgrwt>
<rscale>  0 0.81627110E+03</rscale>
<asrwt>0</asrwt>
<pdfrwt beam="1">  1        2 0.22274328E+00 0.89337020E+03</pdfrwt>
<pdfrwt beam="2">  1       -2 0.61647345E-01 0.89337020E+03</pdfrwt>
<totfact> 0.33475162E+01</totfact>
</mgrwt>
</event>
<event>
 4    2  0.6914693E-007  0.1453968E+04  0.7818608E-02  0.8942844E-01
         -2   -1    0    0    0  501 -0.00000000000E+00  0.00000000000E+00  0.96673092558E+03  0.96673092559E+03  0.25500000000E-02 0.  1.
          2   -1    0    0  501    0  0.00000000000E+00 -0.00000000000E+00 -0.24198007282E+04  0.24198007282E+04  0.25500000000E-02 0. -1.
    8880023    1    1    2    0    0  0.11856152053E+04 -0.52395423904E+03 -0.28239615962E+02  0.14542417756E+04  0.65864270000E+03 0.  0.
    8880022    1    1    2    0    0 -0.11856152053E+04  0.52395423904E+03 -0.14248301867E+04  0.19322898782E+04  0.15294330000E+03 0.  0.
<mgrwt>
<rscale>  0 0.14152628E+04</rscale>
<asrwt>0</asrwt>
<pdfrwt beam="1">  1        2 0.37227704E+00 0.14539676E+04</pdfrwt>
<pdfrwt beam="2">  1       -2 0.14872783E+00 0.14539676E+04</pdfrwt>
<totfact> 0.11266164E+00</totfact>
</mgrwt>
</event>
<event>
 4    2  0.6914693E-007  0.7896298E+03  0.7818608E-02  0.9733684E-01
         -2   -1    0    0    0  501 -0.00000000000E+00  0.00000000000E+00  0.12565181157E+04  0.12565181157E+04  0.25500000000E-02 0.  1.
          2   -1    0    0  501    0  0.00000000000E+00 -0.00000000000E+00 -0.45405625475E+03  0.45405625476E+03  0.25500000000E-02 0. -1.
    8880023    1    1    2    0    0 -0.30393838416E+03 -0.31197198363E+03  0.94118794875E+03  0.12285560716E+04  0.65864270000E+03 0.  1.
    8880022    1    1    2    0    0  0.30393838416E+03  0.31197198363E+03 -0.13872608783E+03  0.48201829882E+03  0.15294330000E+03 0.  0.
<mgrwt>
<rscale>  0 0.69046195E+03</rscale>
<asrwt>0</asrwt>
<pdfrwt beam="1">  1        2 0.69854809E-01 0.78962983E+03</pdfrwt>
<pdfrwt beam="2">  1       -2 0.19331048E+00 0.78962983E+03</pdfrwt>
<totfact> 0.10280253E+01</totfact>
</mgrwt>
</event>
<event>
 4    2  0.6914693E-007  0.6660069E+03  0.7818608E-02  0.1018703E+00
          2   -1    0    0  501    0  0.00000000000E+00  0.00000000000E+00  0.70245001879E+03  0.70245001879E+03  0.25500000000E-02 0. -1.
         -2   -1    0    0    0  501 -0.00000000000E+00 -0.00000000000E+00 -0.47848074527E+03  0.47848074528E+03  0.25500000000E-02 0.  1.
    8880023    1    1    2    0    0  0.85081506740E+02 -0.50160445680E+02 -0.21974105346E+03  0.70132108904E+03  0.65864270000E+03 0.  1.
    8880022    1    1    2    0    0 -0.85081506740E+02  0.50160445680E+02  0.44371032697E+03  0.47960967503E+03  0.15294330000E+03 0.  0.
<mgrwt>
<rscale>  0 0.48157494E+03</rscale>
<asrwt>0</asrwt>
<pdfrwt beam="1">  1        2 0.10806923E+00 0.66600686E+03</pdfrwt>
<pdfrwt beam="2">  1       -2 0.73612423E-01 0.66600686E+03</pdfrwt>
<totfact> 0.69163671E+01</totfact>
</mgrwt>
</event>
<event>
 4    2  0.6914693E-007  0.7061741E+03  0.7818608E-02  0.9972492E-01
         -2   -1    0    0    0  501 -0.00000000000E+00  0.00000000000E+00  0.58683626862E+03  0.58683626863E+03  0.25500000000E-02 0.  1.
          2   -1    0    0  501    0  0.00000000000E+00 -0.00000000000E+00 -0.51760403727E+03  0.51760403728E+03  0.25500000000E-02 0. -1.
    8880023    1    1    2    0    0  0.24073700890E+03  0.83170788114E+02  0.25870684578E+03  0.75207122386E+03  0.65864270000E+03 0.  1.
    8880022    1    1    2    0    0 -0.24073700890E+03 -0.83170788114E+02 -0.18947461443E+03  0.35236908204E+03  0.15294330000E+03 0.  1.
<mgrwt>
<rscale>  0 0.56873034E+03</rscale>
<asrwt>0</asrwt>
<pdfrwt beam="1">  1        2 0.79631390E-01 0.70617412E+03</pdfrwt>
<pdfrwt beam="2">  1       -2 0.90282503E-01 0.70617412E+03</pdfrwt>
<totfact> 0.62946818E+01</totfact>
</mgrwt>
</event>
<event>
 4    2  0.6914693E-007  0.6917231E+03  0.7818608E-02  0.1003344E+00
         -2   -1    0    0    0  501 -0.00000000000E+00  0.00000000000E+00  0.25660949926E+03  0.25660949927E+03  0.25500000000E-02 0.  1.
          2   -1    0    0  501    0  0.00000000000E+00 -0.00000000000E+00 -0.11391187403E+04  0.11391187403E+04  0.25500000000E-02 0. -1.
    8880023    1    1    2    0    0  0.16707442141E+03 -0.12944772681E+03 -0.29328268166E+03  0.75132916481E+03  0.65864270000E+03 0.  1.
    8880022    1    1    2    0    0 -0.16707442141E+03  0.12944772681E+03 -0.58922655943E+03  0.64439907481E+03  0.15294330000E+03 0.  0.
<mgrwt>
<rscale>  0 0.54207884E+03</rscale>
<asrwt>0</asrwt>
<pdfrwt beam="1">  1        2 0.17524903E+00 0.69172305E+03</pdfrwt>
<pdfrwt beam="2">  1       -2 0.39478385E-01 0.69172305E+03</pdfrwt>
<totfact> 0.12733704E+02</totfact>
</mgrwt>
</event>
<event>
 4    2  0.6914693E-007  0.8876012E+03  0.7818608E-02  0.9546236E-01
          2   -1    0    0  501    0  0.00000000000E+00  0.00000000000E+00  0.18925931335E+04  0.18925931335E+04  0.25500000000E-02 0. -1.
         -2   -1    0    0    0  501 -0.00000000000E+00 -0.00000000000E+00 -0.66349353394E+03  0.66349353395E+03  0.25500000000E-02 0.  1.
    8880023    1    1    2    0    0 -0.57730124467E+03  0.14404499424E+03  0.16062752208E+04  0.18351991660E+04  0.65864270000E+03 0. -1.
    8880022    1    1    2    0    0  0.57730124467E+03 -0.14404499424E+03 -0.37717562129E+03  0.72088750147E+03  0.15294330000E+03 0.  0.
<mgrwt>
<rscale>  0 0.80959188E+03</rscale>
<asrwt>0</asrwt>
<pdfrwt beam="1">  1        2 0.29116817E+00 0.88760120E+03</pdfrwt>
<pdfrwt beam="2">  1       -2 0.10207593E+00 0.88760120E+03</pdfrwt>
<totfact> 0.61077979E+00</totfact>
</mgrwt>
</event>
<event>
 4    2  0.6914693E-007  0.7555390E+03  0.7818608E-02  0.9816796E-01
         -2   -1    0    0    0  501 -0.00000000000E+00  0.00000000000E+00  0.27740015071E+03  0.27740015072E+03  0.25500000000E-02 0.  1.
          2   -1    0    0  501    0  0.00000000000E+00 -0.00000000000E+00 -0.22338485201E+04  0.22338485201E+04  0.25500000000E-02 0. -1.
    8880023    1    1    2    0    0 -0.51563374917E+02  0.36656543394E+03 -0.30979762298E+03  0.81658665949E+03  0.65864270000E+03 0.  0.
    8880022    1    1    2    0    0  0.51563374917E+02 -0.36656543394E+03 -0.16466507464E+04  0.16946620113E+04  0.15294330000E+03 0.  0.
<mgrwt>
<rscale>  0 0.64468892E+03</rscale>
<asrwt>0</asrwt>
<pdfrwt beam="1">  1        2 0.34366899E+00 0.75553902E+03</pdfrwt>
<pdfrwt beam="2">  1       -2 0.42676948E-01 0.75553902E+03</pdfrwt>
<totfact> 0.26679980E+01</totfact>
</mgrwt>
</event>
<event>
 4    2  0.6914693E-007  0.7519790E+03  0.7818608E-02  0.9826334E-01
          2   -1    0    0  501    0  0.00000000000E+00  0.00000000000E+00  0.62662552869E+03  0.62662552870E+03  0.25500000000E-02 0. -1.
         -2   -1    0    0    0  501 -0.00000000000E+00 -0.00000000000E+00 -0.71399616087E+03  0.71399616088E+03  0.25500000000E-02 0.  1.
    8880023    1    1    2    0    0 -0.92172880035E+02 -0.35095072690E+03 -0.38709172399E+03  0.84576146848E+03  0.65864270000E+03 0.  1.
    8880022    1    1    2    0    0  0.92172880035E+02  0.35095072690E+03  0.29972109181E+03  0.49486022109E+03  0.15294330000E+03 0. -1.
<mgrwt>
<rscale>  0 0.63968274E+03</rscale>
<asrwt>0</asrwt>
<pdfrwt beam="1">  1        2 0.96403927E-01 0.75197903E+03</pdfrwt>
<pdfrwt beam="2">  1       -2 0.10984556E+00 0.75197903E+03</pdfrwt>
<totfact> 0.31406011E+01</totfact>
</mgrwt>
</event>
<event>
 4    2  0.6914693E-007  0.1310306E+04  0.7818608E-02  0.9056711E-01
          2   -1    0    0  501    0  0.00000000000E+00  0.00000000000E+00  0.37981031170E+03  0.37981031171E+03  0.25500000000E-02 0. -1.
         -2   -1    0    0    0  501 -0.00000000000E+00 -0.00000000000E+00 -0.39976838491E+04  0.39976838491E+04  0.25500000000E-02 0.  1.
    8880023    1    1    2    0    0 -0.12894732772E+03  0.11253727493E+04 -0.17240081635E+04  0.21654342733E+04  0.65864270000E+03 0. -1.
    8880022    1    1    2    0    0  0.12894732772E+03 -0.11253727493E+04 -0.18938653740E+04  0.22120598875E+04  0.15294330000E+03 0.  1.
<mgrwt>
<rscale>  0 0.12663171E+04</rscale>
<asrwt>0</asrwt>
<pdfrwt beam="1">  1        2 0.58432358E-01 0.13103059E+04</pdfrwt>
<pdfrwt beam="2">  1       -2 0.61502826E+00 0.13103059E+04</pdfrwt>
<totfact> 0.35652027E-02</totfact>
</mgrwt>
</event>
<event>
 4    2  0.6914693E-007  0.6811804E+03  0.7818608E-02  0.1008664E+00
         -2   -1    0    0    0  501 -0.00000000000E+00  0.00000000000E+00  0.16378371597E+03  0.16378371599E+03  0.25500000000E-02 0.  1.
          2   -1    0    0  501    0  0.00000000000E+00 -0.00000000000E+00 -0.13402921437E+04  0.13402921437E+04  0.25500000000E-02 0. -1.
    8880023    1    1    2    0    0 -0.10068936533E+03  0.14162704023E+03 -0.10127417615E+04  0.12205132726E+04  0.65864270000E+03 0.  0.
    8880022    1    1    2    0    0  0.10068936533E+03 -0.14162704023E+03 -0.16376666619E+03  0.28356258707E+03  0.15294330000E+03 0.  0.
<mgrwt>
<rscale>  0 0.52009213E+03</rscale>
<asrwt>0</asrwt>
<pdfrwt beam="1">  1        2 0.20619878E+00 0.68118043E+03</pdfrwt>
<pdfrwt beam="2">  1       -2 0.25197496E-01 0.68118043E+03</pdfrwt>
<totfact> 0.22513778E+02</totfact>
</mgrwt>
</event>
<event>
 4    2  0.6914693E-007  0.7025251E+03  0.7818608E-02  0.9986883E-01
         -2   -1    0    0    0  501 -0.00000000000E+00  0.00000000000E+00  0.21636803665E+03  0.21636803666E+03  0.25500000000E-02 0.  1.
          2   -1    0    0  501    0  0.00000000000E+00 -0.00000000000E+00 -0.26688733252E+04  0.26688733252E+04  0.25500000000E-02 0. -1.
    8880023    1    1    2    0    0  0.21293846781E+03  0.11995235833E+03 -0.39165736808E+03  0.80432397675E+03  0.65864270000E+03 0.  1.
    8880022    1    1    2    0    0 -0.21293846781E+03 -0.11995235833E+03 -0.20608479205E+04  0.20809173851E+04  0.15294330000E+03 0.  0.
<mgrwt>
<rscale>  0 0.56229155E+03</rscale>
<asrwt>0</asrwt>
<pdfrwt beam="1">  1        2 0.41059587E+00 0.70252514E+03</pdfrwt>
<pdfrwt beam="2">  1       -2 0.33287392E-01 0.70252514E+03</pdfrwt>
<totfact> 0.24684557E+01</totfact>
</mgrwt>
</event>
<event>
 4    2  0.6914693E-007  0.7506517E+03  0.7818608E-02  0.9829940E-01
         -2   -1    0    0    0  501 -0.00000000000E+00  0.00000000000E+00  0.41926594322E+03  0.41926594322E+03  0.25500000000E-02 0.  1.
          2   -1    0    0  501    0  0.00000000000E+00 -0.00000000000E+00 -0.32166083585E+04  0.32166083585E+04  0.25500000000E-02 0. -1.
    8880023    1    1    2    0    0 -0.25003945144E+03  0.25912939005E+03  0.58903367253E+02  0.75295921603E+03  0.65864270000E+03 0.  1.
    8880022    1    1    2    0    0  0.25003945144E+03 -0.25912939005E+03 -0.28562457826E+04  0.28829150857E+04  0.15294330000E+03 0.  0.
<mgrwt>
<rscale>  0 0.63780271E+03</rscale>
<asrwt>0</asrwt>
<pdfrwt beam="1">  1        2 0.49486281E+00 0.75065170E+03</pdfrwt>
<pdfrwt beam="2">  1       -2 0.64502455E-01 0.75065170E+03</pdfrwt>
<totfact> 0.30174675E+00</totfact>
</mgrwt>
</event>
<event>
 4    2  0.6914693E-007  0.8273653E+03  0.7818608E-02  0.9654481E-01
         -2   -1    0    0    0  501 -0.00000000000E+00  0.00000000000E+00  0.21136276704E+03  0.21136276705E+03  0.25500000000E-02 0.  1.
          2   -1    0    0  501    0  0.00000000000E+00 -0.00000000000E+00 -0.27173532500E+04  0.27173532500E+04  0.25500000000E-02 0. -1.
    8880023    1    1    2    0    0 -0.35354846433E+03 -0.35457947932E+03 -0.82629331752E+03  0.11693134638E+04  0.65864270000E+03 0.  0.
    8880022    1    1    2    0    0  0.35354846433E+03  0.35457947932E+03 -0.16796971654E+04  0.17594025532E+04  0.15294330000E+03 0.  0.
<mgrwt>
<rscale>  0 0.73792892E+03</rscale>
<asrwt>0</asrwt>
<pdfrwt beam="1">  1        2 0.41805432E+00 0.82736529E+03</pdfrwt>
<pdfrwt beam="2">  1       -2 0.32517351E-01 0.82736529E+03</pdfrwt>
<totfact> 0.23725610E+01</totfact>
</mgrwt>
</event>
<event>
 4    2  0.6914693E-007  0.6717796E+03  0.7818608E-02  0.1014418E+00
          2   -1    0    0  501    0  0.00000000000E+00  0.00000000000E+00  0.35352076085E+03  0.35352076086E+03  0.25500000000E-02 0. -1.
         -2   -1    0    0    0  501 -0.00000000000E+00 -0.00000000000E+00 -0.97229598022E+03  0.97229598023E+03  0.25500000000E-02 0.  1.
    8880023    1    1    2    0    0 -0.90984936998E+02  0.95913634541E+02 -0.80670918476E+03  0.10497940746E+04  0.65864270000E+03 0.  1.
    8880022    1    1    2    0    0  0.90984936998E+02 -0.95913634541E+02  0.18793396538E+03  0.27602266648E+03  0.15294330000E+03 0.  0.
<mgrwt>
<rscale>  0 0.49755928E+03</rscale>
<asrwt>0</asrwt>
<pdfrwt beam="1">  1        2 0.54387810E-01 0.67177964E+03</pdfrwt>
<pdfrwt beam="2">  1       -2 0.14958400E+00 0.67177964E+03</pdfrwt>
<totfact> 0.28093665E+01</totfact>
</mgrwt>
</event>
<event>
 4    2  0.6914693E-007  0.2006256E+04  0.7818608E-02  0.8616282E-01
          2   -1    0    0  501    0  0.00000000000E+00  0.00000000000E+00  0.30551979729E+04  0.30551979729E+04  0.25500000000E-02 0. -1.
         -2   -1    0    0    0  501 -0.00000000000E+00 -0.00000000000E+00 -0.20599073649E+04  0.20599073649E+04  0.25500000000E-02 0.  1.
    8880023    1    1    2    0    0  0.16275959228E+04 -0.97066258486E+03  0.21097053217E+04  0.29113435202E+04  0.65864270000E+03 0. -1.
    8880022    1    1    2    0    0 -0.16275959228E+04  0.97066258486E+03 -0.11144147137E+04  0.22037618176E+04  0.15294330000E+03 0.  0.
<mgrwt>
<rscale>  0 0.19794660E+04</rscale>
<asrwt>0</asrwt>
<pdfrwt beam="1">  1        2 0.47003046E+00 0.20062564E+04</pdfrwt>
<pdfrwt beam="2">  1       -2 0.31690883E+00 0.20062564E+04</pdfrwt>
<totfact> 0.35505814E-02</totfact>
</mgrwt>
</event>
<event>
 4    2  0.6914693E-007  0.7039246E+03  0.7818608E-02  0.9981294E-01
          2   -1    0    0  501    0  0.00000000000E+00  0.00000000000E+00  0.10554226220E+04  0.10554226221E+04  0.25500000000E-02 0. -1.
         -2   -1    0    0    0  501 -0.00000000000E+00 -0.00000000000E+00 -0.26029583956E+03  0.26029583958E+03  0.25500000000E-02 0.  1.
    8880023    1    1    2    0    0 -0.19771880702E+03 -0.15035594580E+03  0.35676568419E+03  0.78917146221E+03  0.65864270000E+03 0.  0.
    8880022    1    1    2    0    0  0.19771880702E+03  0.15035594580E+03  0.43836109829E+03  0.52654699942E+03  0.15294330000E+03 0.  0.
<mgrwt>
<rscale>  0 0.56478122E+03</rscale>
<asrwt>0</asrwt>
<pdfrwt beam="1">  1        2 0.16237271E+00 0.70392460E+03</pdfrwt>
<pdfrwt beam="2">  1       -2 0.40045514E-01 0.70392460E+03</pdfrwt>
<totfact> 0.13920348E+02</totfact>
</mgrwt>
</event>
<event>
 4    2  0.6914693E-007  0.1238167E+04  0.7818608E-02  0.9120886E-01
         -2   -1    0    0    0  501 -0.00000000000E+00  0.00000000000E+00  0.50611291956E+03  0.50611291956E+03  0.25500000000E-02 0.  1.
          2   -1    0    0  501    0  0.00000000000E+00 -0.00000000000E+00 -0.36979389614E+04  0.36979389614E+04  0.25500000000E-02 0. -1.
    8880023    1    1    2    0    0  0.79121616583E+03  0.68791293754E+03 -0.54457311830E+03  0.13526334752E+04  0.65864270000E+03 0.  1.
    8880022    1    1    2    0    0 -0.79121616583E+03 -0.68791293754E+03 -0.26472529235E+04  0.28514184058E+04  0.15294330000E+03 0.  0.
<mgrwt>
<rscale>  0 0.11908702E+04</rscale>
<asrwt>0</asrwt>
<pdfrwt beam="1">  1        2 0.56891367E+00 0.12381670E+04</pdfrwt>
<pdfrwt beam="2">  1       -2 0.77863529E-01 0.12381670E+04</pdfrwt>
<totfact> 0.86294666E-01</totfact>
</mgrwt>
</event>
<event>
 4    2  0.6914693E-007  0.6653309E+03  0.7818608E-02  0.1019257E+00
          2   -1    0    0  501    0  0.00000000000E+00  0.00000000000E+00  0.21984405296E+04  0.21984405296E+04  0.25500000000E-02 0. -1.
         -2   -1    0    0    0  501 -0.00000000000E+00 -0.00000000000E+00 -0.22433024248E+03  0.22433024249E+03  0.25500000000E-02 0.  1.
    8880023    1    1    2    0    0  0.35888604579E+02  0.86988189625E+02  0.28443539948E+03  0.72358043078E+03  0.65864270000E+03 0.  1.
    8880022    1    1    2    0    0 -0.35888604579E+02 -0.86988189625E+02  0.16896748877E+04  0.16991903414E+04  0.15294330000E+03 0.  0.
<mgrwt>
<rscale>  0 0.47955533E+03</rscale>
<asrwt>0</asrwt>
<pdfrwt beam="1">  1        2 0.33822161E+00 0.66533085E+03</pdfrwt>
<pdfrwt beam="2">  1       -2 0.34512346E-01 0.66533085E+03</pdfrwt>
<totfact> 0.42623093E+01</totfact>
</mgrwt>
</event>
<event>
 4    2  0.6914693E-007  0.9260364E+03  0.7818608E-02  0.9485465E-01
          2   -1    0    0  501    0  0.00000000000E+00  0.00000000000E+00  0.12417119134E+04  0.12417119134E+04  0.25500000000E-02 0. -1.
         -2   -1    0    0    0  501 -0.00000000000E+00 -0.00000000000E+00 -0.10420175057E+04  0.10420175057E+04  0.25500000000E-02 0.  1.
    8880023    1    1    2    0    0  0.56219925426E+03  0.32812389212E+03 -0.70136641270E+03  0.11616618876E+04  0.65864270000E+03 0.  0.
    8880022    1    1    2    0    0 -0.56219925426E+03 -0.32812389212E+03  0.90106082036E+03  0.11220675314E+04  0.15294330000E+03 0.  0.
<mgrwt>
<rscale>  0 0.85363983E+03</rscale>
<asrwt>0</asrwt>
<pdfrwt beam="1">  1        2 0.19103260E+00 0.92603644E+03</pdfrwt>
<pdfrwt beam="2">  1       -2 0.16031039E+00 0.92603644E+03</pdfrwt>
<totfact> 0.44805076E+00</totfact>
</mgrwt>
</event>
<event>
 4    2  0.1472034E-006  0.1576891E+04  0.7818608E-02  0.8857166E-01
          2   -1    0    0  501    0  0.00000000000E+00  0.00000000000E+00  0.19766089696E+04  0.19766089696E+04  0.25500000000E-02 0. -1.
         -2   -1    0    0    0  501 -0.00000000000E+00 -0.00000000000E+00 -0.25426612900E+04  0.25426612900E+04  0.25500000000E-02 0.  1.
    8880023    1    1    2    0    0 -0.70852069000E+02 -0.14309975757E+04 -0.19592361152E+04  0.25149931290E+04  0.65864270000E+03 0.  1.
    8880022    1    1    2    0    0  0.70852069000E+02  0.14309975757E+04  0.13931837947E+04  0.20042771306E+04  0.15294330000E+03 0.  0.
<mgrwt>
<rscale>  0 0.15417322E+04</rscale>
<asrwt>0</asrwt>
<pdfrwt beam="1">  1        2 0.30409369E+00 0.15768907E+04</pdfrwt>
<pdfrwt beam="2">  1       -2 0.39117866E+00 0.15768907E+04</pdfrwt>
<totfact> 0.54280025E-02</totfact>
</mgrwt>
</event>
<event>
 4    2  0.6914693E-007  0.7664698E+03  0.7818608E-02  0.9788637E-01
         -2   -1    0    0    0  501 -0.00000000000E+00  0.00000000000E+00  0.38641850928E+03  0.38641850929E+03  0.25500000000E-02 0.  1.
          2   -1    0    0  501    0  0.00000000000E+00 -0.00000000000E+00 -0.12786298981E+04  0.12786298981E+04  0.25500000000E-02 0. -1.
    8880023    1    1    2    0    0 -0.39200025861E+03  0.12648116951E+01 -0.97089043453E+03  0.12369738254E+04  0.65864270000E+03 0.  0.
    8880022    1    1    2    0    0  0.39200025861E+03 -0.12648116951E+01  0.78679045749E+02  0.42807458200E+03  0.15294330000E+03 0.  0.
<mgrwt>
<rscale>  0 0.65975939E+03</rscale>
<asrwt>0</asrwt>
<pdfrwt beam="1">  1        2 0.19671229E+00 0.76646984E+03</pdfrwt>
<pdfrwt beam="2">  1       -2 0.59449002E-01 0.76646984E+03</pdfrwt>
<totfact> 0.45712100E+01</totfact>
</mgrwt>
</event>
<event>
 4    2  0.6914693E-007  0.6616798E+03  0.7818608E-02  0.1022498E+00
          2   -1    0    0  501    0  0.00000000000E+00  0.00000000000E+00  0.22264533477E+04  0.22264533477E+04  0.25500000000E-02 0. -1.
         -2   -1    0    0    0  501 -0.00000000000E+00 -0.00000000000E+00 -0.53395370250E+03  0.53395370251E+03  0.25500000000E-02 0.  1.
    8880023    1    1    2    0    0 -0.35495156896E+02  0.52441307787E+02 -0.32426271825E+03  0.73686261517E+03  0.65864270000E+03 0.  1.
    8880022    1    1    2    0    0  0.35495156896E+02 -0.52441307787E+02  0.20167623634E+04  0.20235444350E+04  0.15294330000E+03 0.  0.
<mgrwt>
<rscale>  0 0.46795923E+03</rscale>
<asrwt>0</asrwt>
<pdfrwt beam="1">  1        2 0.34253129E+00 0.66167983E+03</pdfrwt>
<pdfrwt beam="2">  1       -2 0.82146723E-01 0.66167983E+03</pdfrwt>
<totfact> 0.68742979E+00</totfact>
</mgrwt>
</event>
<event>
 4    2  0.7377944E-007  0.8666713E+03  0.7818608E-02  0.9581805E-01
          2   -1    0    0  501    0  0.00000000000E+00  0.00000000000E+00  0.32216020373E+04  0.32216020373E+04  0.25500000000E-02 0. -1.
         -2   -1    0    0    0  501 -0.00000000000E+00 -0.00000000000E+00 -0.77323720039E+03  0.77323720039E+03  0.25500000000E-02 0.  1.
    8880023    1    1    2    0    0  0.47172382625E+03 -0.30787267815E+03 -0.49234810275E+03  0.99675765096E+03  0.65864270000E+03 0.  1.
    8880022    1    1    2    0    0 -0.47172382625E+03  0.30787267815E+03  0.29407129397E+04  0.29980815867E+04  0.15294330000E+03 0.  0.
<mgrwt>
<rscale>  0 0.78512251E+03</rscale>
<asrwt>0</asrwt>
<pdfrwt beam="1">  1        2 0.49563109E+00 0.86667131E+03</pdfrwt>
<pdfrwt beam="2">  1       -2 0.11895957E+00 0.86667131E+03</pdfrwt>
<totfact> 0.71501122E-01</totfact>
</mgrwt>
</event>
<event>
 4    2  0.6914693E-007  0.7952056E+03  0.7818608E-02  0.9721260E-01
          2   -1    0    0  501    0  0.00000000000E+00  0.00000000000E+00  0.34374202864E+04  0.34374202864E+04  0.25500000000E-02 0. -1.
         -2   -1    0    0    0  501 -0.00000000000E+00 -0.00000000000E+00 -0.19916559051E+03  0.19916559052E+03  0.25500000000E-02 0.  1.
    8880023    1    1    2    0    0  0.28929271185E+03  0.33889731822E+03  0.71389176640E+03  0.10686408779E+04  0.65864270000E+03 0.  0.
    8880022    1    1    2    0    0 -0.28929271185E+03 -0.33889731822E+03  0.25243629295E+04  0.25679449991E+04  0.15294330000E+03 0.  0.
<mgrwt>
<rscale>  0 0.69764963E+03</rscale>
<asrwt>0</asrwt>
<pdfrwt beam="1">  1        2 0.52883389E+00 0.79520555E+03</pdfrwt>
<pdfrwt beam="2">  1       -2 0.30640860E-01 0.79520555E+03</pdfrwt>
<totfact> 0.94651843E+00</totfact>
</mgrwt>
</event>
<event>
 4    2  0.7238952E-007  0.9635276E+03  0.7818608E-02  0.9430912E-01
         -2   -1    0    0    0  501 -0.00000000000E+00  0.00000000000E+00  0.73661332095E+03  0.73661332096E+03  0.25500000000E-02 0.  1.
          2   -1    0    0  501    0  0.00000000000E+00 -0.00000000000E+00 -0.25386184515E+04  0.25386184515E+04  0.25500000000E-02 0. -1.
    8880023    1    1    2    0    0 -0.69770987493E+03  0.88182838183E+02  0.33514718296E+03  0.10201515196E+04  0.65864270000E+03 0.  1.
    8880022    1    1    2    0    0  0.69770987493E+03 -0.88182838183E+02 -0.21371523135E+04  0.22550802528E+04  0.15294330000E+03 0.  0.
<mgrwt>
<rscale>  0 0.89574807E+03</rscale>
<asrwt>0</asrwt>
<pdfrwt beam="1">  1        2 0.39055668E+00 0.96352763E+03</pdfrwt>
<pdfrwt beam="2">  1       -2 0.11332513E+00 0.96352763E+03</pdfrwt>
<totfact> 0.20482272E+00</totfact>
</mgrwt>
</event>
<event>
 4    2  0.6914693E-007  0.7741784E+03  0.7818608E-02  0.9769694E-01
          2   -1    0    0  501    0  0.00000000000E+00  0.00000000000E+00  0.58503763549E+03  0.58503763550E+03  0.25500000000E-02 0. -1.
         -2   -1    0    0    0  501 -0.00000000000E+00 -0.00000000000E+00 -0.83306767722E+03  0.83306767723E+03  0.25500000000E-02 0.  1.
    8880023    1    1    2    0    0  0.18317321823E+03  0.36330360779E+03 -0.49429993167E+03  0.91852303620E+03  0.65864270000E+03 0.  0.
    8880022    1    1    2    0    0 -0.18317321823E+03 -0.36330360779E+03  0.24626988994E+03  0.49958227653E+03  0.15294330000E+03 0.  0.
<mgrwt>
<rscale>  0 0.67014599E+03</rscale>
<asrwt>0</asrwt>
<pdfrwt beam="1">  1        2 0.90005790E-01 0.77417837E+03</pdfrwt>
<pdfrwt beam="2">  1       -2 0.12816426E+00 0.77417837E+03</pdfrwt>
<totfact> 0.23275022E+01</totfact>
</mgrwt>
</event>
<event>
 4    2  0.6914693E-007  0.1023455E+04  0.7818608E-02  0.9351494E-01
         -2   -1    0    0    0  501 -0.00000000000E+00  0.00000000000E+00  0.45947726350E+03  0.45947726350E+03  0.25500000000E-02 0.  1.
          2   -1    0    0  501    0  0.00000000000E+00 -0.00000000000E+00 -0.26286428651E+04  0.26286428651E+04  0.25500000000E-02 0. -1.
    8880023    1    1    2    0    0  0.20094146938E+03 -0.75714820076E+03 -0.31719835635E+03  0.10714830263E+04  0.65864270000E+03 0.  1.
    8880022    1    1    2    0    0 -0.20094146938E+03  0.75714820076E+03 -0.18519672453E+04  0.20166371023E+04  0.15294330000E+03 0.  0.
<mgrwt>
<rscale>  0 0.96177340E+03</rscale>
<asrwt>0</asrwt>
<pdfrwt beam="1">  1        2 0.40440659E+00 0.10234555E+04</pdfrwt>
<pdfrwt beam="2">  1       -2 0.70688811E-01 0.10234555E+04</pdfrwt>
<totfact> 0.53817596E+00</totfact>
</mgrwt>
</event>
<event>
 4    2  0.6914693E-007  0.7174067E+03  0.7818608E-02  0.9931460E-01
          2   -1    0    0  501    0  0.00000000000E+00  0.00000000000E+00  0.21650007133E+04  0.21650007133E+04  0.25500000000E-02 0. -1.
         -2   -1    0    0    0  501 -0.00000000000E+00 -0.00000000000E+00 -0.35590029670E+03  0.35590029671E+03  0.25500000000E-02 0.  1.
    8880023    1    1    2    0    0  0.23884848315E+03  0.15431661267E+03  0.35644320167E+02  0.71829168078E+03  0.65864270000E+03 0.  0.
    8880022    1    1    2    0    0 -0.23884848315E+03 -0.15431661267E+03  0.17734560965E+04  0.18026093293E+04  0.15294330000E+03 0.  0.
<mgrwt>
<rscale>  0 0.58760517E+03</rscale>
<asrwt>0</asrwt>
<pdfrwt beam="1">  1        2 0.33307703E+00 0.71740673E+03</pdfrwt>
<pdfrwt beam="2">  1       -2 0.54753892E-01 0.71740673E+03</pdfrwt>
<totfact> 0.17688185E+01</totfact>
</mgrwt>
</event>
<event>
 4    2  0.6914693E-007  0.9727394E+03  0.7818608E-02  0.9418125E-01
          2   -1    0    0  501    0  0.00000000000E+00  0.00000000000E+00  0.14557503971E+04  0.14557503971E+04  0.25500000000E-02 0. -1.
         -2   -1    0    0    0  501 -0.00000000000E+00 -0.00000000000E+00 -0.91614735999E+03  0.91614735999E+03  0.25500000000E-02 0.  1.
    8880023    1    1    2    0    0  0.68326101677E+03 -0.21346224937E+03  0.10863860504E+04  0.14582374998E+04  0.65864270000E+03 0.  0.
    8880022    1    1    2    0    0 -0.68326101677E+03  0.21346224937E+03 -0.54678301338E+03  0.91366025725E+03  0.15294330000E+03 0.  0.
<mgrwt>
<rscale>  0 0.90598929E+03</rscale>
<asrwt>0</asrwt>
<pdfrwt beam="1">  1        2 0.22396159E+00 0.97273941E+03</pdfrwt>
<pdfrwt beam="2">  1       -2 0.14094575E+00 0.97273941E+03</pdfrwt>
<totfact> 0.47260868E+00</totfact>
</mgrwt>
</event>
<event>
 4    2  0.6914693E-007  0.1098384E+04  0.7818608E-02  0.9262858E-01
          2   -1    0    0  501    0  0.00000000000E+00  0.00000000000E+00  0.17186141048E+04  0.17186141048E+04  0.25500000000E-02 0. -1.
         -2   -1    0    0    0  501 -0.00000000000E+00 -0.00000000000E+00 -0.67726447377E+03  0.67726447378E+03  0.25500000000E-02 0.  1.
    8880023    1    1    2    0    0  0.20102497153E+01  0.87899499196E+03  0.10638821773E+03  0.11035238539E+04  0.65864270000E+03 0.  0.
    8880022    1    1    2    0    0 -0.20102497153E+01 -0.87899499196E+03  0.93496141330E+03  0.12923547247E+04  0.15294330000E+03 0.  0.
<mgrwt>
<rscale>  0 0.10427533E+04</rscale>
<asrwt>0</asrwt>
<pdfrwt beam="1">  1        2 0.26440217E+00 0.10983836E+04</pdfrwt>
<pdfrwt beam="2">  1       -2 0.10419453E+00 0.10983836E+04</pdfrwt>
<totfact> 0.70750745E+00</totfact>
</mgrwt>
</event>
<event>
 4    2  0.6914693E-007  0.7008326E+03  0.7818608E-02  0.9993765E-01
          2   -1    0    0  501    0  0.00000000000E+00  0.00000000000E+00  0.13068400875E+04  0.13068400875E+04  0.25500000000E-02 0. -1.
         -2   -1    0    0    0  501 -0.00000000000E+00 -0.00000000000E+00 -0.45736837898E+03  0.45736837898E+03  0.25500000000E-02 0.  1.
    8880023    1    1    2    0    0 -0.20562338833E+03 -0.12278082740E+03 -0.15715976211E+03  0.71823777852E+03  0.65864270000E+03 0.  0.
    8880022    1    1    2    0    0  0.20562338833E+03  0.12278082740E+03  0.10066314706E+04  0.10459706880E+04  0.15294330000E+03 0. -1.
<mgrwt>
<rscale>  0 0.55924489E+03</rscale>
<asrwt>0</asrwt>
<pdfrwt beam="1">  1        2 0.20105232E+00 0.70083259E+03</pdfrwt>
<pdfrwt beam="2">  1       -2 0.70364366E-01 0.70083259E+03</pdfrwt>
<totfact> 0.30881008E+01</totfact>
</mgrwt>
</event>
<event>
 4    2  0.6914693E-007  0.9171069E+03  0.7818608E-02  0.9499109E-01
         -2   -1    0    0    0  501 -0.00000000000E+00  0.00000000000E+00  0.34675112758E+03  0.34675112759E+03  0.25500000000E-02 0.  1.
          2   -1    0    0  501    0  0.00000000000E+00 -0.00000000000E+00 -0.19008001055E+04  0.19008001055E+04  0.25500000000E-02 0. -1.
    8880023    1    1    2    0    0 -0.21189943325E+03  0.60197467564E+03 -0.11720512430E+04  0.14882167861E+04  0.65864270000E+03 0.  0.
    8880022    1    1    2    0    0  0.21189943325E+03 -0.60197467564E+03 -0.38199773494E+03  0.75933444702E+03  0.15294330000E+03 0.  0.
<mgrwt>
<rscale>  0 0.84349520E+03</rscale>
<asrwt>0</asrwt>
<pdfrwt beam="1">  1        2 0.29243078E+00 0.91710691E+03</pdfrwt>
<pdfrwt beam="2">  1       -2 0.53346329E-01 0.91710691E+03</pdfrwt>
<totfact> 0.25405704E+01</totfact>
</mgrwt>
</event>
<event>
 4    2  0.6914693E-007  0.7289387E+03  0.7818608E-02  0.9893425E-01
          2   -1    0    0  501    0  0.00000000000E+00  0.00000000000E+00  0.15113484303E+04  0.15113484303E+04  0.25500000000E-02 0. -1.
         -2   -1    0    0    0  501 -0.00000000000E+00 -0.00000000000E+00 -0.29312975322E+03  0.29312975323E+03  0.25500000000E-02 0.  1.
    8880023    1    1    2    0    0  0.11140959005E+03  0.29176928283E+03  0.24182502213E+03  0.76800453042E+03  0.65864270000E+03 0.  0.
    8880022    1    1    2    0    0 -0.11140959005E+03 -0.29176928283E+03  0.97639365491E+03  0.10364736531E+04  0.15294330000E+03 0.  0.
<mgrwt>
<rscale>  0 0.60580993E+03</rscale>
<asrwt>0</asrwt>
<pdfrwt beam="1">  1        2 0.23251514E+00 0.72893869E+03</pdfrwt>
<pdfrwt beam="2">  1       -2 0.45096886E-01 0.72893869E+03</pdfrwt>
<totfact> 0.59685419E+01</totfact>
</mgrwt>
</event>
<event>
 4    2  0.6914693E-007  0.6612556E+03  0.7818608E-02  0.1022905E+00
         -2   -1    0    0    0  501 -0.00000000000E+00  0.00000000000E+00  0.45335491821E+03  0.45335491822E+03  0.25500000000E-02 0.  1.
          2   -1    0    0  501    0  0.00000000000E+00 -0.00000000000E+00 -0.10427421072E+04  0.10427421072E+04  0.25500000000E-02 0. -1.
    8880023    1    1    2    0    0 -0.48100715581E+02 -0.33691447711E+02  0.19925000265E+03  0.69062259036E+03  0.65864270000E+03 0.  1.
    8880022    1    1    2    0    0  0.48100715581E+02  0.33691447711E+02 -0.78863719159E+03  0.80547443502E+03  0.15294330000E+03 0.  0.
<mgrwt>
<rscale>  0 0.46652589E+03</rscale>
<asrwt>0</asrwt>
<pdfrwt beam="1">  1        2 0.16042186E+00 0.66125562E+03</pdfrwt>
<pdfrwt beam="2">  1       -2 0.69746911E-01 0.66125562E+03</pdfrwt>
<totfact> 0.45425758E+01</totfact>
</mgrwt>
</event>
<event>
 4    2  0.6914693E-007  0.7976110E+03  0.7818608E-02  0.9715986E-01
         -2   -1    0    0    0  501 -0.00000000000E+00  0.00000000000E+00  0.65166278585E+03  0.65166278586E+03  0.25500000000E-02 0.  1.
          2   -1    0    0  501    0  0.00000000000E+00 -0.00000000000E+00 -0.24089097472E+04  0.24089097472E+04  0.25500000000E-02 0. -1.
    8880023    1    1    2    0    0  0.34786809511E+01 -0.44984546327E+03  0.37118433049E+03  0.87975056437E+03  0.65864270000E+03 0.  0.
    8880022    1    1    2    0    0 -0.34786809511E+01  0.44984546327E+03 -0.21284312918E+04  0.21808219687E+04  0.15294330000E+03 0.  0.
<mgrwt>
<rscale>  0 0.70072940E+03</rscale>
<asrwt>0</asrwt>
<pdfrwt beam="1">  1        2 0.37060149E+00 0.79761096E+03</pdfrwt>
<pdfrwt beam="2">  1       -2 0.10025581E+00 0.79761096E+03</pdfrwt>
<totfact> 0.33504119E+00</totfact>
</mgrwt>
</event>
<event>
 4    2  0.6914693E-007  0.6699745E+03  0.7818608E-02  0.1015681E+00
          2   -1    0    0  501    0  0.00000000000E+00  0.00000000000E+00  0.50598656594E+03  0.50598656595E+03  0.25500000000E-02 0. -1.
         -2   -1    0    0    0  501 -0.00000000000E+00 -0.00000000000E+00 -0.11978796761E+04  0.11978796761E+04  0.25500000000E-02 0.  1.
    8880023    1    1    2    0    0 -0.87091938964E+02 -0.86432657535E+02 -0.10789141516E+04  0.12700084893E+04  0.65864270000E+03 0.  1.
    8880022    1    1    2    0    0  0.87091938964E+02  0.86432657535E+02  0.38702104142E+03  0.43385775277E+03  0.15294330000E+03 0.  0.
<mgrwt>
<rscale>  0 0.49277864E+03</rscale>
<asrwt>0</asrwt>
<pdfrwt beam="1">  1        2 0.77844087E-01 0.66997449E+03</pdfrwt>
<pdfrwt beam="2">  1       -2 0.18428918E+00 0.66997449E+03</pdfrwt>
<totfact> 0.10559124E+01</totfact>
</mgrwt>
</event>
<event>
 4    2  0.6914693E-007  0.7626123E+03  0.7818608E-02  0.9798391E-01
         -2   -1    0    0    0  501 -0.00000000000E+00  0.00000000000E+00  0.51392738550E+03  0.51392738550E+03  0.25500000000E-02 0.  1.
          2   -1    0    0  501    0  0.00000000000E+00 -0.00000000000E+00 -0.21962002817E+04  0.21962002817E+04  0.25500000000E-02 0. -1.
    8880023    1    1    2    0    0 -0.34958547038E+03  0.15986660178E+03  0.19553873174E+03  0.78728199099E+03  0.65864270000E+03 0.  0.
    8880022    1    1    2    0    0  0.34958547038E+03 -0.15986660178E+03 -0.18778116279E+04  0.19228456762E+04  0.15294330000E+03 0.  0.
<mgrwt>
<rscale>  0 0.65448971E+03</rscale>
<asrwt>0</asrwt>
<pdfrwt beam="1">  1        2 0.33787696E+00 0.76261231E+03</pdfrwt>
<pdfrwt beam="2">  1       -2 0.79065753E-01 0.76261231E+03</pdfrwt>
<totfact> 0.76493762E+00</totfact>
</mgrwt>
</event>
<event>
 4    2  0.6914693E-007  0.7970002E+03  0.7818608E-02  0.9717320E-01
         -2   -1    0    0    0  501 -0.00000000000E+00  0.00000000000E+00  0.30037025745E+03  0.30037025747E+03  0.25500000000E-02 0.  1.
          2   -1    0    0  501    0  0.00000000000E+00 -0.00000000000E+00 -0.14372798319E+04  0.14372798319E+04  0.25500000000E-02 0. -1.
    8880023    1    1    2    0    0  0.38763417896E+03 -0.22613907096E+03 -0.48992473947E+03  0.93554026783E+03  0.65864270000E+03 0.  1.
    8880022    1    1    2    0    0 -0.38763417896E+03  0.22613907096E+03 -0.64698483494E+03  0.80210982152E+03  0.15294330000E+03 0. -1.
<mgrwt>
<rscale>  0 0.69994859E+03</rscale>
<asrwt>0</asrwt>
<pdfrwt beam="1">  1        2 0.22111997E+00 0.79700021E+03</pdfrwt>
<pdfrwt beam="2">  1       -2 0.46210809E-01 0.79700021E+03</pdfrwt>
<totfact> 0.62116282E+01</totfact>
</mgrwt>
</event>
<event>
 4    2  0.6914693E-007  0.6776098E+03  0.7818608E-02  0.1010709E+00
          2   -1    0    0  501    0  0.00000000000E+00  0.00000000000E+00  0.91892867280E+03  0.91892867280E+03  0.25500000000E-02 0. -1.
         -2   -1    0    0    0  501 -0.00000000000E+00 -0.00000000000E+00 -0.37730403986E+03  0.37730403987E+03  0.25500000000E-02 0.  1.
    8880023    1    1    2    0    0  0.15891564105E+03  0.95197050892E+01 -0.35283451636E+02  0.67852776950E+03  0.65864270000E+03 0.  1.
    8880022    1    1    2    0    0 -0.15891564105E+03 -0.95197050892E+01  0.57690808457E+03  0.61770494317E+03  0.15294330000E+03 0.  0.
<mgrwt>
<rscale>  0 0.51193697E+03</rscale>
<asrwt>0</asrwt>
<pdfrwt beam="1">  1        2 0.14137364E+00 0.67760978E+03</pdfrwt>
<pdfrwt beam="2">  1       -2 0.58046776E-01 0.67760978E+03</pdfrwt>
<totfact> 0.80615668E+01</totfact>
</mgrwt>
</event>
<event>
 4    2  0.6914693E-007  0.8215539E+03  0.7818608E-02  0.9665995E-01
         -2   -1    0    0    0  501 -0.00000000000E+00  0.00000000000E+00  0.21354755854E+03  0.21354755855E+03  0.25500000000E-02 0.  1.
          2   -1    0    0  501    0  0.00000000000E+00 -0.00000000000E+00 -0.21408099699E+04  0.21408099699E+04  0.25500000000E-02 0. -1.
    8880023    1    1    2    0    0  0.41704712335E+03 -0.25925332640E+03 -0.13578954218E+04  0.15870824721E+04  0.65864270000E+03 0.  0.
    8880022    1    1    2    0    0 -0.41704712335E+03  0.25925332640E+03 -0.56936698959E+03  0.76727505641E+03  0.15294330000E+03 0.  0.
<mgrwt>
<rscale>  0 0.73078036E+03</rscale>
<asrwt>0</asrwt>
<pdfrwt beam="1">  1        2 0.32935537E+00 0.82155389E+03</pdfrwt>
<pdfrwt beam="2">  1       -2 0.32853472E-01 0.82155389E+03</pdfrwt>
<totfact> 0.49329644E+01</totfact>
</mgrwt>
</event>
<event>
 4    2  0.6914693E-007  0.1070697E+04  0.7818608E-02  0.9294405E-01
          2   -1    0    0  501    0  0.00000000000E+00  0.00000000000E+00  0.23966662648E+04  0.23966662648E+04  0.25500000000E-02 0. -1.
         -2   -1    0    0    0  501 -0.00000000000E+00 -0.00000000000E+00 -0.77857182726E+03  0.77857182726E+03  0.25500000000E-02 0.  1.
    8880023    1    1    2    0    0 -0.58518048963E+03 -0.60839525245E+03 -0.26754568434E+03  0.11036176367E+04  0.65864270000E+03 0.  1.
    8880022    1    1    2    0    0  0.58518048963E+03  0.60839525245E+03  0.18856401219E+04  0.20716204553E+04  0.15294330000E+03 0.  0.
<mgrwt>
<rscale>  0 0.10129955E+04</rscale>
<asrwt>0</asrwt>
<pdfrwt beam="1">  1        2 0.36871787E+00 0.10706966E+04</pdfrwt>
<pdfrwt beam="2">  1       -2 0.11978029E+00 0.10706966E+04</pdfrwt>
<totfact> 0.21203917E+00</totfact>
</mgrwt>
</event>
<event>
 4    2  0.6914693E-007  0.6660751E+03  0.7818608E-02  0.1018648E+00
         -2   -1    0    0    0  501 -0.00000000000E+00  0.00000000000E+00  0.57137429107E+02  0.57137429164E+02  0.25500000000E-02 0.  1.
          2   -1    0    0  501    0  0.00000000000E+00 -0.00000000000E+00 -0.34085717743E+04  0.34085717743E+04  0.25500000000E-02 0. -1.
    8880023    1    1    2    0    0 -0.88052874005E+02 -0.45744533842E+02 -0.21587649390E+04  0.22591861675E+04  0.65864270000E+03 0.  1.
    8880022    1    1    2    0    0  0.88052874005E+02  0.45744533842E+02 -0.11926694062E+04  0.12065230360E+04  0.15294330000E+03 0.  0.
<mgrwt>
<rscale>  0 0.48177693E+03</rscale>
<asrwt>0</asrwt>
<pdfrwt beam="1">  1        2 0.52439550E+00 0.66607513E+03</pdfrwt>
<pdfrwt beam="2">  1       -2 0.87903764E-02 0.66607513E+03</pdfrwt>
<totfact> 0.86345328E+01</totfact>
</mgrwt>
</event>
<event>
 4    2  0.6914693E-007  0.8536466E+03  0.7818608E-02  0.9604966E-01
          2   -1    0    0  501    0  0.00000000000E+00  0.00000000000E+00  0.89178700829E+03  0.89178700830E+03  0.25500000000E-02 0. -1.
         -2   -1    0    0    0  501 -0.00000000000E+00 -0.00000000000E+00 -0.97676051240E+03  0.97676051240E+03  0.25500000000E-02 0.  1.
    8880023    1    1    2    0    0 -0.46625030376E+03  0.27841135565E+03 -0.64781673492E+03  0.10716244478E+04  0.65864270000E+03 0.  0.
    8880022    1    1    2    0    0  0.46625030376E+03 -0.27841135565E+03  0.56284323082E+03  0.79692307295E+03  0.15294330000E+03 0.  0.
<mgrwt>
<rscale>  0 0.76968337E+03</rscale>
<asrwt>0</asrwt>
<pdfrwt beam="1">  1        2 0.13719800E+00 0.85364655E+03</pdfrwt>
<pdfrwt beam="2">  1       -2 0.15027085E+00 0.85364655E+03</pdfrwt>
<totfact> 0.89053205E+00</totfact>
</mgrwt>
</event>
<event>
 4    2  0.6914693E-007  0.9116604E+03  0.7818608E-02  0.9507566E-01
          2   -1    0    0  501    0  0.00000000000E+00  0.00000000000E+00  0.12158543813E+04  0.12158543813E+04  0.25500000000E-02 0. -1.
         -2   -1    0    0    0  501 -0.00000000000E+00 -0.00000000000E+00 -0.92471169260E+03  0.92471169260E+03  0.25500000000E-02 0.  1.
    8880023    1    1    2    0    0  0.38517832816E+03 -0.49895096673E+03 -0.56040276660E+03  0.10701289075E+04  0.65864270000E+03 0.  1.
    8880022    1    1    2    0    0 -0.38517832816E+03  0.49895096673E+03  0.85154545532E+03  0.10704371664E+04  0.15294330000E+03 0.  0.
<mgrwt>
<rscale>  0 0.83728276E+03</rscale>
<asrwt>0</asrwt>
<pdfrwt beam="1">  1        2 0.18705452E+00 0.91166036E+03</pdfrwt>
<pdfrwt beam="2">  1       -2 0.14226334E+00 0.91166036E+03</pdfrwt>
<totfact> 0.63896497E+00</totfact>
</mgrwt>
</event>
<event>
 4    2  0.6914693E-007  0.1429584E+04  0.7818608E-02  0.8961030E-01
         -2   -1    0    0    0  501 -0.00000000000E+00  0.00000000000E+00  0.79839735608E+03  0.79839735609E+03  0.25500000000E-02 0.  1.
          2   -1    0    0  501    0  0.00000000000E+00 -0.00000000000E+00 -0.27336883654E+04  0.27336883654E+04  0.25500000000E-02 0. -1.
    8880023    1    1    2    0    0 -0.26919852539E+03  0.12399318511E+04 -0.30703979008E+03  0.14621841472E+04  0.65864270000E+03 0.  0.
    8880022    1    1    2    0    0  0.26919852539E+03 -0.12399318511E+04 -0.16282512193E+04  0.20699015743E+04  0.15294330000E+03 0.  0.
<mgrwt>
<rscale>  0 0.13900809E+04</rscale>
<asrwt>0</asrwt>
<pdfrwt beam="1">  1        2 0.42056744E+00 0.14295835E+04</pdfrwt>
<pdfrwt beam="2">  1       -2 0.12283036E+00 0.14295835E+04</pdfrwt>
<totfact> 0.12159362E+00</totfact>
</mgrwt>
</event>
<event>
 4    2  0.6914693E-007  0.8030217E+03  0.7818608E-02  0.9704300E-01
          2   -1    0    0  501    0  0.00000000000E+00  0.00000000000E+00  0.34645286473E+04  0.34645286473E+04  0.25500000000E-02 0. -1.
         -2   -1    0    0    0  501 -0.00000000000E+00 -0.00000000000E+00 -0.13664953362E+03  0.13664953364E+03  0.25500000000E-02 0.  1.
    8880023    1    1    2    0    0 -0.43851076386E+03  0.13690150126E+03  0.14051285259E+04  0.16184035627E+04  0.65864270000E+03 0. -1.
    8880022    1    1    2    0    0  0.43851076386E+03 -0.13690150126E+03  0.19227505878E+04  0.19827746183E+04  0.15294330000E+03 0.  1.
<mgrwt>
<rscale>  0 0.70761341E+03</rscale>
<asrwt>0</asrwt>
<pdfrwt beam="1">  1        2 0.53300435E+00 0.80302174E+03</pdfrwt>
<pdfrwt beam="2">  1       -2 0.21023007E-01 0.80302174E+03</pdfrwt>
<totfact> 0.17931880E+01</totfact>
</mgrwt>
</event>
<event>
 4    2  0.6914693E-007  0.6993505E+03  0.7818608E-02  0.9999906E-01
         -2   -1    0    0    0  501 -0.00000000000E+00  0.00000000000E+00  0.47651213334E+03  0.47651213334E+03  0.25500000000E-02 0.  1.
          2   -1    0    0  501    0  0.00000000000E+00 -0.00000000000E+00 -0.66798554660E+03  0.66798554660E+03  0.25500000000E-02 0. -1.
    8880023    1    1    2    0    0 -0.22751273930E+03  0.59320196128E+02  0.13691619430E+03  0.71262695903E+03  0.65864270000E+03 0.  0.
    8880022    1    1    2    0    0  0.22751273930E+03 -0.59320196128E+02 -0.32838960756E+03  0.43187072092E+03  0.15294330000E+03 0.  0.
<mgrwt>
<rscale>  0 0.55654348E+03</rscale>
<asrwt>0</asrwt>
<pdfrwt beam="1">  1        2 0.10276701E+00 0.69935051E+03</pdfrwt>
<pdfrwt beam="2">  1       -2 0.73309559E-01 0.69935051E+03</pdfrwt>
<totfact> 0.74142568E+01</totfact>
</mgrwt>
</event>
<event>
 4    2  0.6914693E-007  0.7131810E+03  0.7818608E-02  0.9946373E-01
         -2   -1    0    0    0  501 -0.00000000000E+00  0.00000000000E+00  0.17968795533E+03  0.17968795535E+03  0.25500000000E-02 0.  1.
          2   -1    0    0  501    0  0.00000000000E+00 -0.00000000000E+00 -0.21875763527E+04  0.21875763527E+04  0.25500000000E-02 0. -1.
    8880023    1    1    2    0    0 -0.17718790526E+03 -0.20837813287E+03 -0.62177554261E+03  0.94616702103E+03  0.65864270000E+03 0.  1.
    8880022    1    1    2    0    0  0.17718790526E+03  0.20837813287E+03 -0.13861128548E+04  0.14210972871E+04  0.15294330000E+03 0.  0.
<mgrwt>
<rscale>  0 0.58065553E+03</rscale>
<asrwt>0</asrwt>
<pdfrwt beam="1">  1        2 0.33655019E+00 0.71318105E+03</pdfrwt>
<pdfrwt beam="2">  1       -2 0.27644302E-01 0.71318105E+03</pdfrwt>
<totfact> 0.64907531E+01</totfact>
</mgrwt>
</event>
<event>
 4    2  0.6914693E-007  0.7401877E+03  0.7818608E-02  0.9859401E-01
         -2   -1    0    0    0  501 -0.00000000000E+00  0.00000000000E+00  0.85700460089E+02  0.85700460127E+02  0.25500000000E-02 0.  1.
          2   -1    0    0  501    0  0.00000000000E+00 -0.00000000000E+00 -0.40118723624E+04  0.40118723624E+04  0.25500000000E-02 0. -1.
    8880023    1    1    2    0    0  0.12489173879E+03 -0.31379880659E+03 -0.31717160810E+04  0.32569403958E+04  0.65864270000E+03 0. -1.
    8880022    1    1    2    0    0 -0.12489173879E+03  0.31379880659E+03 -0.75445582127E+03  0.84063242663E+03  0.15294330000E+03 0.  0.
<mgrwt>
<rscale>  0 0.62269899E+03</rscale>
<asrwt>0</asrwt>
<pdfrwt beam="1">  1        2 0.61721099E+00 0.74018771E+03</pdfrwt>
<pdfrwt beam="2">  1       -2 0.13184689E-01 0.74018771E+03</pdfrwt>
<totfact> 0.16073262E+01</totfact>
</mgrwt>
</event>
<event>
 4    2  0.7053218E-007  0.9713105E+03  0.7818608E-02  0.9420094E-01
          2   -1    0    0  501    0  0.00000000000E+00  0.00000000000E+00  0.19498336913E+04  0.19498336913E+04  0.25500000000E-02 0. -1.
         -2   -1    0    0    0  501 -0.00000000000E+00 -0.00000000000E+00 -0.12790865182E+04  0.12790865182E+04  0.25500000000E-02 0.  1.
    8880023    1    1    2    0    0  0.70091618815E+03 -0.13546342322E+03 -0.10070609262E+04  0.13991482256E+04  0.65864270000E+03 0.  0.
    8880022    1    1    2    0    0 -0.70091618815E+03  0.13546342322E+03  0.16778080993E+04  0.18297719839E+04  0.15294330000E+03 0.  0.
<mgrwt>
<rscale>  0 0.90440312E+03</rscale>
<asrwt>0</asrwt>
<pdfrwt beam="1">  1        2 0.29997441E+00 0.97131048E+03</pdfrwt>
<pdfrwt beam="2">  1       -2 0.19678254E+00 0.97131048E+03</pdfrwt>
<totfact> 0.99718943E-01</totfact>
</mgrwt>
</event>
<event>
 4    2  0.6914693E-007  0.7274134E+03  0.7818608E-02  0.9898256E-01
          2   -1    0    0  501    0  0.00000000000E+00  0.00000000000E+00  0.16083600537E+04  0.16083600537E+04  0.25500000000E-02 0. -1.
         -2   -1    0    0    0  501 -0.00000000000E+00 -0.00000000000E+00 -0.26233221349E+03  0.26233221351E+03  0.25500000000E-02 0.  1.
    8880023    1    1    2    0    0  0.71399459321E+02 -0.30036998861E+03  0.33175201302E+03  0.79949335035E+03  0.65864270000E+03 0.  1.
    8880022    1    1    2    0    0 -0.71399459321E+02  0.30036998861E+03  0.10142758271E+04  0.10711989168E+04  0.15294330000E+03 0.  0.
<mgrwt>
<rscale>  0 0.60345882E+03</rscale>
<asrwt>0</asrwt>
<pdfrwt beam="1">  1        2 0.24744000E+00 0.72741338E+03</pdfrwt>
<pdfrwt beam="2">  1       -2 0.40358803E-01 0.72741338E+03</pdfrwt>
<totfact> 0.65679896E+01</totfact>
</mgrwt>
</event>
<event>
 4    2  0.6914693E-007  0.6694172E+03  0.7818608E-02  0.1016084E+00
          2   -1    0    0  501    0  0.00000000000E+00  0.00000000000E+00  0.26063334034E+04  0.26063334034E+04  0.25500000000E-02 0. -1.
         -2   -1    0    0    0  501 -0.00000000000E+00 -0.00000000000E+00 -0.18981323169E+03  0.18981323171E+03  0.25500000000E-02 0.  1.
    8880023    1    1    2    0    0  0.28828829561E+02 -0.11609504534E+03  0.42012576110E+03  0.79033222278E+03  0.65864270000E+03 0.  1.
    8880022    1    1    2    0    0 -0.28828829561E+02  0.11609504534E+03  0.19963944106E+04  0.20058144123E+04  0.15294330000E+03 0.  0.
<mgrwt>
<rscale>  0 0.49126575E+03</rscale>
<asrwt>0</asrwt>
<pdfrwt beam="1">  1        2 0.40097435E+00 0.66941718E+03</pdfrwt>
<pdfrwt beam="2">  1       -2 0.29202037E-01 0.66941718E+03</pdfrwt>
<totfact> 0.34422807E+01</totfact>
</mgrwt>
</event>
<event>
 4    2  0.6914693E-007  0.6706042E+03  0.7818608E-02  0.1015233E+00
         -2   -1    0    0    0  501 -0.00000000000E+00  0.00000000000E+00  0.37971098814E+03  0.37971098815E+03  0.25500000000E-02 0.  1.
          2   -1    0    0  501    0  0.00000000000E+00 -0.00000000000E+00 -0.16916752725E+04  0.16916752725E+04  0.25500000000E-02 0. -1.
    8880023    1    1    2    0    0  0.12450485493E+03  0.19958586673E+02  0.70941909654E+02  0.67434617586E+03  0.65864270000E+03 0.  1.
    8880022    1    1    2    0    0 -0.12450485493E+03 -0.19958586673E+02 -0.13829061940E+04  0.13970400848E+04  0.15294330000E+03 0.  0.
<mgrwt>
<rscale>  0 0.49446662E+03</rscale>
<asrwt>0</asrwt>
<pdfrwt beam="1">  1        2 0.26025773E+00 0.67060421E+03</pdfrwt>
<pdfrwt beam="2">  1       -2 0.58417076E-01 0.67060421E+03</pdfrwt>
<totfact> 0.28179850E+01</totfact>
</mgrwt>
</event>
<event>
 4    2  0.6914693E-007  0.8418459E+03  0.7818608E-02  0.9626709E-01
          2   -1    0    0  501    0  0.00000000000E+00  0.00000000000E+00  0.14766267004E+04  0.14766267004E+04  0.25500000000E-02 0. -1.
         -2   -1    0    0    0  501 -0.00000000000E+00 -0.00000000000E+00 -0.33726605313E+03  0.33726605314E+03  0.25500000000E-02 0.  1.
    8880023    1    1    2    0    0  0.52391090166E+03  0.20288904260E+02  0.84787636959E+03  0.11948216674E+04  0.65864270000E+03 0.  0.
    8880022    1    1    2    0    0 -0.52391090166E+03 -0.20288904260E+02  0.29148427764E+03  0.61907108610E+03  0.15294330000E+03 0.  1.
<mgrwt>
<rscale>  0 0.75553317E+03</rscale>
<asrwt>0</asrwt>
<pdfrwt beam="1">  1        2 0.22717334E+00 0.84184588E+03</pdfrwt>
<pdfrwt beam="2">  1       -2 0.51887085E-01 0.84184588E+03</pdfrwt>
<totfact> 0.46467314E+01</totfact>
</mgrwt>
</event>
<event>
 4    2  0.6914693E-007  0.8750701E+03  0.7818608E-02  0.9567299E-01
          2   -1    0    0  501    0  0.00000000000E+00  0.00000000000E+00  0.24231813963E+04  0.24231813963E+04  0.25500000000E-02 0. -1.
         -2   -1    0    0    0  501 -0.00000000000E+00 -0.00000000000E+00 -0.24175654876E+03  0.24175654877E+03  0.25500000000E-02 0.  1.
    8880023    1    1    2    0    0  0.54679127890E+03 -0.18153994329E+03  0.91968747106E+03  0.12694773351E+04  0.65864270000E+03 0.  0.
    8880022    1    1    2    0    0 -0.54679127890E+03  0.18153994329E+03  0.12617373765E+04  0.13954606099E+04  0.15294330000E+03 0.  0.
<mgrwt>
<rscale>  0 0.79498874E+03</rscale>
<asrwt>0</asrwt>
<pdfrwt beam="1">  1        2 0.37279715E+00 0.87507009E+03</pdfrwt>
<pdfrwt beam="2">  1       -2 0.37193314E-01 0.87507009E+03</pdfrwt>
<totfact> 0.26929715E+01</totfact>
</mgrwt>
</event>
<event>
 4    2  0.6914693E-007  0.6699978E+03  0.7818608E-02  0.1015664E+00
         -2   -1    0    0    0  501 -0.00000000000E+00  0.00000000000E+00  0.59615048681E+02  0.59615048736E+02  0.25500000000E-02 0.  1.
          2   -1    0    0  501    0  0.00000000000E+00 -0.00000000000E+00 -0.39482406069E+04  0.39482406069E+04  0.25500000000E-02 0. -1.
    8880023    1    1    2    0    0 -0.10075789765E+03  0.70247765277E+02 -0.20036765363E+04  0.21127273300E+04  0.65864270000E+03 0.  1.
    8880022    1    1    2    0    0  0.10075789765E+03 -0.70247765277E+02 -0.18849490219E+04  0.18951283257E+04  0.15294330000E+03 0.  0.
<mgrwt>
<rscale>  0 0.49284164E+03</rscale>
<asrwt>0</asrwt>
<pdfrwt beam="1">  1        2 0.60742143E+00 0.66999784E+03</pdfrwt>
<pdfrwt beam="2">  1       -2 0.91715490E-02 0.66999784E+03</pdfrwt>
<totfact> 0.33142654E+01</totfact>
</mgrwt>
</event>
<event>
 4    2  0.6914693E-007  0.6874308E+03  0.7818608E-02  0.1005398E+00
         -2   -1    0    0    0  501 -0.00000000000E+00  0.00000000000E+00  0.44593420609E+03  0.44593420610E+03  0.25500000000E-02 0.  1.
          2   -1    0    0  501    0  0.00000000000E+00 -0.00000000000E+00 -0.23219577871E+04  0.23219577872E+04  0.25500000000E-02 0. -1.
    8880023    1    1    2    0    0  0.15015778439E+03  0.12729336174E+03  0.16886273954E+03  0.70786707172E+03  0.65864270000E+03 0.  1.
    8880022    1    1    2    0    0 -0.15015778439E+03 -0.12729336174E+03 -0.20448863206E+04  0.20600249215E+04  0.15294330000E+03 0.  0.
<mgrwt>
<rscale>  0 0.53345213E+03</rscale>
<asrwt>0</asrwt>
<pdfrwt beam="1">  1        2 0.35722427E+00 0.68743084E+03</pdfrwt>
<pdfrwt beam="2">  1       -2 0.68605264E-01 0.68743084E+03</pdfrwt>
<totfact> 0.90280054E+00</totfact>
</mgrwt>
</event>
<event>
 4    2  0.6961084E-007  0.1045489E+04  0.7818608E-02  0.9324324E-01
          2   -1    0    0  501    0  0.00000000000E+00  0.00000000000E+00  0.23054047597E+04  0.23054047597E+04  0.25500000000E-02 0. -1.
         -2   -1    0    0    0  501 -0.00000000000E+00 -0.00000000000E+00 -0.10269356507E+04  0.10269356507E+04  0.25500000000E-02 0.  1.
    8880023    1    1    2    0    0 -0.37418625378E+03  0.72057044977E+03 -0.65225181648E+03  0.12322661092E+04  0.65864270000E+03 0.  1.
    8880022    1    1    2    0    0  0.37418625378E+03 -0.72057044977E+03  0.19307209254E+04  0.21000743012E+04  0.15294330000E+03 0.  0.
<mgrwt>
<rscale>  0 0.98574070E+03</rscale>
<asrwt>0</asrwt>
<pdfrwt beam="1">  1        2 0.35467766E+00 0.10454890E+04</pdfrwt>
<pdfrwt beam="2">  1       -2 0.15799010E+00 0.10454890E+04</pdfrwt>
<totfact> 0.11682201E+00</totfact>
</mgrwt>
</event>
<event>
 4    2  0.6914693E-007  0.7364815E+03  0.7818608E-02  0.9870317E-01
         -2   -1    0    0    0  501 -0.00000000000E+00  0.00000000000E+00  0.82776467048E+02  0.82776467087E+02  0.25500000000E-02 0.  1.
          2   -1    0    0  501    0  0.00000000000E+00 -0.00000000000E+00 -0.36536141332E+04  0.36536141332E+04  0.25500000000E-02 0. -1.
    8880023    1    1    2    0    0 -0.31580425970E+03 -0.94140447273E+02 -0.23677047491E+04  0.24796029399E+04  0.65864270000E+03 0.  1.
    8880022    1    1    2    0    0  0.31580425970E+03  0.94140447273E+02 -0.12031329170E+04  0.12567876604E+04  0.15294330000E+03 0. -1.
<mgrwt>
<rscale>  0 0.61721649E+03</rscale>
<asrwt>0</asrwt>
<pdfrwt beam="1">  1        2 0.56209436E+00 0.73648147E+03</pdfrwt>
<pdfrwt beam="2">  1       -2 0.12734844E-01 0.73648147E+03</pdfrwt>
<totfact> 0.31600523E+01</totfact>
</mgrwt>
</event>
<event>
 4    2  0.6914693E-007  0.7267254E+03  0.7818608E-02  0.9900453E-01
         -2   -1    0    0    0  501 -0.00000000000E+00  0.00000000000E+00  0.30388905965E+03  0.30388905966E+03  0.25500000000E-02 0.  1.
          2   -1    0    0  501    0  0.00000000000E+00 -0.00000000000E+00 -0.19845700997E+04  0.19845700997E+04  0.25500000000E-02 0. -1.
    8880023    1    1    2    0    0  0.24956044506E+03 -0.17899507748E+03 -0.17949246072E+03  0.74856355990E+03  0.65864270000E+03 0.  0.
    8880022    1    1    2    0    0 -0.24956044506E+03  0.17899507748E+03 -0.15011885793E+04  0.15398955994E+04  0.15294330000E+03 0.  0.
<mgrwt>
<rscale>  0 0.60239318E+03</rscale>
<asrwt>0</asrwt>
<pdfrwt beam="1">  1        2 0.30531847E+00 0.72672544E+03</pdfrwt>
<pdfrwt beam="2">  1       -2 0.46752164E-01 0.72672544E+03</pdfrwt>
<totfact> 0.30598627E+01</totfact>
</mgrwt>
</event>
<event>
 4    2  0.6914693E-007  0.7258031E+03  0.7818608E-02  0.9903418E-01
          2   -1    0    0  501    0  0.00000000000E+00  0.00000000000E+00  0.30298061631E+04  0.30298061631E+04  0.25500000000E-02 0. -1.
         -2   -1    0    0    0  501 -0.00000000000E+00 -0.00000000000E+00 -0.10759500018E+03  0.10759500021E+03  0.25500000000E-02 0.  1.
    8880023    1    1    2    0    0 -0.30155109948E+03  0.45242901753E+02  0.13945994138E+04  0.15721633875E+04  0.65864270000E+03 0.  1.
    8880022    1    1    2    0    0  0.30155109948E+03 -0.45242901753E+02  0.15276117491E+04  0.15652377758E+04  0.15294330000E+03 0.  0.
<mgrwt>
<rscale>  0 0.60095925E+03</rscale>
<asrwt>0</asrwt>
<pdfrwt beam="1">  1        2 0.46612402E+00 0.72580314E+03</pdfrwt>
<pdfrwt beam="2">  1       -2 0.16553077E-01 0.72580314E+03</pdfrwt>
<totfact> 0.52375234E+01</totfact>
</mgrwt>
</event>
<event>
 4    2  0.6914693E-007  0.9080066E+03  0.7818608E-02  0.9513299E-01
         -2   -1    0    0    0  501 -0.00000000000E+00  0.00000000000E+00  0.87117622809E+03  0.87117622810E+03  0.25500000000E-02 0.  1.
          2   -1    0    0  501    0  0.00000000000E+00 -0.00000000000E+00 -0.86862400287E+03  0.86862400287E+03  0.25500000000E-02 0. -1.
    8880023    1    1    2    0    0  0.49187725964E+02 -0.62309414228E+03  0.39051269230E+03  0.98842101942E+03  0.65864270000E+03 0.  0.
    8880022    1    1    2    0    0 -0.49187725964E+02  0.62309414228E+03 -0.38796046707E+03  0.75137921155E+03  0.15294330000E+03 0.  0.
<mgrwt>
<rscale>  0 0.83310418E+03</rscale>
<asrwt>0</asrwt>
<pdfrwt beam="1">  1        2 0.13363446E+00 0.90800658E+03</pdfrwt>
<pdfrwt beam="2">  1       -2 0.13402711E+00 0.90800658E+03</pdfrwt>
<totfact> 0.12381482E+01</totfact>
</mgrwt>
</event>
<event>
 4    2  0.6914693E-007  0.7246100E+03  0.7818608E-02  0.9907285E-01
         -2   -1    0    0    0  501 -0.00000000000E+00  0.00000000000E+00  0.78811222081E+03  0.78811222082E+03  0.25500000000E-02 0.  1.
          2   -1    0    0  501    0  0.00000000000E+00 -0.00000000000E+00 -0.69538663848E+03  0.69538663848E+03  0.25500000000E-02 0. -1.
    8880023    1    1    2    0    0  0.29728376991E+03 -0.53589393710E+02  0.55341250197E+03  0.91177029266E+03  0.65864270000E+03 0.  1.
    8880022    1    1    2    0    0 -0.29728376991E+03  0.53589393710E+02 -0.46068691964E+03  0.57172856664E+03  0.15294330000E+03 0.  0.
<mgrwt>
<rscale>  0 0.59909514E+03</rscale>
<asrwt>0</asrwt>
<pdfrwt beam="1">  1        2 0.10698256E+00 0.72461001E+03</pdfrwt>
<pdfrwt beam="2">  1       -2 0.12124803E+00 0.72461001E+03</pdfrwt>
<totfact> 0.21726914E+01</totfact>
</mgrwt>
</event>
<event>
 4    2  0.6914693E-007  0.9852046E+03  0.7818608E-02  0.9401176E-01
         -2   -1    0    0    0  501 -0.00000000000E+00  0.00000000000E+00  0.28669507920E+03  0.28669507921E+03  0.25500000000E-02 0.  1.
          2   -1    0    0  501    0  0.00000000000E+00 -0.00000000000E+00 -0.41642926913E+04  0.41642926913E+04  0.25500000000E-02 0. -1.
    8880023    1    1    2    0    0  0.57210637836E+03  0.45772501376E+03 -0.75855149719E+03  0.12433939346E+04  0.65864270000E+03 0. -1.
    8880022    1    1    2    0    0 -0.57210637836E+03 -0.45772501376E+03 -0.31190461150E+04  0.32075938360E+04  0.15294330000E+03 0.  0.
<mgrwt>
<rscale>  0 0.91978990E+03</rscale>
<asrwt>0</asrwt>
<pdfrwt beam="1">  1        2 0.64066037E+00 0.98520460E+03</pdfrwt>
<pdfrwt beam="2">  1       -2 0.44106938E-01 0.98520460E+03</pdfrwt>
<totfact> 0.12951988E+00</totfact>
</mgrwt>
</event>
<event>
 4    2  0.6914693E-007  0.8708045E+03  0.7818608E-02  0.9574626E-01
         -2   -1    0    0    0  501 -0.00000000000E+00  0.00000000000E+00  0.40051558478E+03  0.40051558478E+03  0.25500000000E-02 0.  1.
          2   -1    0    0  501    0  0.00000000000E+00 -0.00000000000E+00 -0.17720381485E+04  0.17720381485E+04  0.25500000000E-02 0. -1.
    8880023    1    1    2    0    0  0.50672365823E+03  0.26023323874E+03 -0.25096413701E+03  0.90624688065E+03  0.65864270000E+03 0.  0.
    8880022    1    1    2    0    0 -0.50672365823E+03 -0.26023323874E+03 -0.11205584267E+04  0.12663068526E+04  0.15294330000E+03 0.  0.
<mgrwt>
<rscale>  0 0.78998611E+03</rscale>
<asrwt>0</asrwt>
<pdfrwt beam="1">  1        2 0.27262125E+00 0.87080446E+03</pdfrwt>
<pdfrwt beam="2">  1       -2 0.61617784E-01 0.87080446E+03</pdfrwt>
<totfact> 0.22199979E+01</totfact>
</mgrwt>
</event>
<event>
 4    2  0.6914693E-007  0.7636257E+03  0.7818608E-02  0.9795810E-01
          2   -1    0    0  501    0  0.00000000000E+00  0.00000000000E+00  0.82193612817E+03  0.82193612818E+03  0.25500000000E-02 0. -1.
         -2   -1    0    0    0  501 -0.00000000000E+00 -0.00000000000E+00 -0.10310287795E+04  0.10310287795E+04  0.25500000000E-02 0.  1.
    8880023    1    1    2    0    0  0.38460423296E+03  0.37330235842E+02 -0.81589160470E+03  0.11174986709E+04  0.65864270000E+03 0.  1.
    8880022    1    1    2    0    0 -0.38460423296E+03 -0.37330235842E+02  0.60679895343E+03  0.73546623676E+03  0.15294330000E+03 0.  0.
<mgrwt>
<rscale>  0 0.65587896E+03</rscale>
<asrwt>0</asrwt>
<pdfrwt beam="1">  1        2 0.12645171E+00 0.76362567E+03</pdfrwt>
<pdfrwt beam="2">  1       -2 0.15861981E+00 0.76362567E+03</pdfrwt>
<totfact> 0.86998691E+00</totfact>
</mgrwt>
</event>
<event>
 4    2  0.6914693E-007  0.7355507E+03  0.7818608E-02  0.9873102E-01
          2   -1    0    0  501    0  0.00000000000E+00  0.00000000000E+00  0.48847472972E+03  0.48847472973E+03  0.25500000000E-02 0. -1.
         -2   -1    0    0    0  501 -0.00000000000E+00 -0.00000000000E+00 -0.62945361909E+03  0.62945361910E+03  0.25500000000E-02 0.  1.
    8880023    1    1    2    0    0  0.68277313792E+02 -0.32025428090E+03 -0.17135116686E+03  0.75524567173E+03  0.65864270000E+03 0.  0.
    8880022    1    1    2    0    0 -0.68277313792E+02  0.32025428090E+03  0.30372277492E+02  0.36268267710E+03  0.15294330000E+03 0. -1.
<mgrwt>
<rscale>  0 0.61582753E+03</rscale>
<asrwt>0</asrwt>
<pdfrwt beam="1">  1        2 0.75149958E-01 0.73555068E+03</pdfrwt>
<pdfrwt beam="2">  1       -2 0.96839018E-01 0.73555068E+03</pdfrwt>
<totfact> 0.57081654E+01</totfact>
</mgrwt>
</event>
<event>
 4    2  0.6914693E-007  0.9516895E+03  0.7818608E-02  0.9447687E-01
         -2   -1    0    0    0  501 -0.00000000000E+00  0.00000000000E+00  0.17003617691E+04  0.17003617691E+04  0.25500000000E-02 0.  1.
          2   -1    0    0  501    0  0.00000000000E+00 -0.00000000000E+00 -0.87063729943E+03  0.87063729944E+03  0.25500000000E-02 0. -1.
    8880023    1    1    2    0    0 -0.20015471029E+03 -0.65714587742E+03  0.13809009360E+04  0.16770808608E+04  0.65864270000E+03 0.  0.
    8880022    1    1    2    0    0  0.20015471029E+03  0.65714587742E+03 -0.55117646628E+03  0.89391820781E+03  0.15294330000E+03 0.  0.
<mgrwt>
<rscale>  0 0.88252975E+03</rscale>
<asrwt>0</asrwt>
<pdfrwt beam="1">  1        2 0.13394420E+00 0.95168945E+03</pdfrwt>
<pdfrwt beam="2">  1       -2 0.26159412E+00 0.95168945E+03</pdfrwt>
<totfact> 0.16833778E+00</totfact>
</mgrwt>
</event>
<event>
 4    2  0.6914693E-007  0.6813540E+03  0.7818608E-02  0.1008568E+00
         -2   -1    0    0    0  501 -0.00000000000E+00  0.00000000000E+00  0.37378962124E+03  0.37378962125E+03  0.25500000000E-02 0.  1.
          2   -1    0    0  501    0  0.00000000000E+00 -0.00000000000E+00 -0.17534907807E+04  0.17534907807E+04  0.25500000000E-02 0. -1.
    8880023    1    1    2    0    0  0.69909010079E+02  0.15983031692E+03  0.45925116177E+02  0.68289993590E+03  0.65864270000E+03 0.  1.
    8880022    1    1    2    0    0 -0.69909010079E+02 -0.15983031692E+03 -0.14256262757E+04  0.14443804661E+04  0.15294330000E+03 0.  0.
<mgrwt>
<rscale>  0 0.52047783E+03</rscale>
<asrwt>0</asrwt>
<pdfrwt beam="1">  1        2 0.26976781E+00 0.68135395E+03</pdfrwt>
<pdfrwt beam="2">  1       -2 0.57506096E-01 0.68135395E+03</pdfrwt>
<totfact> 0.26909272E+01</totfact>
</mgrwt>
</event>
<event>
 4    2  0.6914693E-007  0.9331712E+03  0.7818608E-02  0.9474752E-01
          2   -1    0    0  501    0  0.00000000000E+00  0.00000000000E+00  0.23747523539E+04  0.23747523539E+04  0.25500000000E-02 0. -1.
         -2   -1    0    0    0  501 -0.00000000000E+00 -0.00000000000E+00 -0.36292843351E+03  0.36292843352E+03  0.25500000000E-02 0.  1.
    8880023    1    1    2    0    0 -0.65829115968E+03 -0.60422995059E+02  0.45243064989E+03  0.10370640715E+04  0.65864270000E+03 0.  0.
    8880022    1    1    2    0    0  0.65829115968E+03  0.60422995059E+02  0.15593932705E+04  0.17006167159E+04  0.15294330000E+03 0.  0.
<mgrwt>
<rscale>  0 0.86171111E+03</rscale>
<asrwt>0</asrwt>
<pdfrwt beam="1">  1        2 0.36534650E+00 0.93317115E+03</pdfrwt>
<pdfrwt beam="2">  1       -2 0.55835145E-01 0.93317115E+03</pdfrwt>
<totfact> 0.12604211E+01</totfact>
</mgrwt>
</event>
<event>
 4    2  0.6914693E-007  0.8799371E+03  0.7818608E-02  0.9559038E-01
         -2   -1    0    0    0  501 -0.00000000000E+00  0.00000000000E+00  0.49018232436E+03  0.49018232437E+03  0.25500000000E-02 0.  1.
          2   -1    0    0  501    0  0.00000000000E+00 -0.00000000000E+00 -0.15225629624E+04  0.15225629624E+04  0.25500000000E-02 0. -1.
    8880023    1    1    2    0    0  0.20692695399E+03 -0.54558258754E+03 -0.77569656037E+02  0.88334952421E+03  0.65864270000E+03 0.  0.
    8880022    1    1    2    0    0 -0.20692695399E+03  0.54558258754E+03 -0.95481098198E+03  0.11293957625E+04  0.15294330000E+03 0.  0.
<mgrwt>
<rscale>  0 0.80067658E+03</rscale>
<asrwt>0</asrwt>
<pdfrwt beam="1">  1        2 0.23424045E+00 0.87993712E+03</pdfrwt>
<pdfrwt beam="2">  1       -2 0.75412666E-01 0.87993712E+03</pdfrwt>
<totfact> 0.19628085E+01</totfact>
</mgrwt>
</event>
<event>
 4    2  0.6914693E-007  0.8256183E+03  0.7818608E-02  0.9657919E-01
         -2   -1    0    0    0  501 -0.00000000000E+00  0.00000000000E+00  0.13445047550E+04  0.13445047550E+04  0.25500000000E-02 0.  1.
          2   -1    0    0  501    0  0.00000000000E+00 -0.00000000000E+00 -0.86598928407E+03  0.86598928407E+03  0.25500000000E-02 0. -1.
    8880023    1    1    2    0    0 -0.48848730414E+03 -0.95997226837E+02  0.11154426320E+04  0.13877527825E+04  0.65864270000E+03 0.  1.
    8880022    1    1    2    0    0  0.48848730414E+03  0.95997226837E+02 -0.63692716101E+03  0.82274125660E+03  0.15294330000E+03 0.  0.
<mgrwt>
<rscale>  0 0.73578525E+03</rscale>
<asrwt>0</asrwt>
<pdfrwt beam="1">  1        2 0.13322912E+00 0.82561827E+03</pdfrwt>
<pdfrwt beam="2">  1       -2 0.20684689E+00 0.82561827E+03</pdfrwt>
<totfact> 0.37619156E+00</totfact>
</mgrwt>
</event>
<event>
 4    2  0.7570619E-007  0.6615066E+03  0.7818608E-02  0.1022663E+00
         -2   -1    0    0    0  501 -0.00000000000E+00  0.00000000000E+00  0.70762285088E+03  0.70762285088E+03  0.25500000000E-02 0.  1.
          2   -1    0    0  501    0  0.00000000000E+00 -0.00000000000E+00 -0.12855368763E+04  0.12855368763E+04  0.25500000000E-02 0. -1.
    8880023    1    1    2    0    0  0.46267414110E+02 -0.40498744833E+02  0.54568511362E+03  0.85753324800E+03  0.65864270000E+03 0.  1.
    8880022    1    1    2    0    0 -0.46267414110E+02  0.40498744833E+02 -0.11235991390E+04  0.11356264791E+04  0.15294330000E+03 0.  0.
<mgrwt>
<rscale>  0 0.46737643E+03</rscale>
<asrwt>0</asrwt>
<pdfrwt beam="1">  1        2 0.19777490E+00 0.66150664E+03</pdfrwt>
<pdfrwt beam="2">  1       -2 0.10886505E+00 0.66150664E+03</pdfrwt>
<totfact> 0.11732830E+01</totfact>
</mgrwt>
</event>
<event>
 4    2  0.6914693E-007  0.8670368E+03  0.7818608E-02  0.9581167E-01
          2   -1    0    0  501    0  0.00000000000E+00  0.00000000000E+00  0.13183515920E+04  0.13183515920E+04  0.25500000000E-02 0. -1.
         -2   -1    0    0    0  501 -0.00000000000E+00 -0.00000000000E+00 -0.44628448924E+03  0.44628448924E+03  0.25500000000E-02 0.  1.
    8880023    1    1    2    0    0  0.40308723825E+03  0.39428828098E+03  0.23099638616E+03  0.89728039477E+03  0.65864270000E+03 0.  0.
    8880022    1    1    2    0    0 -0.40308723825E+03 -0.39428828098E+03  0.64107071659E+03  0.86735568646E+03  0.15294330000E+03 0.  0.
<mgrwt>
<rscale>  0 0.78555323E+03</rscale>
<asrwt>0</asrwt>
<pdfrwt beam="1">  1        2 0.20282332E+00 0.86703678E+03</pdfrwt>
<pdfrwt beam="2">  1       -2 0.68659154E-01 0.86703678E+03</pdfrwt>
<totfact> 0.31540237E+01</totfact>
</mgrwt>
</event>
<event>
 4    2  0.6914693E-007  0.6906673E+03  0.7818608E-02  0.1003837E+00
         -2   -1    0    0    0  501 -0.00000000000E+00  0.00000000000E+00  0.27325653648E+03  0.27325653649E+03  0.25500000000E-02 0.  1.
          2   -1    0    0  501    0  0.00000000000E+00 -0.00000000000E+00 -0.94643012690E+03  0.94643012691E+03  0.25500000000E-02 0. -1.
    8880023    1    1    2    0    0 -0.20572059460E+03  0.29834249886E+02 -0.27121149108E+03  0.74200870930E+03  0.65864270000E+03 0.  1.
    8880022    1    1    2    0    0  0.20572059460E+03 -0.29834249886E+02 -0.40196209934E+03  0.47767795410E+03  0.15294330000E+03 0.  0.
<mgrwt>
<rscale>  0 0.53999300E+03</rscale>
<asrwt>0</asrwt>
<pdfrwt beam="1">  1        2 0.14560463E+00 0.69066725E+03</pdfrwt>
<pdfrwt beam="2">  1       -2 0.42039468E-01 0.69066725E+03</pdfrwt>
<totfact> 0.14864462E+02</totfact>
</mgrwt>
</event>
<event>
 4    2  0.6914693E-007  0.1644365E+04  0.7818608E-02  0.8813896E-01
         -2   -1    0    0    0  501 -0.00000000000E+00  0.00000000000E+00  0.31544020309E+04  0.31544020309E+04  0.25500000000E-02 0.  1.
          2   -1    0    0  501    0  0.00000000000E+00 -0.00000000000E+00 -0.11500737886E+04  0.11500737886E+04  0.25500000000E-02 0. -1.
    8880023    1    1    2    0    0  0.13603431507E+04 -0.64776042193E+03  0.22327344335E+04  0.27729118826E+04  0.65864270000E+03 0.  0.
    8880022    1    1    2    0    0 -0.13603431507E+04  0.64776042193E+03 -0.22840619122E+03  0.15315639370E+04  0.15294330000E+03 0.  0.
<mgrwt>
<rscale>  0 0.16108738E+04</rscale>
<asrwt>0</asrwt>
<pdfrwt beam="1">  1        2 0.17693443E+00 0.16443653E+04</pdfrwt>
<pdfrwt beam="2">  1       -2 0.48529261E+00 0.16443653E+04</pdfrwt>
<totfact> 0.38365997E-02</totfact>
</mgrwt>
</event>
<event>
 4    2  0.6914693E-007  0.7674647E+03  0.7818608E-02  0.9786152E-01
         -2   -1    0    0    0  501 -0.00000000000E+00  0.00000000000E+00  0.70981238936E+03  0.70981238937E+03  0.25500000000E-02 0.  1.
          2   -1    0    0  501    0  0.00000000000E+00 -0.00000000000E+00 -0.91503993209E+03  0.91503993210E+03  0.25500000000E-02 0. -1.
    8880023    1    1    2    0    0 -0.30775124646E+03  0.24592905620E+03  0.41642644800E+03  0.87316271292E+03  0.65864270000E+03 0.  0.
    8880022    1    1    2    0    0  0.30775124646E+03 -0.24592905620E+03 -0.62165399073E+03  0.75168960854E+03  0.15294330000E+03 0.  0.
<mgrwt>
<rscale>  0 0.66111044E+03</rscale>
<asrwt>0</asrwt>
<pdfrwt beam="1">  1        2 0.14077537E+00 0.76746475E+03</pdfrwt>
<pdfrwt beam="2">  1       -2 0.10920191E+00 0.76746475E+03</pdfrwt>
<totfact> 0.19420344E+01</totfact>
</mgrwt>
</event>
<event>
 4    2  0.6914693E-007  0.6735024E+03  0.7818608E-02  0.1013267E+00
          2   -1    0    0  501    0  0.00000000000E+00  0.00000000000E+00  0.49668339466E+04  0.49668339466E+04  0.25500000000E-02 0. -1.
         -2   -1    0    0    0  501 -0.00000000000E+00 -0.00000000000E+00 -0.56747714765E+02  0.56747714822E+02  0.25500000000E-02 0.  1.
    8880023    1    1    2    0    0 -0.13133013358E+03  0.50474008063E+02  0.20897676075E+04  0.21956170178E+04  0.65864270000E+03 0.  1.
    8880022    1    1    2    0    0  0.13133013358E+03 -0.50474008063E+02  0.28203186243E+04  0.28279646435E+04  0.15294330000E+03 0.  0.
<mgrwt>
<rscale>  0 0.50196487E+03</rscale>
<asrwt>0</asrwt>
<pdfrwt beam="1">  1        2 0.76412828E+00 0.67350237E+03</pdfrwt>
<pdfrwt beam="2">  1       -2 0.87304179E-02 0.67350237E+03</pdfrwt>
<totfact> 0.38509486E+00</totfact>
</mgrwt>
</event>
<event>
 4    2  0.6914693E-007  0.9560573E+03  0.7818608E-02  0.9441452E-01
         -2   -1    0    0    0  501 -0.00000000000E+00  0.00000000000E+00  0.13980685955E+04  0.13980685955E+04  0.25500000000E-02 0.  1.
          2   -1    0    0  501    0  0.00000000000E+00 -0.00000000000E+00 -0.70177573566E+03  0.70177573566E+03  0.25500000000E-02 0. -1.
    8880023    1    1    2    0    0 -0.67239253481E+03 -0.16770118166E+03 -0.17934978025E+03  0.97273426851E+03  0.65864270000E+03 0.  0.
    8880022    1    1    2    0    0  0.67239253481E+03  0.16770118166E+03  0.87564264009E+03  0.11271100627E+04  0.15294330000E+03 0.  0.
<mgrwt>
<rscale>  0 0.88741463E+03</rscale>
<asrwt>0</asrwt>
<pdfrwt beam="1">  1        2 0.10796550E+00 0.95605733E+03</pdfrwt>
<pdfrwt beam="2">  1       -2 0.21508747E+00 0.95605733E+03</pdfrwt>
<totfact> 0.43336454E+00</totfact>
</mgrwt>
</event>
<event>
 4    2  0.6914693E-007  0.8531951E+03  0.7818608E-02  0.9605785E-01
          2   -1    0    0  501    0  0.00000000000E+00  0.00000000000E+00  0.20106020712E+04  0.20106020712E+04  0.25500000000E-02 0. -1.
         -2   -1    0    0    0  501 -0.00000000000E+00 -0.00000000000E+00 -0.45167725338E+03  0.45167725339E+03  0.25500000000E-02 0.  1.
    8880023    1    1    2    0    0 -0.54221178086E+03  0.11752181505E+02  0.53523237716E+02  0.85487231345E+03  0.65864270000E+03 0.  1.
    8880022    1    1    2    0    0  0.54221178086E+03 -0.11752181505E+02  0.15054015801E+04  0.16074070112E+04  0.15294330000E+03 0.  0.
<mgrwt>
<rscale>  0 0.76914504E+03</rscale>
<asrwt>0</asrwt>
<pdfrwt beam="1">  1        2 0.30932339E+00 0.85319513E+03</pdfrwt>
<pdfrwt beam="2">  1       -2 0.69488809E-01 0.85319513E+03</pdfrwt>
<totfact> 0.12707436E+01</totfact>
</mgrwt>
</event>
<event>
 4    2  0.6914693E-007  0.1263761E+04  0.7818608E-02  0.9097504E-01
         -2   -1    0    0    0  501 -0.00000000000E+00  0.00000000000E+00  0.62180735060E+03  0.62180735060E+03  0.25500000000E-02 0.  1.
          2   -1    0    0  501    0  0.00000000000E+00 -0.00000000000E+00 -0.35947231097E+04  0.35947231097E+04  0.25500000000E-02 0. -1.
    8880023    1    1    2    0    0 -0.13882550037E+03 -0.10695832453E+04 -0.25608909379E+03  0.12894466520E+04  0.65864270000E+03 0.  0.
    8880022    1    1    2    0    0  0.13882550037E+03  0.10695832453E+04 -0.27168266653E+04  0.29270838082E+04  0.15294330000E+03 0.  0.
<mgrwt>
<rscale>  0 0.12176991E+04</rscale>
<asrwt>0</asrwt>
<pdfrwt beam="1">  1        2 0.55303431E+00 0.12637607E+04</pdfrwt>
<pdfrwt beam="2">  1       -2 0.95662671E-01 0.12637607E+04</pdfrwt>
<totfact> 0.63476286E-01</totfact>
</mgrwt>
</event>
<event>
 4    2  0.6914693E-007  0.7470526E+03  0.7818608E-02  0.9839860E-01
          2   -1    0    0  501    0  0.00000000000E+00  0.00000000000E+00  0.25316848125E+04  0.25316848125E+04  0.25500000000E-02 0. -1.
         -2   -1    0    0    0  501 -0.00000000000E+00 -0.00000000000E+00 -0.15998215085E+03  0.15998215087E+03  0.25500000000E-02 0.  1.
    8880023    1    1    2    0    0 -0.10435205943E+03 -0.33673143702E+03  0.89513089044E+03  0.11659103440E+04  0.65864270000E+03 0.  1.
    8880022    1    1    2    0    0  0.10435205943E+03  0.33673143702E+03  0.14765717712E+04  0.15257566194E+04  0.15294330000E+03 0.  0.
<mgrwt>
<rscale>  0 0.63266613E+03</rscale>
<asrwt>0</asrwt>
<pdfrwt beam="1">  1        2 0.38948994E+00 0.74705262E+03</pdfrwt>
<pdfrwt beam="2">  1       -2 0.24612641E-01 0.74705262E+03</pdfrwt>
<totfact> 0.51257773E+01</totfact>
</mgrwt>
</event>
<event>
 4    2  0.6914693E-007  0.7695848E+03  0.7818608E-02  0.9780897E-01
         -2   -1    0    0    0  501 -0.00000000000E+00  0.00000000000E+00  0.21727611396E+03  0.21727611397E+03  0.25500000000E-02 0.  1.
          2   -1    0    0  501    0  0.00000000000E+00 -0.00000000000E+00 -0.17070796959E+04  0.17070796959E+04  0.25500000000E-02 0. -1.
    8880023    1    1    2    0    0  0.39805666042E+03 -0.12100127243E+01 -0.77617774289E+03  0.10930291231E+04  0.65864270000E+03 0.  0.
    8880022    1    1    2    0    0 -0.39805666042E+03  0.12100127243E+01 -0.71362583905E+03  0.83132668681E+03  0.15294330000E+03 0.  1.
<mgrwt>
<rscale>  0 0.66397879E+03</rscale>
<asrwt>0</asrwt>
<pdfrwt beam="1">  1        2 0.26262764E+00 0.76958481E+03</pdfrwt>
<pdfrwt beam="2">  1       -2 0.33427096E-01 0.76958481E+03</pdfrwt>
<totfact> 0.82908239E+01</totfact>
</mgrwt>
</event>
<event>
 4    2  0.6914693E-007  0.6599045E+03  0.7818608E-02  0.1024254E+00
          2   -1    0    0  501    0  0.00000000000E+00  0.00000000000E+00  0.14215708949E+04  0.14215708949E+04  0.25500000000E-02 0. -1.
         -2   -1    0    0    0  501 -0.00000000000E+00 -0.00000000000E+00 -0.13803300777E+03  0.13803300779E+03  0.25500000000E-02 0.  1.
    8880023    1    1    2    0    0 -0.13941381485E+02  0.38333245483E+02  0.73082672756E+03  0.98467340362E+03  0.65864270000E+03 0.  0.
    8880022    1    1    2    0    0  0.13941381485E+02 -0.38333245483E+02  0.55271115962E+03  0.57493049912E+03  0.15294330000E+03 0.  0.
<mgrwt>
<rscale>  0 0.46182094E+03</rscale>
<asrwt>0</asrwt>
<pdfrwt beam="1">  1        2 0.21870322E+00 0.65990454E+03</pdfrwt>
<pdfrwt beam="2">  1       -2 0.21235847E-01 0.65990454E+03</pdfrwt>
<totfact> 0.27513046E+02</totfact>
</mgrwt>
</event>
<event>
 4    2  0.6914693E-007  0.8458176E+03  0.7818608E-02  0.9619307E-01
          2   -1    0    0  501    0  0.00000000000E+00  0.00000000000E+00  0.13681250597E+04  0.13681250597E+04  0.25500000000E-02 0. -1.
         -2   -1    0    0    0  501 -0.00000000000E+00 -0.00000000000E+00 -0.41084502082E+03  0.41084502082E+03  0.25500000000E-02 0.  1.
    8880023    1    1    2    0    0 -0.29277081059E+03  0.44258606591E+03  0.25073134384E+03  0.88219815592E+03  0.65864270000E+03 0.  1.
    8880022    1    1    2    0    0  0.29277081059E+03 -0.44258606591E+03  0.70654869503E+03  0.89677192459E+03  0.15294330000E+03 0.  0.
<mgrwt>
<rscale>  0 0.76031406E+03</rscale>
<asrwt>0</asrwt>
<pdfrwt beam="1">  1        2 0.21048078E+00 0.84581758E+03</pdfrwt>
<pdfrwt beam="2">  1       -2 0.63206926E-01 0.84581758E+03</pdfrwt>
<totfact> 0.35377149E+01</totfact>
</mgrwt>
</event>
<event>
 4    2  0.6914693E-007  0.8444436E+03  0.7818608E-02  0.9621858E-01
         -2   -1    0    0    0  501 -0.00000000000E+00  0.00000000000E+00  0.13542709113E+04  0.13542709113E+04  0.25500000000E-02 0.  1.
          2   -1    0    0  501    0  0.00000000000E+00 -0.00000000000E+00 -0.37907500886E+03  0.37907500887E+03  0.25500000000E-02 0. -1.
    8880023    1    1    2    0    0 -0.25176680752E+03 -0.46463776543E+03  0.78009892288E+03  0.11496257279E+04  0.65864270000E+03 0.  1.
    8880022    1    1    2    0    0  0.25176680752E+03  0.46463776543E+03  0.19509697952E+03  0.58372019227E+03  0.15294330000E+03 0.  0.
<mgrwt>
<rscale>  0 0.75866232E+03</rscale>
<asrwt>0</asrwt>
<pdfrwt beam="1">  1        2 0.58319232E-01 0.84444359E+03</pdfrwt>
<pdfrwt beam="2">  1       -2 0.20834937E+00 0.84444359E+03</pdfrwt>
<totfact> 0.10017927E+01</totfact>
</mgrwt>
</event>
<event>
 4    2  0.6914693E-007  0.7700269E+03  0.7818608E-02  0.9779808E-01
          2   -1    0    0  501    0  0.00000000000E+00  0.00000000000E+00  0.68280990985E+03  0.68280990986E+03  0.25500000000E-02 0. -1.
         -2   -1    0    0    0  501 -0.00000000000E+00 -0.00000000000E+00 -0.57615332296E+03  0.57615332297E+03  0.25500000000E-02 0.  1.
    8880023    1    1    2    0    0  0.22261955115E+03  0.33101625987E+03 -0.11350066399E+03  0.77834686088E+03  0.65864270000E+03 0.  1.
    8880022    1    1    2    0    0 -0.22261955115E+03 -0.33101625987E+03  0.22015725088E+03  0.48061637195E+03  0.15294330000E+03 0. -1.
<mgrwt>
<rscale>  0 0.66457514E+03</rscale>
<asrwt>0</asrwt>
<pdfrwt beam="1">  1        2 0.10504768E+00 0.77002691E+03</pdfrwt>
<pdfrwt beam="2">  1       -2 0.88638974E-01 0.77002691E+03</pdfrwt>
<totfact> 0.46805960E+01</totfact>
</mgrwt>
</event>
<event>
 4    2  0.6914693E-007  0.9092422E+03  0.7818608E-02  0.9511355E-01
         -2   -1    0    0    0  501 -0.00000000000E+00  0.00000000000E+00  0.86285183059E+03  0.86285183060E+03  0.25500000000E-02 0.  1.
          2   -1    0    0  501    0  0.00000000000E+00 -0.00000000000E+00 -0.88469907781E+03  0.88469907781E+03  0.25500000000E-02 0. -1.
    8880023    1    1    2    0    0  0.62072915274E+03 -0.87215055618E+02  0.38215555157E+03  0.98628810134E+03  0.65864270000E+03 0.  1.
    8880022    1    1    2    0    0 -0.62072915274E+03  0.87215055618E+02 -0.40400279878E+03  0.76126280707E+03  0.15294330000E+03 0.  0.
<mgrwt>
<rscale>  0 0.83451827E+03</rscale>
<asrwt>0</asrwt>
<pdfrwt beam="1">  1        2 0.13610755E+00 0.90924219E+03</pdfrwt>
<pdfrwt beam="2">  1       -2 0.13274643E+00 0.90924219E+03</pdfrwt>
<totfact> 0.12368799E+01</totfact>
</mgrwt>
</event>
<event>
 4    2  0.6914693E-007  0.8220708E+03  0.7818608E-02  0.9664962E-01
          2   -1    0    0  501    0  0.00000000000E+00  0.00000000000E+00  0.14005480253E+04  0.14005480253E+04  0.25500000000E-02 0. -1.
         -2   -1    0    0    0  501 -0.00000000000E+00 -0.00000000000E+00 -0.54431143877E+03  0.54431143878E+03  0.25500000000E-02 0.  1.
    8880023    1    1    2    0    0  0.47873956327E+03 -0.11313065941E+03 -0.12990296222E+03  0.83227105044E+03  0.65864270000E+03 0.  1.
    8880022    1    1    2    0    0 -0.47873956327E+03  0.11313065941E+03  0.98613954870E+03  0.11125884136E+04  0.15294330000E+03 0.  0.
<mgrwt>
<rscale>  0 0.73141823E+03</rscale>
<asrwt>0</asrwt>
<pdfrwt beam="1">  1        2 0.21546893E+00 0.82207075E+03</pdfrwt>
<pdfrwt beam="2">  1       -2 0.83740221E-01 0.82207075E+03</pdfrwt>
<totfact> 0.18276020E+01</totfact>
</mgrwt>
</event>
<event>
 4    2  0.6914693E-007  0.1006121E+04  0.7818608E-02  0.9373593E-01
          2   -1    0    0  501    0  0.00000000000E+00  0.00000000000E+00  0.25290528538E+04  0.25290528538E+04  0.25500000000E-02 0. -1.
         -2   -1    0    0    0  501 -0.00000000000E+00 -0.00000000000E+00 -0.33764698450E+03  0.33764698451E+03  0.25500000000E-02 0.  1.
    8880023    1    1    2    0    0  0.22910029373E+03 -0.72524635213E+03  0.85000394933E+03  0.13171128031E+04  0.65864270000E+03 0.  0.
    8880022    1    1    2    0    0 -0.22910029373E+03  0.72524635213E+03  0.13414019200E+04  0.15495870353E+04  0.15294330000E+03 0.  0.
<mgrwt>
<rscale>  0 0.94281106E+03</rscale>
<asrwt>0</asrwt>
<pdfrwt beam="1">  1        2 0.38908506E+00 0.10061210E+04</pdfrwt>
<pdfrwt beam="2">  1       -2 0.51945689E-01 0.10061210E+04</pdfrwt>
<totfact> 0.11856657E+01</totfact>
</mgrwt>
</event>
<event>
 4    2  0.6914693E-007  0.7417675E+03  0.7818608E-02  0.9854828E-01
         -2   -1    0    0    0  501 -0.00000000000E+00  0.00000000000E+00  0.39303642759E+03  0.39303642760E+03  0.25500000000E-02 0.  1.
          2   -1    0    0  501    0  0.00000000000E+00 -0.00000000000E+00 -0.10196982244E+04  0.10196982244E+04  0.25500000000E-02 0. -1.
    8880023    1    1    2    0    0  0.10334709900E+03 -0.32515865934E+03 -0.73965094678E+02  0.74544605312E+03  0.65864270000E+03 0.  0.
    8880022    1    1    2    0    0 -0.10334709900E+03  0.32515865934E+03 -0.55269670210E+03  0.66728859884E+03  0.15294330000E+03 0.  0.
<mgrwt>
<rscale>  0 0.62501351E+03</rscale>
<asrwt>0</asrwt>
<pdfrwt beam="1">  1        2 0.15687665E+00 0.74176747E+03</pdfrwt>
<pdfrwt beam="2">  1       -2 0.60467143E-01 0.74176747E+03</pdfrwt>
<totfact> 0.63323731E+01</totfact>
</mgrwt>
</event>
<event>
 4    2  0.6914693E-007  0.9693858E+03  0.7818608E-02  0.9422754E-01
         -2   -1    0    0    0  501 -0.00000000000E+00  0.00000000000E+00  0.11354046189E+04  0.11354046189E+04  0.25500000000E-02 0.  1.
          2   -1    0    0  501    0  0.00000000000E+00 -0.00000000000E+00 -0.82047718773E+03  0.82047718773E+03  0.25500000000E-02 0. -1.
    8880023    1    1    2    0    0  0.63571997529E+03  0.31899659562E+03  0.63732297317E+03  0.11601247749E+04  0.65864270000E+03 0. -1.
    8880022    1    1    2    0    0 -0.63571997529E+03 -0.31899659562E+03 -0.32239554200E+03  0.79575703171E+03  0.15294330000E+03 0.  0.
<mgrwt>
<rscale>  0 0.90226530E+03</rscale>
<asrwt>0</asrwt>
<pdfrwt beam="1">  1        2 0.12622726E+00 0.96938585E+03</pdfrwt>
<pdfrwt beam="2">  1       -2 0.17467763E+00 0.96938585E+03</pdfrwt>
<totfact> 0.65416942E+00</totfact>
</mgrwt>
</event>
<event>
 4    2  0.6914693E-007  0.7278855E+03  0.7818608E-02  0.9896755E-01
         -2   -1    0    0    0  501 -0.00000000000E+00  0.00000000000E+00  0.19138102727E+04  0.19138102727E+04  0.25500000000E-02 0.  1.
          2   -1    0    0  501    0  0.00000000000E+00 -0.00000000000E+00 -0.36473808285E+03  0.36473808285E+03  0.25500000000E-02 0. -1.
    8880023    1    1    2    0    0  0.30897642444E+03 -0.23253621931E+02  0.17383306118E+04  0.18845717508E+04  0.65864270000E+03 0.  1.
    8880022    1    1    2    0    0 -0.30897642444E+03  0.23253621931E+02 -0.18925842194E+03  0.39397660474E+03  0.15294330000E+03 0.  0.
<mgrwt>
<rscale>  0 0.60418832E+03</rscale>
<asrwt>0</asrwt>
<pdfrwt beam="1">  1        2 0.56113552E-01 0.72788555E+03</pdfrwt>
<pdfrwt beam="2">  1       -2 0.29443235E+00 0.72788555E+03</pdfrwt>
<totfact> 0.31609840E+00</totfact>
</mgrwt>
</event>
<event>
 4    2  0.6914693E-007  0.7213651E+03  0.7818608E-02  0.9917994E-01
          2   -1    0    0  501    0  0.00000000000E+00  0.00000000000E+00  0.29953405464E+04  0.29953405464E+04  0.25500000000E-02 0. -1.
         -2   -1    0    0    0  501 -0.00000000000E+00 -0.00000000000E+00 -0.15666141105E+03  0.15666141107E+03  0.25500000000E-02 0.  1.
    8880023    1    1    2    0    0 -0.55957621389E+02  0.28883594620E+03  0.76304939177E+03  0.10500533509E+04  0.65864270000E+03 0.  1.
    8880022    1    1    2    0    0  0.55957621389E+02 -0.28883594620E+03  0.20756297436E+04  0.21019486066E+04  0.15294330000E+03 0.  0.
<mgrwt>
<rscale>  0 0.59397112E+03</rscale>
<asrwt>0</asrwt>
<pdfrwt beam="1">  1        2 0.46082166E+00 0.72136514E+03</pdfrwt>
<pdfrwt beam="2">  1       -2 0.24101754E-01 0.72136514E+03</pdfrwt>
<totfact> 0.28513788E+01</totfact>
</mgrwt>
</event>
<event>
 4    2  0.6914693E-007  0.7495574E+03  0.7818608E-02  0.9832934E-01
          2   -1    0    0  501    0  0.00000000000E+00  0.00000000000E+00  0.18500452933E+04  0.18500452933E+04  0.25500000000E-02 0. -1.
         -2   -1    0    0    0  501 -0.00000000000E+00 -0.00000000000E+00 -0.35303600212E+03  0.35303600212E+03  0.25500000000E-02 0.  1.
    8880023    1    1    2    0    0  0.35361440992E+03  0.54615620830E+02  0.10399300308E+03  0.75673692119E+03  0.65864270000E+03 0.  1.
    8880022    1    1    2    0    0 -0.35361440992E+03 -0.54615620830E+02  0.13930162881E+04  0.14463443743E+04  0.15294330000E+03 0.  0.
<mgrwt>
<rscale>  0 0.63624696E+03</rscale>
<asrwt>0</asrwt>
<pdfrwt beam="1">  1        2 0.28462235E+00 0.74955735E+03</pdfrwt>
<pdfrwt beam="2">  1       -2 0.54313232E-01 0.74955735E+03</pdfrwt>
<totfact> 0.26606882E+01</totfact>
</mgrwt>
</event>
<event>
 4    2  0.6914693E-007  0.8925124E+03  0.7818608E-02  0.9538160E-01
          2   -1    0    0  501    0  0.00000000000E+00  0.00000000000E+00  0.17592874127E+04  0.17592874127E+04  0.25500000000E-02 0. -1.
         -2   -1    0    0    0  501 -0.00000000000E+00 -0.00000000000E+00 -0.65385434030E+03  0.65385434030E+03  0.25500000000E-02 0.  1.
    8880023    1    1    2    0    0 -0.59358822480E+03  0.10208470013E+03 -0.24590614613E+03  0.92576903469E+03  0.65864270000E+03 0.  1.
    8880022    1    1    2    0    0  0.59358822480E+03 -0.10208470013E+03  0.13513392185E+04  0.14873727183E+04  0.15294330000E+03 0.  0.
<mgrwt>
<rscale>  0 0.81527967E+03</rscale>
<asrwt>0</asrwt>
<pdfrwt beam="1">  1        2 0.27065960E+00 0.89251245E+03</pdfrwt>
<pdfrwt beam="2">  1       -2 0.10059298E+00 0.89251245E+03</pdfrwt>
<totfact> 0.74797450E+00</totfact>
</mgrwt>
</event>
<event>
 4    2  0.6914693E-007  0.7355377E+03  0.7818608E-02  0.9873141E-01
         -2   -1    0    0    0  501 -0.00000000000E+00  0.00000000000E+00  0.16122028953E+03  0.16122028955E+03  0.25500000000E-02 0.  1.
          2   -1    0    0  501    0  0.00000000000E+00 -0.00000000000E+00 -0.32444740875E+04  0.32444740875E+04  0.25500000000E-02 0. -1.
    8880023    1    1    2    0    0  0.32737201911E+03  0.57451666744E+01 -0.77178457172E+03  0.10661458987E+04  0.65864270000E+03 0.  1.
    8880022    1    1    2    0    0 -0.32737201911E+03 -0.57451666744E+01 -0.23114692263E+04  0.23395484784E+04  0.15294330000E+03 0.  0.
<mgrwt>
<rscale>  0 0.61580807E+03</rscale>
<asrwt>0</asrwt>
<pdfrwt beam="1">  1        2 0.49914981E+00 0.73553766E+03</pdfrwt>
<pdfrwt beam="2">  1       -2 0.24803124E-01 0.73553766E+03</pdfrwt>
<totfact> 0.18866892E+01</totfact>
</mgrwt>
</event>
<event>
 4    2  0.6914693E-007  0.9133576E+03  0.7818608E-02  0.9504920E-01
          2   -1    0    0  501    0  0.00000000000E+00  0.00000000000E+00  0.15610834988E+04  0.15610834988E+04  0.25500000000E-02 0. -1.
         -2   -1    0    0    0  501 -0.00000000000E+00 -0.00000000000E+00 -0.70413268654E+03  0.70413268655E+03  0.25500000000E-02 0.  1.
    8880023    1    1    2    0    0  0.44057918079E+03 -0.45420475721E+03 -0.27979831118E+03  0.95525351464E+03  0.65864270000E+03 0.  0.
    8880022    1    1    2    0    0 -0.44057918079E+03  0.45420475721E+03  0.11367491235E+04  0.13099626707E+04  0.15294330000E+03 0.  0.
<mgrwt>
<rscale>  0 0.83922079E+03</rscale>
<asrwt>0</asrwt>
<pdfrwt beam="1">  1        2 0.24016669E+00 0.91335764E+03</pdfrwt>
<pdfrwt beam="2">  1       -2 0.10832811E+00 0.91335764E+03</pdfrwt>
<totfact> 0.80342819E+00</totfact>
</mgrwt>
</event>
<event>
 4    2  0.7508440E-007  0.6967607E+03  0.7818608E-02  0.1001091E+00
         -2   -1    0    0    0  501 -0.00000000000E+00  0.00000000000E+00  0.18887030293E+04  0.18887030293E+04  0.25500000000E-02 0.  1.
          2   -1    0    0  501    0  0.00000000000E+00 -0.00000000000E+00 -0.96239525904E+03  0.96239525904E+03  0.25500000000E-02 0. -1.
    8880023    1    1    2    0    0 -0.18224726763E+03 -0.13583536000E+03  0.18028140217E+04  0.19327736326E+04  0.65864270000E+03 0.  1.
    8880022    1    1    2    0    0  0.18224726763E+03  0.13583536000E+03 -0.87650625144E+03  0.91832465578E+03  0.15294330000E+03 0.  0.
<mgrwt>
<rscale>  0 0.55174274E+03</rscale>
<asrwt>0</asrwt>
<pdfrwt beam="1">  1        2 0.14806081E+00 0.69676073E+03</pdfrwt>
<pdfrwt beam="2">  1       -2 0.29056969E+00 0.69676073E+03</pdfrwt>
<totfact> 0.10197475E+00</totfact>
</mgrwt>
</event>
<event>
 4    2  0.6914693E-007  0.6863865E+03  0.7818608E-02  0.1005920E+00
         -2   -1    0    0    0  501 -0.00000000000E+00  0.00000000000E+00  0.66283010450E+03  0.66283010450E+03  0.25500000000E-02 0.  1.
          2   -1    0    0  501    0  0.00000000000E+00 -0.00000000000E+00 -0.69750575141E+03  0.69750575142E+03  0.25500000000E-02 0. -1.
    8880023    1    1    2    0    0 -0.78358925735E+02  0.17656771291E+03  0.44713501135E+03  0.81918020186E+03  0.65864270000E+03 0.  1.
    8880022    1    1    2    0    0  0.78358925735E+02 -0.17656771291E+03 -0.48181065826E+03  0.54115565406E+03  0.15294330000E+03 0.  0.
<mgrwt>
<rscale>  0 0.53129074E+03</rscale>
<asrwt>0</asrwt>
<pdfrwt beam="1">  1        2 0.10730858E+00 0.68638654E+03</pdfrwt>
<pdfrwt beam="2">  1       -2 0.10197386E+00 0.68638654E+03</pdfrwt>
<totfact> 0.33064747E+01</totfact>
</mgrwt>
</event>
<event>
 4    2  0.6914693E-007  0.6883615E+03  0.7818608E-02  0.1004941E+00
         -2   -1    0    0    0  501 -0.00000000000E+00  0.00000000000E+00  0.18989069282E+03  0.18989069284E+03  0.25500000000E-02 0.  1.
          2   -1    0    0  501    0  0.00000000000E+00 -0.00000000000E+00 -0.15668965320E+04  0.15668965320E+04  0.25500000000E-02 0. -1.
    8880023    1    1    2    0    0 -0.12947648047E+03 -0.15253587750E+03 -0.51762214964E+03  0.86126317057E+03  0.65864270000E+03 0.  1.
    8880022    1    1    2    0    0  0.12947648047E+03  0.15253587750E+03 -0.85938368954E+03  0.89552405427E+03  0.15294330000E+03 0.  0.
<mgrwt>
<rscale>  0 0.53535675E+03</rscale>
<asrwt>0</asrwt>
<pdfrwt beam="1">  1        2 0.24106100E+00 0.68836150E+03</pdfrwt>
<pdfrwt beam="2">  1       -2 0.29213954E-01 0.68836150E+03</pdfrwt>
<totfact> 0.12831029E+02</totfact>
</mgrwt>
</event>
<event>
 4    2  0.6914693E-007  0.7702665E+03  0.7818608E-02  0.9779219E-01
         -2   -1    0    0    0  501 -0.00000000000E+00  0.00000000000E+00  0.50871029952E+03  0.50871029953E+03  0.25500000000E-02 0.  1.
          2   -1    0    0  501    0  0.00000000000E+00 -0.00000000000E+00 -0.88918279901E+03  0.88918279902E+03  0.25500000000E-02 0. -1.
    8880023    1    1    2    0    0 -0.10018384229E+03  0.38660510045E+03  0.74037724918E+02  0.77381657835E+03  0.65864270000E+03 0.  0.
    8880022    1    1    2    0    0  0.10018384229E+03 -0.38660510045E+03 -0.45451022441E+03  0.62407652020E+03  0.15294330000E+03 0.  0.
<mgrwt>
<rscale>  0 0.66489810E+03</rscale>
<asrwt>0</asrwt>
<pdfrwt beam="1">  1        2 0.13679735E+00 0.77026652E+03</pdfrwt>
<pdfrwt beam="2">  1       -2 0.78263123E-01 0.77026652E+03</pdfrwt>
<totfact> 0.43863031E+01</totfact>
</mgrwt>
</event>
<event>
 4    2  0.7860112E-007  0.7541889E+03  0.7818608E-02  0.9820391E-01
         -2   -1    0    0    0  501 -0.00000000000E+00  0.00000000000E+00  0.54371595235E+03  0.54371595236E+03  0.25500000000E-02 0.  1.
          2   -1    0    0  501    0  0.00000000000E+00 -0.00000000000E+00 -0.21466448918E+04  0.21466448918E+04  0.25500000000E-02 0. -1.
    8880023    1    1    2    0    0  0.35476113990E+03 -0.95578070401E+02  0.25048811867E+03  0.79469814256E+03  0.65864270000E+03 0.  1.
    8880022    1    1    2    0    0 -0.35476113990E+03  0.95578070401E+02 -0.18534170581E+04  0.18956627016E+04  0.15294330000E+03 0.  0.
<mgrwt>
<rscale>  0 0.64279636E+03</rscale>
<asrwt>0</asrwt>
<pdfrwt beam="1">  1        2 0.33025306E+00 0.75418886E+03</pdfrwt>
<pdfrwt beam="2">  1       -2 0.83648609E-01 0.75418886E+03</pdfrwt>
<totfact> 0.71821907E+00</totfact>
</mgrwt>
</event>
<event>
 4    2  0.6914693E-007  0.7935478E+03  0.7818608E-02  0.9724925E-01
          2   -1    0    0  501    0  0.00000000000E+00  0.00000000000E+00  0.27663494505E+04  0.27663494505E+04  0.25500000000E-02 0. -1.
         -2   -1    0    0    0  501 -0.00000000000E+00 -0.00000000000E+00 -0.21970333349E+03  0.21970333350E+03  0.25500000000E-02 0.  1.
    8880023    1    1    2    0    0  0.32571060755E+03  0.29970065193E+03  0.23460125617E+04  0.24765889902E+04  0.65864270000E+03 0.  0.
    8880022    1    1    2    0    0 -0.32571060755E+03 -0.29970065193E+03  0.20063355535E+03  0.50946379379E+03  0.15294330000E+03 0.  0.
<mgrwt>
<rscale>  0 0.69551985E+03</rscale>
<asrwt>0</asrwt>
<pdfrwt beam="1">  1        2 0.42559225E+00 0.79354778E+03</pdfrwt>
<pdfrwt beam="2">  1       -2 0.33800511E-01 0.79354778E+03</pdfrwt>
<totfact> 0.20740717E+01</totfact>
</mgrwt>
</event>
<event>
 4    2  0.6914693E-007  0.6679337E+03  0.7818608E-02  0.1017190E+00
         -2   -1    0    0    0  501 -0.00000000000E+00  0.00000000000E+00  0.67900013938E+03  0.67900013939E+03  0.25500000000E-02 0.  1.
          2   -1    0    0  501    0  0.00000000000E+00 -0.00000000000E+00 -0.64062733020E+03  0.64062733021E+03  0.25500000000E-02 0. -1.
    8880023    1    1    2    0    0  0.65493923809E+02  0.89642420888E+02  0.49109526338E+03  0.82904160430E+03  0.65864270000E+03 0.  1.
    8880022    1    1    2    0    0 -0.65493923809E+02 -0.89642420888E+02 -0.45272245420E+03  0.49058586530E+03  0.15294330000E+03 0.  0.
<mgrwt>
<rscale>  0 0.48714606E+03</rscale>
<asrwt>0</asrwt>
<pdfrwt beam="1">  1        2 0.98558052E-01 0.66793370E+03</pdfrwt>
<pdfrwt beam="2">  1       -2 0.10446156E+00 0.66793370E+03</pdfrwt>
<totfact> 0.34748048E+01</totfact>
</mgrwt>
</event>
<event>
 4    2  0.6914693E-007  0.7704876E+03  0.7818608E-02  0.9778676E-01
          2   -1    0    0  501    0  0.00000000000E+00  0.00000000000E+00  0.91893433299E+03  0.91893433300E+03  0.25500000000E-02 0. -1.
         -2   -1    0    0    0  501 -0.00000000000E+00 -0.00000000000E+00 -0.59024969626E+03  0.59024969626E+03  0.25500000000E-02 0.  1.
    8880023    1    1    2    0    0 -0.13212792310E+03 -0.37733682551E+03 -0.23118533600E+03  0.80442385208E+03  0.65864270000E+03 0.  1.
    8880022    1    1    2    0    0  0.13212792310E+03  0.37733682551E+03  0.55986997273E+03  0.70476017718E+03  0.15294330000E+03 0.  0.
<mgrwt>
<rscale>  0 0.66519587E+03</rscale>
<asrwt>0</asrwt>
<pdfrwt beam="1">  1        2 0.14137451E+00 0.77048756E+03</pdfrwt>
<pdfrwt beam="2">  1       -2 0.90807646E-01 0.77048756E+03</pdfrwt>
<totfact> 0.29868372E+01</totfact>
</mgrwt>
</event>
<event>
 4    2  0.6914693E-007  0.1256517E+04  0.7818608E-02  0.9104050E-01
          2   -1    0    0  501    0  0.00000000000E+00  0.00000000000E+00  0.20988757308E+04  0.20988757308E+04  0.25500000000E-02 0. -1.
         -2   -1    0    0    0  501 -0.00000000000E+00 -0.00000000000E+00 -0.11805429651E+04  0.11805429651E+04  0.25500000000E-02 0.  1.
    8880023    1    1    2    0    0  0.53419845134E+02 -0.10687240666E+04 -0.61852004678E+03  0.14005006480E+04  0.65864270000E+03 0.  0.
    8880022    1    1    2    0    0 -0.53419845134E+02  0.10687240666E+04  0.15368528126E+04  0.18789180479E+04  0.15294330000E+03 0.  1.
<mgrwt>
<rscale>  0 0.12101132E+04</rscale>
<asrwt>0</asrwt>
<pdfrwt beam="1">  1        2 0.32290396E+00 0.12565170E+04</pdfrwt>
<pdfrwt beam="2">  1       -2 0.18162200E+00 0.12565170E+04</pdfrwt>
<totfact> 0.10041088E+00</totfact>
</mgrwt>
</event>
<event>
 4    2  0.8753269E-007  0.1023339E+04  0.7818608E-02  0.9351640E-01
         -2   -1    0    0    0  501 -0.00000000000E+00  0.00000000000E+00  0.10137866424E+04  0.10137866424E+04  0.25500000000E-02 0.  1.
          2   -1    0    0  501    0  0.00000000000E+00 -0.00000000000E+00 -0.24991498493E+04  0.24991498493E+04  0.25500000000E-02 0. -1.
    8880023    1    1    2    0    0 -0.73995965848E+03 -0.25665654260E+03  0.66422353727E+03  0.12200065536E+04  0.65864270000E+03 0.  0.
    8880022    1    1    2    0    0  0.73995965848E+03  0.25665654260E+03 -0.21495867442E+04  0.22929299381E+04  0.15294330000E+03 0.  0.
<mgrwt>
<rscale>  0 0.96164653E+03</rscale>
<asrwt>0</asrwt>
<pdfrwt beam="1">  1        2 0.38448459E+00 0.10233392E+04</pdfrwt>
<pdfrwt beam="2">  1       -2 0.15596718E+00 0.10233392E+04</pdfrwt>
<totfact> 0.94270115E-01</totfact>
</mgrwt>
</event>
<event>
 4    2  0.6914693E-007  0.9060372E+03  0.7818608E-02  0.9516409E-01
          2   -1    0    0  501    0  0.00000000000E+00  0.00000000000E+00  0.29391909097E+04  0.29391909097E+04  0.25500000000E-02 0. -1.
         -2   -1    0    0    0  501 -0.00000000000E+00 -0.00000000000E+00 -0.22172744146E+03  0.22172744148E+03  0.25500000000E-02 0.  1.
    8880023    1    1    2    0    0 -0.61997164688E+03  0.52232981912E+02  0.11255305399E+04  0.14448952660E+04  0.65864270000E+03 0.  0.
    8880022    1    1    2    0    0  0.61997164688E+03 -0.52232981912E+02  0.15919329283E+04  0.17160230851E+04  0.15294330000E+03 0.  0.
<mgrwt>
<rscale>  0 0.83084812E+03</rscale>
<asrwt>0</asrwt>
<pdfrwt beam="1">  1        2 0.45218321E+00 0.90603716E+03</pdfrwt>
<pdfrwt beam="2">  1       -2 0.34111914E-01 0.90603716E+03</pdfrwt>
<totfact> 0.15805611E+01</totfact>
</mgrwt>
</event>
<event>
 4    2  0.6914693E-007  0.9397313E+03  0.7818608E-02  0.9465045E-01
          2   -1    0    0  501    0  0.00000000000E+00  0.00000000000E+00  0.65835855385E+03  0.65835855385E+03  0.25500000000E-02 0. -1.
         -2   -1    0    0    0  501 -0.00000000000E+00 -0.00000000000E+00 -0.12961350918E+04  0.12961350918E+04  0.25500000000E-02 0.  1.
    8880023    1    1    2    0    0  0.42223907863E+03  0.52057544059E+03  0.10118958272E+03  0.94516356616E+03  0.65864270000E+03 0. -1.
    8880022    1    1    2    0    0 -0.42223907863E+03 -0.52057544059E+03 -0.73896612069E+03  0.10093300795E+04  0.15294330000E+03 0.  0.
<mgrwt>
<rscale>  0 0.86910697E+03</rscale>
<asrwt>0</asrwt>
<pdfrwt beam="1">  1        2 0.10128593E+00 0.93973126E+03</pdfrwt>
<pdfrwt beam="2">  1       -2 0.19940540E+00 0.93973126E+03</pdfrwt>
<totfact> 0.59361588E+00</totfact>
</mgrwt>
</event>
<event>
 4    2  0.6914693E-007  0.6909604E+03  0.7818608E-02  0.1003699E+00
         -2   -1    0    0    0  501 -0.00000000000E+00  0.00000000000E+00  0.20078061465E+04  0.20078061465E+04  0.25500000000E-02 0.  1.
          2   -1    0    0  501    0  0.00000000000E+00 -0.00000000000E+00 -0.32510429954E+03  0.32510429955E+03  0.25500000000E-02 0. -1.
    8880023    1    1    2    0    0  0.20121964902E+03  0.55916646331E+02  0.18828950889E+04  0.20056719923E+04  0.65864270000E+03 0.  1.
    8880022    1    1    2    0    0 -0.20121964902E+03 -0.55916646331E+02 -0.20019324195E+03  0.32723845377E+03  0.15294330000E+03 0.  0.
<mgrwt>
<rscale>  0 0.54057433E+03</rscale>
<asrwt>0</asrwt>
<pdfrwt beam="1">  1        2 0.50016048E-01 0.69096036E+03</pdfrwt>
<pdfrwt beam="2">  1       -2 0.30889324E+00 0.69096036E+03</pdfrwt>
<totfact> 0.29580408E+00</totfact>
</mgrwt>
</event>
<event>
 4    2  0.6914693E-007  0.8973493E+03  0.7818608E-02  0.9530300E-01
          2   -1    0    0  501    0  0.00000000000E+00  0.00000000000E+00  0.26416659191E+04  0.26416659191E+04  0.25500000000E-02 0. -1.
         -2   -1    0    0    0  501 -0.00000000000E+00 -0.00000000000E+00 -0.56075523551E+03  0.56075523551E+03  0.25500000000E-02 0.  1.
    8880023    1    1    2    0    0 -0.48631062640E+03  0.36732484842E+03 -0.12749857707E+03  0.90636177271E+03  0.65864270000E+03 0.  1.
    8880022    1    1    2    0    0  0.48631062640E+03 -0.36732484842E+03  0.22084092607E+04  0.22960593819E+04  0.15294330000E+03 0.  0.
<mgrwt>
<rscale>  0 0.82086296E+03</rscale>
<asrwt>0</asrwt>
<pdfrwt beam="1">  1        2 0.40641015E+00 0.89734931E+03</pdfrwt>
<pdfrwt beam="2">  1       -2 0.86270035E-01 0.89734931E+03</pdfrwt>
<totfact> 0.34439833E+00</totfact>
</mgrwt>
</event>
<event>
 4    2  0.6914693E-007  0.7319961E+03  0.7818608E-02  0.9883907E-01
         -2   -1    0    0    0  501 -0.00000000000E+00  0.00000000000E+00  0.12811250663E+03  0.12811250666E+03  0.25500000000E-02 0.  1.
          2   -1    0    0  501    0  0.00000000000E+00 -0.00000000000E+00 -0.27706776934E+04  0.27706776934E+04  0.25500000000E-02 0. -1.
    8880023    1    1    2    0    0 -0.68917651004E+02 -0.31186283472E+03 -0.11378488206E+04  0.13529664501E+04  0.65864270000E+03 0.  1.
    8880022    1    1    2    0    0  0.68917651004E+02  0.31186283472E+03 -0.15047163662E+04  0.15458237500E+04  0.15294330000E+03 0.  0.
<mgrwt>
<rscale>  0 0.61047607E+03</rscale>
<asrwt>0</asrwt>
<pdfrwt beam="1">  1        2 0.42625806E+00 0.73199609E+03</pdfrwt>
<pdfrwt beam="2">  1       -2 0.19709618E-01 0.73199609E+03</pdfrwt>
<totfact> 0.55399669E+01</totfact>
</mgrwt>
</event>
<event>
 4    2  0.6914693E-007  0.7337259E+03  0.7818608E-02  0.9878615E-01
          2   -1    0    0  501    0  0.00000000000E+00  0.00000000000E+00  0.32163949474E+04  0.32163949474E+04  0.25500000000E-02 0. -1.
         -2   -1    0    0    0  501 -0.00000000000E+00 -0.00000000000E+00 -0.25362105464E+03  0.25362105465E+03  0.25500000000E-02 0.  1.
    8880023    1    1    2    0    0 -0.32240555789E+03 -0.24456880638E+02  0.31549126897E+03  0.79867917828E+03  0.65864270000E+03 0.  1.
    8880022    1    1    2    0    0  0.32240555789E+03  0.24456880638E+02  0.26472826238E+04  0.26713368238E+04  0.15294330000E+03 0.  0.
<mgrwt>
<rscale>  0 0.61308983E+03</rscale>
<asrwt>0</asrwt>
<pdfrwt beam="1">  1        2 0.49483000E+00 0.73372590E+03</pdfrwt>
<pdfrwt beam="2">  1       -2 0.39018623E-01 0.73372590E+03</pdfrwt>
<totfact> 0.84384303E+00</totfact>
</mgrwt>
</event>
<event>
 4    2  0.6914693E-007  0.7865779E+03  0.7818608E-02  0.9740606E-01
         -2   -1    0    0    0  501 -0.00000000000E+00  0.00000000000E+00  0.43811047202E+03  0.43811047203E+03  0.25500000000E-02 0.  1.
          2   -1    0    0  501    0  0.00000000000E+00 -0.00000000000E+00 -0.17225118134E+04  0.17225118134E+04  0.25500000000E-02 0. -1.
    8880023    1    1    2    0    0 -0.40908793382E+03 -0.13244504360E+03  0.11545717135E+02  0.78666265770E+03  0.65864270000E+03 0.  1.
    8880022    1    1    2    0    0  0.40908793382E+03  0.13244504360E+03 -0.12959470585E+04  0.13739596278E+04  0.15294330000E+03 0.  0.
<mgrwt>
<rscale>  0 0.68649740E+03</rscale>
<asrwt>0</asrwt>
<pdfrwt beam="1">  1        2 0.26500181E+00 0.78657793E+03</pdfrwt>
<pdfrwt beam="2">  1       -2 0.67401612E-01 0.78657793E+03</pdfrwt>
<totfact> 0.19684221E+01</totfact>
</mgrwt>
</event>
<event>
 4    2  0.6914693E-007  0.8666179E+03  0.7818608E-02  0.9581898E-01
         -2   -1    0    0    0  501 -0.00000000000E+00  0.00000000000E+00  0.45762048335E+03  0.45762048335E+03  0.25500000000E-02 0.  1.
          2   -1    0    0  501    0  0.00000000000E+00 -0.00000000000E+00 -0.23554189570E+04  0.23554189570E+04  0.25500000000E-02 0. -1.
    8880023    1    1    2    0    0 -0.80486886151E+02 -0.55743895745E+03 -0.41999323980E+02  0.86763499215E+03  0.65864270000E+03 0.  0.
    8880022    1    1    2    0    0  0.80486886151E+02  0.55743895745E+03 -0.18557991496E+04  0.19454044482E+04  0.15294330000E+03 0.  0.
<mgrwt>
<rscale>  0 0.78505952E+03</rscale>
<asrwt>0</asrwt>
<pdfrwt beam="1">  1        2 0.36237214E+00 0.86661787E+03</pdfrwt>
<pdfrwt beam="2">  1       -2 0.70403152E-01 0.86661787E+03</pdfrwt>
<totfact> 0.79428872E+00</totfact>
</mgrwt>
</event>
<event>
 4    2  0.6914693E-007  0.6642435E+03  0.7818608E-02  0.1020177E+00
         -2   -1    0    0    0  501 -0.00000000000E+00  0.00000000000E+00  0.33643221537E+03  0.33643221538E+03  0.25500000000E-02 0.  1.
          2   -1    0    0  501    0  0.00000000000E+00 -0.00000000000E+00 -0.85166486814E+03  0.85166486815E+03  0.25500000000E-02 0. -1.
    8880023    1    1    2    0    0 -0.43141008872E+01 -0.85968929176E+02 -0.22040241268E+02  0.66460909319E+03  0.65864270000E+03 0.  1.
    8880022    1    1    2    0    0  0.43141008872E+01  0.85968929176E+02 -0.49319241150E+03  0.52348799034E+03  0.15294330000E+03 0.  0.
<mgrwt>
<rscale>  0 0.47622914E+03</rscale>
<asrwt>0</asrwt>
<pdfrwt beam="1">  1        2 0.13102536E+00 0.66424354E+03</pdfrwt>
<pdfrwt beam="2">  1       -2 0.51758803E-01 0.66424354E+03</pdfrwt>
<totfact> 0.11362432E+02</totfact>
</mgrwt>
</event>
<event>
 4    2  0.6914693E-007  0.7171424E+03  0.7818608E-02  0.9932377E-01
          2   -1    0    0  501    0  0.00000000000E+00  0.00000000000E+00  0.63319976315E+03  0.63319976315E+03  0.25500000000E-02 0. -1.
         -2   -1    0    0    0  501 -0.00000000000E+00 -0.00000000000E+00 -0.10336257438E+04  0.10336257438E+04  0.25500000000E-02 0.  1.
    8880023    1    1    2    0    0  0.60575667605E+02  0.27715255645E+03 -0.85098165382E+03  0.11128624949E+04  0.65864270000E+03 0.  0.
    8880022    1    1    2    0    0 -0.60575667605E+02 -0.27715255645E+03  0.45055567321E+03  0.55396301206E+03  0.15294330000E+03 0.  0.
<mgrwt>
<rscale>  0 0.58717520E+03</rscale>
<asrwt>0</asrwt>
<pdfrwt beam="1">  1        2 0.97415348E-01 0.71714235E+03</pdfrwt>
<pdfrwt beam="2">  1       -2 0.15901935E+00 0.71714235E+03</pdfrwt>
<totfact> 0.12120546E+01</totfact>
</mgrwt>
</event>
<event>
 4    2  0.6914693E-007  0.7264137E+03  0.7818608E-02  0.9901453E-01
          2   -1    0    0  501    0  0.00000000000E+00  0.00000000000E+00  0.49965940328E+03  0.49965940329E+03  0.25500000000E-02 0. -1.
         -2   -1    0    0    0  501 -0.00000000000E+00 -0.00000000000E+00 -0.65120558467E+03  0.65120558468E+03  0.25500000000E-02 0.  1.
    8880023    1    1    2    0    0  0.26975892088E+03  0.14524722670E+03  0.89781522843E+02  0.73194095415E+03  0.65864270000E+03 0. -1.
    8880022    1    1    2    0    0 -0.26975892088E+03 -0.14524722670E+03 -0.24132770423E+03  0.41892403381E+03  0.15294330000E+03 0.  0.
<mgrwt>
<rscale>  0 0.60190916E+03</rscale>
<asrwt>0</asrwt>
<pdfrwt beam="1">  1        2 0.76870677E-01 0.72641368E+03</pdfrwt>
<pdfrwt beam="2">  1       -2 0.10018547E+00 0.72641368E+03</pdfrwt>
<totfact> 0.51356640E+01</totfact>
</mgrwt>
</event>
<event>
 4    2  0.6914693E-007  0.6869011E+03  0.7818608E-02  0.1005662E+00
         -2   -1    0    0    0  501 -0.00000000000E+00  0.00000000000E+00  0.24709579999E+03  0.24709580000E+03  0.25500000000E-02 0.  1.
          2   -1    0    0  501    0  0.00000000000E+00 -0.00000000000E+00 -0.92378329347E+03  0.92378329347E+03  0.25500000000E-02 0. -1.
    8880023    1    1    2    0    0  0.72339910104E+02  0.18107959779E+03 -0.38248576660E+03  0.78621145454E+03  0.65864270000E+03 0.  0.
    8880022    1    1    2    0    0 -0.72339910104E+02 -0.18107959779E+03 -0.29420172689E+03  0.38466763894E+03  0.15294330000E+03 0.  1.
<mgrwt>
<rscale>  0 0.53235893E+03</rscale>
<asrwt>0</asrwt>
<pdfrwt beam="1">  1        2 0.14212051E+00 0.68690108E+03</pdfrwt>
<pdfrwt beam="2">  1       -2 0.38014739E-01 0.68690108E+03</pdfrwt>
<totfact> 0.18718474E+02</totfact>
</mgrwt>
</event>
<event>
 4    2  0.6914693E-007  0.6638911E+03  0.7818608E-02  0.1020482E+00
          2   -1    0    0  501    0  0.00000000000E+00  0.00000000000E+00  0.20682617071E+04  0.20682617071E+04  0.25500000000E-02 0. -1.
         -2   -1    0    0    0  501 -0.00000000000E+00 -0.00000000000E+00 -0.14126902874E+03  0.14126902876E+03  0.25500000000E-02 0.  1.
    8880023    1    1    2    0    0 -0.39860361587E+02 -0.73159588619E+02  0.67966670773E+03  0.95010431727E+03  0.65864270000E+03 0.  1.
    8880022    1    1    2    0    0  0.39860361587E+02  0.73159588619E+02  0.12473259707E+04  0.12594264186E+04  0.15294330000E+03 0.  0.
<mgrwt>
<rscale>  0 0.47512922E+03</rscale>
<asrwt>0</asrwt>
<pdfrwt beam="1">  1        2 0.31819410E+00 0.66389109E+03</pdfrwt>
<pdfrwt beam="2">  1       -2 0.21733697E-01 0.66389109E+03</pdfrwt>
<totfact> 0.11693950E+02</totfact>
</mgrwt>
</event>
<event>
 4    2  0.6914693E-007  0.7879371E+03  0.7818608E-02  0.9737512E-01
          2   -1    0    0  501    0  0.00000000000E+00  0.00000000000E+00  0.10515996406E+04  0.10515996406E+04  0.25500000000E-02 0. -1.
         -2   -1    0    0    0  501 -0.00000000000E+00 -0.00000000000E+00 -0.18244457929E+04  0.18244457929E+04  0.25500000000E-02 0.  1.
    8880023    1    1    2    0    0  0.12638745254E+03 -0.41359511345E+03 -0.16821727194E+04  0.18575656032E+04  0.65864270000E+03 0.  1.
    8880022    1    1    2    0    0 -0.12638745254E+03  0.41359511345E+03  0.90932656707E+03  0.10184798303E+04  0.15294330000E+03 0.  0.
<mgrwt>
<rscale>  0 0.68826580E+03</rscale>
<asrwt>0</asrwt>
<pdfrwt beam="1">  1        2 0.16178456E+00 0.78793712E+03</pdfrwt>
<pdfrwt beam="2">  1       -2 0.28068397E+00 0.78793712E+03</pdfrwt>
<totfact> 0.10081449E+00</totfact>
</mgrwt>
</event>
<event>
 4    2  0.6914693E-007  0.6862331E+03  0.7818608E-02  0.1005997E+00
         -2   -1    0    0    0  501 -0.00000000000E+00  0.00000000000E+00  0.19147647818E+03  0.19147647820E+03  0.25500000000E-02 0.  1.
          2   -1    0    0  501    0  0.00000000000E+00 -0.00000000000E+00 -0.11411510970E+04  0.11411510970E+04  0.25500000000E-02 0. -1.
    8880023    1    1    2    0    0 -0.73338160702E+02 -0.17812130300E+03 -0.74238713791E+03  0.10109671375E+04  0.65864270000E+03 0.  0.
    8880022    1    1    2    0    0  0.73338160702E+02  0.17812130300E+03 -0.20728748092E+03  0.32166043767E+03  0.15294330000E+03 0. -1.
<mgrwt>
<rscale>  0 0.53097098E+03</rscale>
<asrwt>0</asrwt>
<pdfrwt beam="1">  1        2 0.17556170E+00 0.68623312E+03</pdfrwt>
<pdfrwt beam="2">  1       -2 0.29457921E-01 0.68623312E+03</pdfrwt>
<totfact> 0.22118579E+02</totfact>
</mgrwt>
</event>
<event>
 4    2  0.6914693E-007  0.9576080E+03  0.7818608E-02  0.9439251E-01
          2   -1    0    0  501    0  0.00000000000E+00  0.00000000000E+00  0.17127657976E+04  0.17127657976E+04  0.25500000000E-02 0. -1.
         -2   -1    0    0    0  501 -0.00000000000E+00 -0.00000000000E+00 -0.55252929333E+03  0.55252929334E+03  0.25500000000E-02 0.  1.
    8880023    1    1    2    0    0 -0.24470343939E+03 -0.65063289814E+03  0.65919830156E+02  0.95987424783E+03  0.65864270000E+03 0.  0.
    8880022    1    1    2    0    0  0.24470343939E+03  0.65063289814E+03  0.10943166741E+04  0.13054208431E+04  0.15294330000E+03 0.  0.
<mgrwt>
<rscale>  0 0.88914667E+03</rscale>
<asrwt>0</asrwt>
<pdfrwt beam="1">  1        2 0.26350243E+00 0.95760803E+03</pdfrwt>
<pdfrwt beam="2">  1       -2 0.85004507E-01 0.95760803E+03</pdfrwt>
<totfact> 0.11657375E+01</totfact>
</mgrwt>
</event>
<event>
 4    2  0.6914693E-007  0.7574074E+03  0.7818608E-02  0.9811866E-01
          2   -1    0    0  501    0  0.00000000000E+00  0.00000000000E+00  0.27324959677E+04  0.27324959677E+04  0.25500000000E-02 0. -1.
         -2   -1    0    0    0  501 -0.00000000000E+00 -0.00000000000E+00 -0.15617325273E+03  0.15617325275E+03  0.25500000000E-02 0.  1.
    8880023    1    1    2    0    0  0.35238721966E+03 -0.12521614349E+03  0.96107471067E+03  0.12236546249E+04  0.65864270000E+03 0.  1.
    8880022    1    1    2    0    0 -0.35238721966E+03  0.12521614349E+03  0.16152480043E+04  0.16650145956E+04  0.15294330000E+03 0.  0.
<mgrwt>
<rscale>  0 0.64729610E+03</rscale>
<asrwt>0</asrwt>
<pdfrwt beam="1">  1        2 0.42038399E+00 0.75740745E+03</pdfrwt>
<pdfrwt beam="2">  1       -2 0.24026654E-01 0.75740745E+03</pdfrwt>
<totfact> 0.40938261E+01</totfact>
</mgrwt>
</event>
<event>
 4    2  0.6914693E-007  0.6922526E+03  0.7818608E-02  0.1003100E+00
          2   -1    0    0  501    0  0.00000000000E+00  0.00000000000E+00  0.77415886063E+03  0.77415886064E+03  0.25500000000E-02 0. -1.
         -2   -1    0    0    0  501 -0.00000000000E+00 -0.00000000000E+00 -0.67884679943E+03  0.67884679944E+03  0.25500000000E-02 0.  1.
    8880023    1    1    2    0    0 -0.18993636000E+03 -0.96579469394E+02 -0.46528181207E+03  0.83408679744E+03  0.65864270000E+03 0.  0.
    8880022    1    1    2    0    0  0.18993636000E+03  0.96579469394E+02  0.56059387327E+03  0.61891886263E+03  0.15294330000E+03 0.  0.
<mgrwt>
<rscale>  0 0.54311662E+03</rscale>
<asrwt>0</asrwt>
<pdfrwt beam="1">  1        2 0.11910136E+00 0.69225257E+03</pdfrwt>
<pdfrwt beam="2">  1       -2 0.10443797E+00 0.69225257E+03</pdfrwt>
<totfact> 0.27313301E+01</totfact>
</mgrwt>
</event>
<event>
 4    2  0.6914693E-007  0.8550144E+03  0.7818608E-02  0.9602494E-01
         -2   -1    0    0    0  501 -0.00000000000E+00  0.00000000000E+00  0.53785126260E+03  0.53785126261E+03  0.25500000000E-02 0.  1.
          2   -1    0    0  501    0  0.00000000000E+00 -0.00000000000E+00 -0.22660496821E+04  0.22660496821E+04  0.25500000000E-02 0. -1.
    8880023    1    1    2    0    0 -0.11306787305E+03  0.53334334225E+03  0.12683436509E+03  0.86437065375E+03  0.65864270000E+03 0.  1.
    8880022    1    1    2    0    0  0.11306787305E+03 -0.53334334225E+03 -0.18550327846E+04  0.19395302909E+04  0.15294330000E+03 0.  0.
<mgrwt>
<rscale>  0 0.77131325E+03</rscale>
<asrwt>0</asrwt>
<pdfrwt beam="1">  1        2 0.34862302E+00 0.85501443E+03</pdfrwt>
<pdfrwt beam="2">  1       -2 0.82746349E-01 0.85501443E+03</pdfrwt>
<totfact> 0.62257869E+00</totfact>
</mgrwt>
</event>
<event>
 4    2  0.6914693E-007  0.7186896E+03  0.7818608E-02  0.9927045E-01
         -2   -1    0    0    0  501 -0.00000000000E+00  0.00000000000E+00  0.67386861776E+03  0.67386861777E+03  0.25500000000E-02 0.  1.
          2   -1    0    0  501    0  0.00000000000E+00 -0.00000000000E+00 -0.14361845352E+04  0.14361845352E+04  0.25500000000E-02 0. -1.
    8880023    1    1    2    0    0 -0.18219357498E+03  0.22250837778E+03  0.45453439444E+03  0.85036239271E+03  0.65864270000E+03 0.  1.
    8880022    1    1    2    0    0  0.18219357498E+03 -0.22250837778E+03 -0.12168503119E+04  0.12596907603E+04  0.15294330000E+03 0.  0.
<mgrwt>
<rscale>  0 0.58968278E+03</rscale>
<asrwt>0</asrwt>
<pdfrwt beam="1">  1        2 0.22095147E+00 0.71868956E+03</pdfrwt>
<pdfrwt beam="2">  1       -2 0.10367210E+00 0.71868956E+03</pdfrwt>
<totfact> 0.10747656E+01</totfact>
</mgrwt>
</event>
<event>
 4    2  0.6914693E-007  0.8298665E+03  0.7818608E-02  0.9649592E-01
          2   -1    0    0  501    0  0.00000000000E+00  0.00000000000E+00  0.16722370700E+04  0.16722370700E+04  0.25500000000E-02 0. -1.
         -2   -1    0    0    0  501 -0.00000000000E+00 -0.00000000000E+00 -0.43028551608E+03  0.43028551609E+03  0.25500000000E-02 0.  1.
    8880023    1    1    2    0    0  0.18099848867E+03 -0.47128303248E+03  0.88996809765E+02  0.83462493853E+03  0.65864270000E+03 0.  1.
    8880022    1    1    2    0    0 -0.18099848867E+03  0.47128303248E+03  0.11529547442E+04  0.12678976476E+04  0.15294330000E+03 0.  0.
<mgrwt>
<rscale>  0 0.74099021E+03</rscale>
<asrwt>0</asrwt>
<pdfrwt beam="1">  1        2 0.25726724E+00 0.82986647E+03</pdfrwt>
<pdfrwt beam="2">  1       -2 0.66197771E-01 0.82986647E+03</pdfrwt>
<totfact> 0.21697399E+01</totfact>
</mgrwt>
</event>
<event>
 4    2  0.6914693E-007  0.8893553E+03  0.7818608E-02  0.9543340E-01
         -2   -1    0    0    0  501 -0.00000000000E+00  0.00000000000E+00  0.62992348527E+03  0.62992348528E+03  0.25500000000E-02 0.  1.
          2   -1    0    0  501    0  0.00000000000E+00 -0.00000000000E+00 -0.18325235904E+04  0.18325235904E+04  0.25500000000E-02 0. -1.
    8880023    1    1    2    0    0  0.59507828967E+03  0.54995158540E+02  0.21627544829E+03  0.91527477519E+03  0.65864270000E+03 0.  1.
    8880022    1    1    2    0    0 -0.59507828967E+03 -0.54995158540E+02 -0.14188755534E+04  0.15471723005E+04  0.15294330000E+03 0.  0.
<mgrwt>
<rscale>  0 0.81162553E+03</rscale>
<asrwt>0</asrwt>
<pdfrwt beam="1">  1        2 0.28192670E+00 0.88935530E+03</pdfrwt>
<pdfrwt beam="2">  1       -2 0.96911306E-01 0.88935530E+03</pdfrwt>
<totfact> 0.74507667E+00</totfact>
</mgrwt>
</event>
<event>
 4    2  0.6914693E-007  0.7795920E+03  0.7818608E-02  0.9756796E-01
          2   -1    0    0  501    0  0.00000000000E+00  0.00000000000E+00  0.27679873059E+04  0.27679873059E+04  0.25500000000E-02 0. -1.
         -2   -1    0    0    0  501 -0.00000000000E+00 -0.00000000000E+00 -0.22198706638E+03  0.22198706639E+03  0.25500000000E-02 0.  1.
    8880023    1    1    2    0    0 -0.33885330901E+03 -0.24317057309E+03  0.57283795035E+03  0.96742287355E+03  0.65864270000E+03 0.  1.
    8880022    1    1    2    0    0  0.33885330901E+03  0.24317057309E+03  0.19731622892E+04  0.20225514988E+04  0.15294330000E+03 0.  0.
<mgrwt>
<rscale>  0 0.67733550E+03</rscale>
<asrwt>0</asrwt>
<pdfrwt beam="1">  1        2 0.42584418E+00 0.77959201E+03</pdfrwt>
<pdfrwt beam="2">  1       -2 0.34151858E-01 0.77959201E+03</pdfrwt>
<totfact> 0.20335654E+01</totfact>
</mgrwt>
</event>
<event>
 4    2  0.6914693E-007  0.9384216E+03  0.7818608E-02  0.9466972E-01
         -2   -1    0    0    0  501 -0.00000000000E+00  0.00000000000E+00  0.23805804287E+04  0.23805804287E+04  0.25500000000E-02 0.  1.
          2   -1    0    0  501    0  0.00000000000E+00 -0.00000000000E+00 -0.86352161376E+03  0.86352161376E+03  0.25500000000E-02 0. -1.
    8880023    1    1    2    0    0 -0.31724789318E+03 -0.58836941990E+03  0.21279800270E+04  0.23257115044E+04  0.65864270000E+03 0.  0.
    8880022    1    1    2    0    0  0.31724789318E+03  0.58836941990E+03 -0.61092121209E+03  0.91839053806E+03  0.15294330000E+03 0.  0.
<mgrwt>
<rscale>  0 0.86763229E+03</rscale>
<asrwt>0</asrwt>
<pdfrwt beam="1">  1        2 0.13284948E+00 0.93842155E+03</pdfrwt>
<pdfrwt beam="2">  1       -2 0.36624314E+00 0.93842155E+03</pdfrwt>
<totfact> 0.39027721E-01</totfact>
</mgrwt>
</event>
<event>
 4    2  0.6914693E-007  0.7697393E+03  0.7818608E-02  0.9780516E-01
          2   -1    0    0  501    0  0.00000000000E+00  0.00000000000E+00  0.65444071299E+03  0.65444071299E+03  0.25500000000E-02 0. -1.
         -2   -1    0    0    0  501 -0.00000000000E+00 -0.00000000000E+00 -0.10780588273E+04  0.10780588273E+04  0.25500000000E-02 0.  1.
    8880023    1    1    2    0    0  0.39671003387E+03  0.36187808940E+02 -0.83787959577E+03  0.11377789028E+04  0.65864270000E+03 0.  1.
    8880022    1    1    2    0    0 -0.39671003387E+03 -0.36187808940E+02  0.41426148150E+03  0.59472063741E+03  0.15294330000E+03 0.  0.
<mgrwt>
<rscale>  0 0.66418728E+03</rscale>
<asrwt>0</asrwt>
<pdfrwt beam="1">  1        2 0.10068319E+00 0.76973932E+03</pdfrwt>
<pdfrwt beam="2">  1       -2 0.16585520E+00 0.76973932E+03</pdfrwt>
<totfact> 0.10319200E+01</totfact>
</mgrwt>
</event>
<event>
 4    2  0.6914693E-007  0.7067608E+03  0.7818608E-02  0.9970232E-01
          2   -1    0    0  501    0  0.00000000000E+00  0.00000000000E+00  0.56652781940E+03  0.56652781940E+03  0.25500000000E-02 0. -1.
         -2   -1    0    0    0  501 -0.00000000000E+00 -0.00000000000E+00 -0.71587375860E+03  0.71587375860E+03  0.25500000000E-02 0.  1.
    8880023    1    1    2    0    0 -0.22486782317E+03  0.12302489448E+03 -0.46653354578E+03  0.84685560644E+03  0.65864270000E+03 0.  1.
    8880022    1    1    2    0    0  0.22486782317E+03 -0.12302489448E+03  0.31718760658E+03  0.43554597156E+03  0.15294330000E+03 0.  0.
<mgrwt>
<rscale>  0 0.56975007E+03</rscale>
<asrwt>0</asrwt>
<pdfrwt beam="1">  1        2 0.87158126E-01 0.70676083E+03</pdfrwt>
<pdfrwt beam="2">  1       -2 0.11013443E+00 0.70676083E+03</pdfrwt>
<totfact> 0.35366668E+01</totfact>
</mgrwt>
</event>
<event>
 4    2  0.6914693E-007  0.1384350E+04  0.7818608E-02  0.8995940E-01
         -2   -1    0    0    0  501 -0.00000000000E+00  0.00000000000E+00  0.16142222946E+04  0.16142222946E+04  0.25500000000E-02 0.  1.
          2   -1    0    0  501    0  0.00000000000E+00 -0.00000000000E+00 -0.15625399874E+04  0.15625399874E+04  0.25500000000E-02 0. -1.
    8880023    1    1    2    0    0 -0.93144977454E+03 -0.78422932326E+03  0.92992133697E+03  0.16676864853E+04  0.65864270000E+03 0.  0.
    8880022    1    1    2    0    0  0.93144977454E+03  0.78422932326E+03 -0.87823902975E+03  0.15090757967E+04  0.15294330000E+03 0.  0.
<mgrwt>
<rscale>  0 0.13432682E+04</rscale>
<asrwt>0</asrwt>
<pdfrwt beam="1">  1        2 0.24039077E+00 0.13843499E+04</pdfrwt>
<pdfrwt beam="2">  1       -2 0.24834189E+00 0.13843499E+04</pdfrwt>
<totfact> 0.73244991E-01</totfact>
</mgrwt>
</event>
<event>
 4    2  0.6914693E-007  0.6666882E+03  0.7818608E-02  0.1018157E+00
         -2   -1    0    0    0  501 -0.00000000000E+00  0.00000000000E+00  0.89986219361E+02  0.89986219397E+02  0.25500000000E-02 0.  1.
          2   -1    0    0  501    0  0.00000000000E+00 -0.00000000000E+00 -0.28251712588E+04  0.28251712588E+04  0.25500000000E-02 0. -1.
    8880023    1    1    2    0    0  0.10275472113E+03 -0.10221070512E+02 -0.12331764130E+04  0.14018549407E+04  0.65864270000E+03 0.  1.
    8880022    1    1    2    0    0 -0.10275472113E+03  0.10221070512E+02 -0.15020086265E+04  0.15133025375E+04  0.15294330000E+03 0.  0.
<mgrwt>
<rscale>  0 0.48357535E+03</rscale>
<asrwt>0</asrwt>
<pdfrwt beam="1">  1        2 0.43464166E+00 0.66668824E+03</pdfrwt>
<pdfrwt beam="2">  1       -2 0.13844036E-01 0.66668824E+03</pdfrwt>
<totfact> 0.94953197E+01</totfact>
</mgrwt>
</event>
<event>
 4    2  0.6914693E-007  0.8021013E+03  0.7818608E-02  0.9706271E-01
          2   -1    0    0  501    0  0.00000000000E+00  0.00000000000E+00  0.36121807574E+04  0.36121807574E+04  0.25500000000E-02 0. -1.
         -2   -1    0    0    0  501 -0.00000000000E+00 -0.00000000000E+00 -0.19421349275E+03  0.19421349277E+03  0.25500000000E-02 0.  1.
    8880023    1    1    2    0    0  0.30509205594E+03  0.34128455932E+03  0.76004005578E+03  0.11050010885E+04  0.65864270000E+03 0.  0.
    8880022    1    1    2    0    0 -0.30509205594E+03 -0.34128455932E+03  0.26579272088E+04  0.27013931616E+04  0.15294330000E+03 0.  0.
<mgrwt>
<rscale>  0 0.70644651E+03</rscale>
<asrwt>0</asrwt>
<pdfrwt beam="1">  1        2 0.55572008E+00 0.80210131E+03</pdfrwt>
<pdfrwt beam="2">  1       -2 0.29879001E-01 0.80210131E+03</pdfrwt>
<totfact> 0.75111690E+00</totfact>
</mgrwt>
</event>
<event>
 4    2  0.6914693E-007  0.6661946E+03  0.7818608E-02  0.1018552E+00
          2   -1    0    0  501    0  0.00000000000E+00  0.00000000000E+00  0.17248999025E+04  0.17248999025E+04  0.25500000000E-02 0. -1.
         -2   -1    0    0    0  501 -0.00000000000E+00 -0.00000000000E+00 -0.12847629125E+03  0.12847629127E+03  0.25500000000E-02 0.  1.
    8880023    1    1    2    0    0  0.63889671057E+02 -0.76961668134E+02  0.82394674843E+03  0.10595770094E+04  0.65864270000E+03 0.  0.
    8880022    1    1    2    0    0 -0.63889671057E+02  0.76961668134E+02  0.77247686278E+03  0.79379918429E+03  0.15294330000E+03 0.  0.
<mgrwt>
<rscale>  0 0.48212945E+03</rscale>
<asrwt>0</asrwt>
<pdfrwt beam="1">  1        2 0.26536921E+00 0.66619456E+03</pdfrwt>
<pdfrwt beam="2">  1       -2 0.19765584E-01 0.66619456E+03</pdfrwt>
<totfact> 0.21221792E+02</totfact>
</mgrwt>
</event>
<event>
 4    2  0.6914693E-007  0.6937390E+03  0.7818608E-02  0.1002424E+00
          2   -1    0    0  501    0  0.00000000000E+00  0.00000000000E+00  0.10383300012E+04  0.10383300012E+04  0.25500000000E-02 0. -1.
         -2   -1    0    0    0  501 -0.00000000000E+00 -0.00000000000E+00 -0.33183567564E+03  0.33183567565E+03  0.25500000000E-02 0.  1.
    8880023    1    1    2    0    0 -0.15984452179E+03 -0.14803148136E+03  0.91132579607E+02  0.69969918104E+03  0.65864270000E+03 0.  1.
    8880022    1    1    2    0    0  0.15984452179E+03  0.14803148136E+03  0.61536174595E+03  0.67046649582E+03  0.15294330000E+03 0.  0.
<mgrwt>
<rscale>  0 0.54600118E+03</rscale>
<asrwt>0</asrwt>
<pdfrwt beam="1">  1        2 0.15974308E+00 0.69373900E+03</pdfrwt>
<pdfrwt beam="2">  1       -2 0.51051643E-01 0.69373900E+03</pdfrwt>
<totfact> 0.87974215E+01</totfact>
</mgrwt>
</event>
<event>
 4    2  0.6914693E-007  0.7773016E+03  0.7818608E-02  0.9762214E-01
          2   -1    0    0  501    0  0.00000000000E+00  0.00000000000E+00  0.38052597349E+03  0.38052597350E+03  0.25500000000E-02 0. -1.
         -2   -1    0    0    0  501 -0.00000000000E+00 -0.00000000000E+00 -0.99614406139E+03  0.99614406140E+03  0.25500000000E-02 0.  1.
    8880023    1    1    2    0    0 -0.10132034548E+03  0.40015217074E+03 -0.49014270602E+03  0.91893288693E+03  0.65864270000E+03 0. -1.
    8880022    1    1    2    0    0  0.10132034548E+03 -0.40015217074E+03 -0.12547538188E+03  0.45773714797E+03  0.15294330000E+03 0.  0.
<mgrwt>
<rscale>  0 0.67430375E+03</rscale>
<asrwt>0</asrwt>
<pdfrwt beam="1">  1        2 0.58542458E-01 0.77730160E+03</pdfrwt>
<pdfrwt beam="2">  1       -2 0.15325293E+00 0.77730160E+03</pdfrwt>
<totfact> 0.24062244E+01</totfact>
</mgrwt>
</event>
<event>
 4    2  0.6914693E-007  0.8703286E+03  0.7818608E-02  0.9575448E-01
          2   -1    0    0  501    0  0.00000000000E+00  0.00000000000E+00  0.48227164857E+03  0.48227164857E+03  0.25500000000E-02 0. -1.
         -2   -1    0    0    0  501 -0.00000000000E+00 -0.00000000000E+00 -0.11997078507E+04  0.11997078507E+04  0.25500000000E-02 0.  1.
    8880023    1    1    2    0    0 -0.55632678441E+03  0.11900522797E+03 -0.65561084480E+03  0.10896318284E+04  0.65864270000E+03 0.  1.
    8880022    1    1    2    0    0  0.55632678441E+03 -0.11900522797E+03 -0.61825357287E+02  0.59234767085E+03  0.15294330000E+03 0. -1.
<mgrwt>
<rscale>  0 0.78942703E+03</rscale>
<asrwt>0</asrwt>
<pdfrwt beam="1">  1        2 0.74195639E-01 0.87032864E+03</pdfrwt>
<pdfrwt beam="2">  1       -2 0.18457044E+00 0.87032864E+03</pdfrwt>
<totfact> 0.10891876E+01</totfact>
</mgrwt>
</event>
<event>
 4    2  0.6914693E-007  0.6997967E+03  0.7818608E-02  0.9998045E-01
         -2   -1    0    0    0  501 -0.00000000000E+00  0.00000000000E+00  0.33939231535E+03  0.33939231536E+03  0.25500000000E-02 0.  1.
          2   -1    0    0  501    0  0.00000000000E+00 -0.00000000000E+00 -0.10583529510E+04  0.10583529510E+04  0.25500000000E-02 0. -1.
    8880023    1    1    2    0    0  0.22026920956E+03  0.85946099511E+02 -0.86113998749E+02  0.70507523269E+03  0.65864270000E+03 0.  0.
    8880022    1    1    2    0    0 -0.22026920956E+03 -0.85946099511E+02 -0.63284663695E+03  0.69267003372E+03  0.15294330000E+03 0. -1.
<mgrwt>
<rscale>  0 0.55736021E+03</rscale>
<asrwt>0</asrwt>
<pdfrwt beam="1">  1        2 0.16282353E+00 0.69979673E+03</pdfrwt>
<pdfrwt beam="2">  1       -2 0.52214203E-01 0.69979673E+03</pdfrwt>
<totfact> 0.81591831E+01</totfact>
</mgrwt>
</event>
<event>
 4    2  0.6914693E-007  0.8455156E+03  0.7818608E-02  0.9619867E-01
         -2   -1    0    0    0  501 -0.00000000000E+00  0.00000000000E+00  0.41009199191E+03  0.41009199192E+03  0.25500000000E-02 0.  1.
          2   -1    0    0  501    0  0.00000000000E+00 -0.00000000000E+00 -0.14259780181E+04  0.14259780181E+04  0.25500000000E-02 0. -1.
    8880023    1    1    2    0    0  0.48134947021E+03  0.22223647154E+03 -0.23077011970E+03  0.87644247739E+03  0.65864270000E+03 0.  1.
    8880022    1    1    2    0    0 -0.48134947021E+03 -0.22223647154E+03 -0.78511590649E+03  0.95962753264E+03  0.15294330000E+03 0. -1.
<mgrwt>
<rscale>  0 0.75995119E+03</rscale>
<asrwt>0</asrwt>
<pdfrwt beam="1">  1        2 0.21938123E+00 0.84551556E+03</pdfrwt>
<pdfrwt beam="2">  1       -2 0.63091076E-01 0.84551556E+03</pdfrwt>
<totfact> 0.32929246E+01</totfact>
</mgrwt>
</event>
<event>
 4    2  0.6914693E-007  0.7459546E+03  0.7818608E-02  0.9842929E-01
          2   -1    0    0  501    0  0.00000000000E+00  0.00000000000E+00  0.14509589307E+04  0.14509589307E+04  0.25500000000E-02 0. -1.
         -2   -1    0    0    0  501 -0.00000000000E+00 -0.00000000000E+00 -0.24614156841E+03  0.24614156842E+03  0.25500000000E-02 0.  1.
    8880023    1    1    2    0    0 -0.35001089603E+03 -0.11419155782E+02  0.50839997482E+03  0.90272851130E+03  0.65864270000E+03 0.  1.
    8880022    1    1    2    0    0  0.35001089603E+03  0.11419155782E+02  0.69641738750E+03  0.79437198786E+03  0.15294330000E+03 0.  0.
<mgrwt>
<rscale>  0 0.63108728E+03</rscale>
<asrwt>0</asrwt>
<pdfrwt beam="1">  1        2 0.22322446E+00 0.74595458E+03</pdfrwt>
<pdfrwt beam="2">  1       -2 0.37867933E-01 0.74595458E+03</pdfrwt>
<totfact> 0.90720323E+01</totfact>
</mgrwt>
</event>
<event>
 4    2  0.6914693E-007  0.1012023E+04  0.7818608E-02  0.9365994E-01
         -2   -1    0    0    0  501 -0.00000000000E+00  0.00000000000E+00  0.76913966077E+03  0.76913966077E+03  0.25500000000E-02 0.  1.
          2   -1    0    0  501    0  0.00000000000E+00 -0.00000000000E+00 -0.12175553388E+04  0.12175553388E+04  0.25500000000E-02 0. -1.
    8880023    1    1    2    0    0  0.74609960640E+03 -0.18362078284E+03  0.11952013067E+03  0.10190566630E+04  0.65864270000E+03 0.  0.
    8880022    1    1    2    0    0 -0.74609960640E+03  0.18362078284E+03 -0.56793580872E+03  0.96763833657E+03  0.15294330000E+03 0.  0.
<mgrwt>
<rscale>  0 0.94927903E+03</rscale>
<asrwt>0</asrwt>
<pdfrwt beam="1">  1        2 0.18731621E+00 0.10120234E+04</pdfrwt>
<pdfrwt beam="2">  1       -2 0.11832918E+00 0.10120234E+04</pdfrwt>
<totfact> 0.10081375E+01</totfact>
</mgrwt>
</event>
<event>
 4    2  0.6914693E-007  0.7750526E+03  0.7818608E-02  0.9767589E-01
         -2   -1    0    0    0  501 -0.00000000000E+00  0.00000000000E+00  0.30587727967E+03  0.30587727968E+03  0.25500000000E-02 0.  1.
          2   -1    0    0  501    0  0.00000000000E+00 -0.00000000000E+00 -0.13685687151E+04  0.13685687151E+04  0.25500000000E-02 0. -1.
    8880023    1    1    2    0    0  0.32349633067E+03 -0.24949246873E+03 -0.37729663916E+03  0.86200889096E+03  0.65864270000E+03 0.  1.
    8880022    1    1    2    0    0 -0.32349633067E+03  0.24949246873E+03 -0.68539479631E+03  0.81243710387E+03  0.15294330000E+03 0.  0.
<mgrwt>
<rscale>  0 0.67131264E+03</rscale>
<asrwt>0</asrwt>
<pdfrwt beam="1">  1        2 0.21054903E+00 0.77505263E+03</pdfrwt>
<pdfrwt beam="2">  1       -2 0.47058044E-01 0.77505263E+03</pdfrwt>
<totfact> 0.65632218E+01</totfact>
</mgrwt>
</event>
<event>
 4    2  0.6914693E-007  0.1107087E+04  0.7818608E-02  0.9253206E-01
          2   -1    0    0  501    0  0.00000000000E+00  0.00000000000E+00  0.19463735739E+04  0.19463735739E+04  0.25500000000E-02 0. -1.
         -2   -1    0    0    0  501 -0.00000000000E+00 -0.00000000000E+00 -0.55920340006E+03  0.55920340006E+03  0.25500000000E-02 0.  1.
    8880023    1    1    2    0    0  0.81178446916E+03  0.36446918137E+03  0.10936061253E+04  0.15561543536E+04  0.65864270000E+03 0.  0.
    8880022    1    1    2    0    0 -0.81178446916E+03 -0.36446918137E+03  0.29356404853E+03  0.94942262040E+03  0.15294330000E+03 0.  0.
<mgrwt>
<rscale>  0 0.10520732E+04</rscale>
<asrwt>0</asrwt>
<pdfrwt beam="1">  1        2 0.29944209E+00 0.11070872E+04</pdfrwt>
<pdfrwt beam="2">  1       -2 0.86031292E-01 0.11070872E+04</pdfrwt>
<totfact> 0.83007386E+00</totfact>
</mgrwt>
</event>
<event>
 4    2  0.6914693E-007  0.7087885E+03  0.7818608E-02  0.9962527E-01
         -2   -1    0    0    0  501 -0.00000000000E+00  0.00000000000E+00  0.73329149448E+03  0.73329149449E+03  0.25500000000E-02 0.  1.
          2   -1    0    0  501    0  0.00000000000E+00 -0.00000000000E+00 -0.17766730129E+04  0.17766730129E+04  0.25500000000E-02 0. -1.
    8880023    1    1    2    0    0  0.94247905882E+02 -0.24431194350E+03  0.54424498318E+03  0.89363516128E+03  0.65864270000E+03 0.  1.
    8880022    1    1    2    0    0 -0.94247905882E+02  0.24431194350E+03 -0.15876265016E+04  0.16163293461E+04  0.15294330000E+03 0.  0.
<mgrwt>
<rscale>  0 0.57324325E+03</rscale>
<asrwt>0</asrwt>
<pdfrwt beam="1">  1        2 0.27333431E+00 0.70878854E+03</pdfrwt>
<pdfrwt beam="2">  1       -2 0.11281408E+00 0.70878854E+03</pdfrwt>
<totfact> 0.57000462E+00</totfact>
</mgrwt>
</event>
<event>
 4    2  0.6914693E-007  0.9422913E+03  0.7818608E-02  0.9461293E-01
          2   -1    0    0  501    0  0.00000000000E+00  0.00000000000E+00  0.21238022962E+04  0.21238022962E+04  0.25500000000E-02 0. -1.
         -2   -1    0    0    0  501 -0.00000000000E+00 -0.00000000000E+00 -0.48963184980E+03  0.48963184981E+03  0.25500000000E-02 0.  1.
    8880023    1    1    2    0    0  0.41201716894E+03 -0.53323966609E+03  0.12110004459E+03  0.95004111283E+03  0.65864270000E+03 0.  0.
    8880022    1    1    2    0    0 -0.41201716894E+03  0.53323966609E+03  0.15130704018E+04  0.16633930332E+04  0.15294330000E+03 0.  0.
<mgrwt>
<rscale>  0 0.87198681E+03</rscale>
<asrwt>0</asrwt>
<pdfrwt beam="1">  1        2 0.32673882E+00 0.94229130E+03</pdfrwt>
<pdfrwt beam="2">  1       -2 0.75327977E-01 0.94229130E+03</pdfrwt>
<totfact> 0.91127740E+00</totfact>
</mgrwt>
</event>
<event>
 4    2  0.6914693E-007  0.1031141E+04  0.7818608E-02  0.9341904E-01
         -2   -1    0    0    0  501 -0.00000000000E+00  0.00000000000E+00  0.53069048813E+03  0.53069048814E+03  0.25500000000E-02 0.  1.
          2   -1    0    0  501    0  0.00000000000E+00 -0.00000000000E+00 -0.20485210891E+04  0.20485210891E+04  0.25500000000E-02 0. -1.
    8880023    1    1    2    0    0 -0.18148909227E+03  0.77233577451E+03 -0.14349204716E+04  0.17669883433E+04  0.65864270000E+03 0.  0.
    8880022    1    1    2    0    0  0.18148909227E+03 -0.77233577451E+03 -0.82910129354E+02  0.81222323395E+03  0.15294330000E+03 0.  0.
<mgrwt>
<rscale>  0 0.97014947E+03</rscale>
<asrwt>0</asrwt>
<pdfrwt beam="1">  1        2 0.31515708E+00 0.10311407E+04</pdfrwt>
<pdfrwt beam="2">  1       -2 0.81644692E-01 0.10311407E+04</pdfrwt>
<totfact> 0.82812361E+00</totfact>
</mgrwt>
</event>
<event>
 4    2  0.6914693E-007  0.1123765E+04  0.7818608E-02  0.9235047E-01
         -2   -1    0    0    0  501 -0.00000000000E+00  0.00000000000E+00  0.47102032720E+03  0.47102032721E+03  0.25500000000E-02 0.  1.
          2   -1    0    0  501    0  0.00000000000E+00 -0.00000000000E+00 -0.36922116498E+04  0.36922116498E+04  0.25500000000E-02 0. -1.
    8880023    1    1    2    0    0 -0.75259272321E+03 -0.51248499835E+03 -0.30144415882E+04  0.32170957361E+04  0.65864270000E+03 0.  0.
    8880022    1    1    2    0    0  0.75259272321E+03  0.51248499835E+03 -0.20674973439E+03  0.94613624085E+03  0.15294330000E+03 0.  0.
<mgrwt>
<rscale>  0 0.10698891E+04</rscale>
<asrwt>0</asrwt>
<pdfrwt beam="1">  1        2 0.56803254E+00 0.11237646E+04</pdfrwt>
<pdfrwt beam="2">  1       -2 0.72464668E-01 0.11237646E+04</pdfrwt>
<totfact> 0.10404833E+00</totfact>
</mgrwt>
</event>
<event>
 4    2  0.6914693E-007  0.6740691E+03  0.7818608E-02  0.1012900E+00
          2   -1    0    0  501    0  0.00000000000E+00  0.00000000000E+00  0.88017441499E+03  0.88017441499E+03  0.25500000000E-02 0. -1.
         -2   -1    0    0    0  501 -0.00000000000E+00 -0.00000000000E+00 -0.35900831882E+03  0.35900831883E+03  0.25500000000E-02 0.  1.
    8880023    1    1    2    0    0 -0.14069069205E+03 -0.27659671100E+02 -0.36118715679E+01  0.67407876403E+03  0.65864270000E+03 0.  1.
    8880022    1    1    2    0    0  0.14069069205E+03  0.27659671100E+02  0.52477796774E+03  0.56510396979E+03  0.15294330000E+03 0.  0.
<mgrwt>
<rscale>  0 0.50338340E+03</rscale>
<asrwt>0</asrwt>
<pdfrwt beam="1">  1        2 0.13541145E+00 0.67406909E+03</pdfrwt>
<pdfrwt beam="2">  1       -2 0.55232049E-01 0.67406909E+03</pdfrwt>
<totfact> 0.94957645E+01</totfact>
</mgrwt>
</event>
<event>
 4    2  0.6914693E-007  0.6729761E+03  0.7818608E-02  0.1013613E+00
          2   -1    0    0  501    0  0.00000000000E+00  0.00000000000E+00  0.27146639935E+03  0.27146639937E+03  0.25500000000E-02 0. -1.
         -2   -1    0    0    0  501 -0.00000000000E+00 -0.00000000000E+00 -0.14406802256E+04  0.14406802256E+04  0.25500000000E-02 0.  1.
    8880023    1    1    2    0    0  0.12624608561E+03 -0.56112428668E+02 -0.13029306604E+04  0.14664669075E+04  0.65864270000E+03 0.  1.
    8880022    1    1    2    0    0 -0.12624608561E+03  0.56112428668E+02  0.13371683420E+03  0.24567971741E+03  0.15294330000E+03 0.  0.
<mgrwt>
<rscale>  0 0.50063439E+03</rscale>
<asrwt>0</asrwt>
<pdfrwt beam="1">  1        2 0.41764062E-01 0.67297614E+03</pdfrwt>
<pdfrwt beam="2">  1       -2 0.22164311E+00 0.67297614E+03</pdfrwt>
<totfact> 0.12187140E+01</totfact>
</mgrwt>
</event>
<event>
 4    2  0.6914693E-007  0.8251491E+03  0.7818608E-02  0.9658846E-01
         -2   -1    0    0    0  501 -0.00000000000E+00  0.00000000000E+00  0.37359370481E+03  0.37359370482E+03  0.25500000000E-02 0.  1.
          2   -1    0    0  501    0  0.00000000000E+00 -0.00000000000E+00 -0.14814300710E+04  0.14814300710E+04  0.25500000000E-02 0. -1.
    8880023    1    1    2    0    0  0.15227846040E+03 -0.47315118943E+03 -0.10445326949E+04  0.13311346793E+04  0.65864270000E+03 0. -1.
    8880022    1    1    2    0    0 -0.15227846040E+03  0.47315118943E+03 -0.63303671239E+02  0.52388909644E+03  0.15294330000E+03 0.  0.
<mgrwt>
<rscale>  0 0.73520876E+03</rscale>
<asrwt>0</asrwt>
<pdfrwt beam="1">  1        2 0.22791231E+00 0.82514907E+03</pdfrwt>
<pdfrwt beam="2">  1       -2 0.57475956E-01 0.82514907E+03</pdfrwt>
<totfact> 0.37406833E+01</totfact>
</mgrwt>
</event>
<event>
 4    2  0.6914693E-007  0.6997219E+03  0.7818608E-02  0.9998357E-01
         -2   -1    0    0    0  501 -0.00000000000E+00  0.00000000000E+00  0.14497170489E+03  0.14497170491E+03  0.25500000000E-02 0.  1.
          2   -1    0    0  501    0  0.00000000000E+00 -0.00000000000E+00 -0.18663022977E+04  0.18663022977E+04  0.25500000000E-02 0. -1.
    8880023    1    1    2    0    0  0.13977924646E+03 -0.19042646210E+03 -0.14931723313E+04  0.16489919019E+04  0.65864270000E+03 0.  0.
    8880022    1    1    2    0    0 -0.13977924646E+03  0.19042646210E+03 -0.22815826153E+03  0.36228210075E+03  0.15294330000E+03 0.  0.
<mgrwt>
<rscale>  0 0.55722338E+03</rscale>
<asrwt>0</asrwt>
<pdfrwt beam="1">  1        2 0.28712341E+00 0.69972186E+03</pdfrwt>
<pdfrwt beam="2">  1       -2 0.22303341E-01 0.69972186E+03</pdfrwt>
<totfact> 0.14329421E+02</totfact>
</mgrwt>
</event>
<event>
 4    2  0.6914693E-007  0.9599156E+03  0.7818608E-02  0.9435989E-01
          2   -1    0    0  501    0  0.00000000000E+00  0.00000000000E+00  0.18643774747E+04  0.18643774747E+04  0.25500000000E-02 0. -1.
         -2   -1    0    0    0  501 -0.00000000000E+00 -0.00000000000E+00 -0.46050798930E+03  0.46050798931E+03  0.25500000000E-02 0.  1.
    8880023    1    1    2    0    0 -0.55685624870E+03 -0.42135360186E+03  0.29255385088E+03  0.10035067022E+04  0.65864270000E+03 0.  0.
    8880022    1    1    2    0    0  0.55685624870E+03  0.42135360186E+03  0.11113156346E+04  0.13213787618E+04  0.15294330000E+03 0.  0.
<mgrwt>
<rscale>  0 0.89172195E+03</rscale>
<asrwt>0</asrwt>
<pdfrwt beam="1">  1        2 0.28682730E+00 0.95991559E+03</pdfrwt>
<pdfrwt beam="2">  1       -2 0.70847383E-01 0.95991559E+03</pdfrwt>
<totfact> 0.14467990E+01</totfact>
</mgrwt>
</event>
<event>
 4    2  0.6914693E-007  0.7668125E+03  0.7818608E-02  0.9787779E-01
         -2   -1    0    0    0  501 -0.00000000000E+00  0.00000000000E+00  0.54312628210E+03  0.54312628210E+03  0.25500000000E-02 0.  1.
          2   -1    0    0  501    0  0.00000000000E+00 -0.00000000000E+00 -0.17745944879E+04  0.17745944880E+04  0.25500000000E-02 0. -1.
    8880023    1    1    2    0    0 -0.17384287244E+03 -0.35209362482E+03  0.22690867418E+03  0.79968057224E+03  0.65864270000E+03 0.  1.
    8880022    1    1    2    0    0  0.17384287244E+03  0.35209362482E+03 -0.14583768800E+04  0.15180401978E+04  0.15294330000E+03 0.  0.
<mgrwt>
<rscale>  0 0.66022513E+03</rscale>
<asrwt>0</asrwt>
<pdfrwt beam="1">  1        2 0.27301453E+00 0.76681254E+03</pdfrwt>
<pdfrwt beam="2">  1       -2 0.83557890E-01 0.76681254E+03</pdfrwt>
<totfact> 0.11475266E+01</totfact>
</mgrwt>
</event>
<event>
 4    2  0.6914693E-007  0.1284006E+04  0.7818608E-02  0.9079496E-01
          2   -1    0    0  501    0  0.00000000000E+00  0.00000000000E+00  0.33015409451E+04  0.33015409451E+04  0.25500000000E-02 0. -1.
         -2   -1    0    0    0  501 -0.00000000000E+00 -0.00000000000E+00 -0.49413310626E+03  0.49413310627E+03  0.25500000000E-02 0.  1.
    8880023    1    1    2    0    0 -0.47728186663E+03 -0.99351026924E+03  0.83687203008E+03  0.15326531363E+04  0.65864270000E+03 0.  0.
    8880022    1    1    2    0    0  0.47728186663E+03  0.99351026924E+03  0.19705358087E+04  0.22630209150E+04  0.15294330000E+03 0.  0.
<mgrwt>
<rscale>  0 0.12388718E+04</rscale>
<asrwt>0</asrwt>
<pdfrwt beam="1">  1        2 0.50792936E+00 0.12840058E+04</pdfrwt>
<pdfrwt beam="2">  1       -2 0.76020480E-01 0.12840058E+04</pdfrwt>
<totfact> 0.17028704E+00</totfact>
</mgrwt>
</event>
<event>
 4    2  0.6914693E-007  0.6742376E+03  0.7818608E-02  0.1012791E+00
         -2   -1    0    0    0  501 -0.00000000000E+00  0.00000000000E+00  0.64472429718E+03  0.64472429719E+03  0.25500000000E-02 0.  1.
          2   -1    0    0  501    0  0.00000000000E+00 -0.00000000000E+00 -0.46575451679E+03  0.46575451680E+03  0.25500000000E-02 0. -1.
    8880023    1    1    2    0    0 -0.13079677095E+02 -0.14357956214E+03  0.41712615912E+03  0.79283706239E+03  0.65864270000E+03 0.  1.
    8880022    1    1    2    0    0  0.13079677095E+02  0.14357956214E+03 -0.23815637872E+03  0.31764175160E+03  0.15294330000E+03 0.  0.
<mgrwt>
<rscale>  0 0.50380245E+03</rscale>
<asrwt>0</asrwt>
<pdfrwt beam="1">  1        2 0.71654541E-01 0.67423762E+03</pdfrwt>
<pdfrwt beam="2">  1       -2 0.99188353E-01 0.67423762E+03</pdfrwt>
<totfact> 0.57224708E+01</totfact>
</mgrwt>
</event>
<event>
 4    2  0.6914693E-007  0.7274467E+03  0.7818608E-02  0.9898150E-01
         -2   -1    0    0    0  501 -0.00000000000E+00  0.00000000000E+00  0.20824465558E+03  0.20824465560E+03  0.25500000000E-02 0.  1.
          2   -1    0    0  501    0  0.00000000000E+00 -0.00000000000E+00 -0.39405034180E+04  0.39405034180E+04  0.25500000000E-02 0. -1.
    8880023    1    1    2    0    0 -0.10968492166E+03 -0.28868280197E+03 -0.46500523306E+03  0.86337049708E+03  0.65864270000E+03 0.  0.
    8880022    1    1    2    0    0  0.10968492166E+03  0.28868280197E+03 -0.32672535294E+04  0.32853775765E+04  0.15294330000E+03 0.  0.
<mgrwt>
<rscale>  0 0.60351040E+03</rscale>
<asrwt>0</asrwt>
<pdfrwt beam="1">  1        2 0.60623124E+00 0.72744673E+03</pdfrwt>
<pdfrwt beam="2">  1       -2 0.32037642E-01 0.72744673E+03</pdfrwt>
<totfact> 0.38370520E+00</totfact>
</mgrwt>
</event>
<event>
 4    2  0.6914693E-007  0.7757269E+03  0.7818608E-02  0.9765972E-01
         -2   -1    0    0    0  501 -0.00000000000E+00  0.00000000000E+00  0.55516802542E+03  0.55516802542E+03  0.25500000000E-02 0.  1.
          2   -1    0    0  501    0  0.00000000000E+00 -0.00000000000E+00 -0.99849465917E+03  0.99849465918E+03  0.25500000000E-02 0. -1.
    8880023    1    1    2    0    0  0.32183648883E+03  0.25369918359E+03  0.17599952460E+03  0.79544204077E+03  0.65864270000E+03 0.  1.
    8880022    1    1    2    0    0 -0.32183648883E+03 -0.25369918359E+03 -0.61932615835E+03  0.75822064383E+03  0.15294330000E+03 0.  0.
<mgrwt>
<rscale>  0 0.67221091E+03</rscale>
<asrwt>0</asrwt>
<pdfrwt beam="1">  1        2 0.15361456E+00 0.77572689E+03</pdfrwt>
<pdfrwt beam="2">  1       -2 0.85410465E-01 0.77572689E+03</pdfrwt>
<totfact> 0.30495469E+01</totfact>
</mgrwt>
</event>
<event>
 4    2  0.6914693E-007  0.7975601E+03  0.7818608E-02  0.9716097E-01
          2   -1    0    0  501    0  0.00000000000E+00  0.00000000000E+00  0.24120679829E+04  0.24120679830E+04  0.25500000000E-02 0. -1.
         -2   -1    0    0    0  501 -0.00000000000E+00 -0.00000000000E+00 -0.27823980814E+03  0.27823980815E+03  0.25500000000E-02 0.  1.
    8880023    1    1    2    0    0 -0.12209617055E+03  0.43287928574E+03  0.39936241709E+03  0.89195991913E+03  0.65864270000E+03 0.  1.
    8880022    1    1    2    0    0  0.12209617055E+03 -0.43287928574E+03  0.17344657577E+04  0.17983478720E+04  0.15294330000E+03 0.  0.
<mgrwt>
<rscale>  0 0.70066444E+03</rscale>
<asrwt>0</asrwt>
<pdfrwt beam="1">  1        2 0.37108736E+00 0.79756013E+03</pdfrwt>
<pdfrwt beam="2">  1       -2 0.42806127E-01 0.79756013E+03</pdfrwt>
<totfact> 0.20976245E+01</totfact>
</mgrwt>
</event>
<event>
 4    2  0.6914693E-007  0.1322949E+04  0.7818608E-02  0.9045991E-01
          2   -1    0    0  501    0  0.00000000000E+00  0.00000000000E+00  0.43612343452E+04  0.43612343452E+04  0.25500000000E-02 0. -1.
         -2   -1    0    0    0  501 -0.00000000000E+00 -0.00000000000E+00 -0.45447871307E+03  0.45447871308E+03  0.25500000000E-02 0.  1.
    8880023    1    1    2    0    0  0.60939893752E+03  0.97211990986E+03  0.91691141347E+03  0.16096337877E+04  0.65864270000E+03 0.  0.
    8880022    1    1    2    0    0 -0.60939893752E+03 -0.97211990986E+03  0.29898442186E+04  0.32060792705E+04  0.15294330000E+03 0.  0.
<mgrwt>
<rscale>  0 0.12794885E+04</rscale>
<asrwt>0</asrwt>
<pdfrwt beam="1">  1        2 0.67095914E+00 0.13229491E+04</pdfrwt>
<pdfrwt beam="2">  1       -2 0.69919801E-01 0.13229491E+04</pdfrwt>
<totfact> 0.31372772E-01</totfact>
</mgrwt>
</event>
<event>
 4    2  0.6914693E-007  0.6595347E+03  0.7818608E-02  0.1024638E+00
         -2   -1    0    0    0  501 -0.00000000000E+00  0.00000000000E+00  0.11140256197E+03  0.11140256200E+03  0.25500000000E-02 0.  1.
          2   -1    0    0  501    0  0.00000000000E+00 -0.00000000000E+00 -0.15070729701E+04  0.15070729701E+04  0.25500000000E-02 0. -1.
    8880023    1    1    2    0    0 -0.33983201540E+02 -0.45827544228E+01 -0.11808734991E+04  0.13525709914E+04  0.65864270000E+03 0.  0.
    8880022    1    1    2    0    0  0.33983201540E+02  0.45827544228E+01 -0.21479690907E+03  0.26590454074E+03  0.15294330000E+03 0.  1.
<mgrwt>
<rscale>  0 0.46049339E+03</rscale>
<asrwt>0</asrwt>
<pdfrwt beam="1">  1        2 0.23185737E+00 0.65953473E+03</pdfrwt>
<pdfrwt beam="2">  1       -2 0.17138857E-01 0.65953473E+03</pdfrwt>
<totfact> 0.35768865E+02</totfact>
</mgrwt>
</event>
<event>
 4    2  0.6914693E-007  0.9841585E+03  0.7818608E-02  0.9402583E-01
          2   -1    0    0  501    0  0.00000000000E+00  0.00000000000E+00  0.17195079461E+04  0.17195079461E+04  0.25500000000E-02 0. -1.
         -2   -1    0    0    0  501 -0.00000000000E+00 -0.00000000000E+00 -0.60344933295E+03  0.60344933295E+03  0.25500000000E-02 0.  1.
    8880023    1    1    2    0    0 -0.22482835875E+03 -0.69585199894E+03  0.51143866677E+01  0.98417181353E+03  0.65864270000E+03 0.  0.
    8880022    1    1    2    0    0  0.22482835875E+03  0.69585199894E+03  0.11109442265E+04  0.13387854655E+04  0.15294330000E+03 0.  0.
<mgrwt>
<rscale>  0 0.91863419E+03</rscale>
<asrwt>0</asrwt>
<pdfrwt beam="1">  1        2 0.26453968E+00 0.98415852E+03</pdfrwt>
<pdfrwt beam="2">  1       -2 0.92838360E-01 0.98415852E+03</pdfrwt>
<totfact> 0.94021347E+00</totfact>
</mgrwt>
</event>
<event>
 4    2  0.6914693E-007  0.6940720E+03  0.7818608E-02  0.1002274E+00
         -2   -1    0    0    0  501 -0.00000000000E+00  0.00000000000E+00  0.12577580967E+04  0.12577580967E+04  0.25500000000E-02 0.  1.
          2   -1    0    0  501    0  0.00000000000E+00 -0.00000000000E+00 -0.42932859714E+03  0.42932859715E+03  0.25500000000E-02 0. -1.
    8880023    1    1    2    0    0  0.12407116056E+03 -0.18036657605E+03  0.11035489608E+04  0.13036703071E+04  0.65864270000E+03 0.  1.
    8880022    1    1    2    0    0 -0.12407116056E+03  0.18036657605E+03 -0.27511946121E+03  0.38341638671E+03  0.15294330000E+03 0.  0.
<mgrwt>
<rscale>  0 0.54664181E+03</rscale>
<asrwt>0</asrwt>
<pdfrwt beam="1">  1        2 0.66050554E-01 0.69407201E+03</pdfrwt>
<pdfrwt beam="2">  1       -2 0.19350124E+00 0.69407201E+03</pdfrwt>
<totfact> 0.11034137E+01</totfact>
</mgrwt>
</event>
<event>
 4    2  0.6914693E-007  0.7352414E+03  0.7818608E-02  0.9874032E-01
         -2   -1    0    0    0  501 -0.00000000000E+00  0.00000000000E+00  0.68501779078E+03  0.68501779079E+03  0.25500000000E-02 0.  1.
          2   -1    0    0  501    0  0.00000000000E+00 -0.00000000000E+00 -0.66186574615E+03  0.66186574616E+03  0.25500000000E-02 0. -1.
    8880023    1    1    2    0    0 -0.13172970416E+03 -0.29902666025E+03  0.39006934801E+03  0.83230641053E+03  0.65864270000E+03 0.  1.
    8880022    1    1    2    0    0  0.13172970416E+03  0.29902666025E+03 -0.36691730337E+03  0.51457712641E+03  0.15294330000E+03 0.  0.
<mgrwt>
<rscale>  0 0.61536485E+03</rscale>
<asrwt>0</asrwt>
<pdfrwt beam="1">  1        2 0.10182550E+00 0.73524136E+03</pdfrwt>
<pdfrwt beam="2">  1       -2 0.10538735E+00 0.73524136E+03</pdfrwt>
<totfact> 0.32490376E+01</totfact>
</mgrwt>
</event>
<event>
 4    2  0.6914693E-007  0.7263232E+03  0.7818608E-02  0.9901744E-01
         -2   -1    0    0    0  501 -0.00000000000E+00  0.00000000000E+00  0.48733176429E+03  0.48733176430E+03  0.25500000000E-02 0.  1.
          2   -1    0    0  501    0  0.00000000000E+00 -0.00000000000E+00 -0.98603622451E+03  0.98603622452E+03  0.25500000000E-02 0. -1.
    8880023    1    1    2    0    0 -0.17475537138E+03  0.25138762766E+03  0.14840680276E+03  0.74132986217E+03  0.65864270000E+03 0.  1.
    8880022    1    1    2    0    0  0.17475537138E+03 -0.25138762766E+03 -0.64711126299E+03  0.73203812665E+03  0.15294330000E+03 0.  0.
<mgrwt>
<rscale>  0 0.60176855E+03</rscale>
<asrwt>0</asrwt>
<pdfrwt beam="1">  1        2 0.15169788E+00 0.72632320E+03</pdfrwt>
<pdfrwt beam="2">  1       -2 0.74974118E-01 0.72632320E+03</pdfrwt>
<totfact> 0.41827831E+01</totfact>
</mgrwt>
</event>
<event>
 4    2  0.6914693E-007  0.1174102E+04  0.7818608E-02  0.9182717E-01
         -2   -1    0    0    0  501 -0.00000000000E+00  0.00000000000E+00  0.34913659890E+03  0.34913659891E+03  0.25500000000E-02 0.  1.
          2   -1    0    0  501    0  0.00000000000E+00 -0.00000000000E+00 -0.37223002698E+04  0.37223002698E+04  0.25500000000E-02 0. -1.
    8880023    1    1    2    0    0  0.65674841621E+03 -0.71651086145E+03 -0.11651197207E+04  0.16540920369E+04  0.65864270000E+03 0.  0.
    8880022    1    1    2    0    0 -0.65674841621E+03  0.71651086145E+03 -0.22080439502E+04  0.24173448318E+04  0.15294330000E+03 0.  0.
<mgrwt>
<rscale>  0 0.11233612E+04</rscale>
<asrwt>0</asrwt>
<pdfrwt beam="1">  1        2 0.57266155E+00 0.11741024E+04</pdfrwt>
<pdfrwt beam="2">  1       -2 0.53713325E-01 0.11741024E+04</pdfrwt>
<totfact> 0.18653867E+00</totfact>
</mgrwt>
</event>
<event>
 4    2  0.6914693E-007  0.1277303E+04  0.7818608E-02  0.9085412E-01
          2   -1    0    0  501    0  0.00000000000E+00  0.00000000000E+00  0.38746251798E+04  0.38746251798E+04  0.25500000000E-02 0. -1.
         -2   -1    0    0    0  501 -0.00000000000E+00 -0.00000000000E+00 -0.67595002413E+03  0.67595002413E+03  0.25500000000E-02 0.  1.
    8880023    1    1    2    0    0 -0.94114434340E+03 -0.55851608873E+03  0.12394129659E+03  0.12833022044E+04  0.65864270000E+03 0. -1.
    8880022    1    1    2    0    0  0.94114434340E+03  0.55851608873E+03  0.30747338591E+04  0.32672729995E+04  0.15294330000E+03 0.  0.
<mgrwt>
<rscale>  0 0.12318666E+04</rscale>
<asrwt>0</asrwt>
<pdfrwt beam="1">  1        2 0.59609618E+00 0.12773031E+04</pdfrwt>
<pdfrwt beam="2">  1       -2 0.10399231E+00 0.12773031E+04</pdfrwt>
<totfact> 0.32278923E-01</totfact>
</mgrwt>
</event>
<event>
 4    2  0.6914693E-007  0.8485422E+03  0.7818608E-02  0.9614279E-01
          2   -1    0    0  501    0  0.00000000000E+00  0.00000000000E+00  0.19053095437E+04  0.19053095437E+04  0.25500000000E-02 0. -1.
         -2   -1    0    0    0  501 -0.00000000000E+00 -0.00000000000E+00 -0.41439920899E+03  0.41439920899E+03  0.25500000000E-02 0.  1.
    8880023    1    1    2    0    0 -0.13323001862E+03 -0.51813463833E+03  0.14173496298E+03  0.86029805724E+03  0.65864270000E+03 0.  1.
    8880022    1    1    2    0    0  0.13323001862E+03  0.51813463833E+03  0.13491753717E+04  0.14594106954E+04  0.15294330000E+03 0.  0.
<mgrwt>
<rscale>  0 0.76358285E+03</rscale>
<asrwt>0</asrwt>
<pdfrwt beam="1">  1        2 0.29312455E+00 0.84854225E+03</pdfrwt>
<pdfrwt beam="2">  1       -2 0.63753724E-01 0.84854225E+03</pdfrwt>
<totfact> 0.17494166E+01</totfact>
</mgrwt>
</event>
<event>
 4    2  0.8003047E-007  0.7016716E+03  0.7818608E-02  0.9990336E-01
         -2   -1    0    0    0  501 -0.00000000000E+00  0.00000000000E+00  0.39522076651E+03  0.39522076652E+03  0.25500000000E-02 0.  1.
          2   -1    0    0  501    0  0.00000000000E+00 -0.00000000000E+00 -0.29837209699E+04  0.29837209699E+04  0.25500000000E-02 0. -1.
    8880023    1    1    2    0    0  0.23693818242E+03 -0.48920242878E+02  0.69929788514E+02  0.70514769661E+03  0.65864270000E+03 0.  1.
    8880022    1    1    2    0    0 -0.23693818242E+03  0.48920242878E+02 -0.26584299919E+04  0.26737940398E+04  0.15294330000E+03 0.  0.
<mgrwt>
<rscale>  0 0.56076022E+03</rscale>
<asrwt>0</asrwt>
<pdfrwt beam="1">  1        2 0.45903398E+00 0.70167165E+03</pdfrwt>
<pdfrwt beam="2">  1       -2 0.60803197E-01 0.70167165E+03</pdfrwt>
<totfact> 0.48291320E+00</totfact>
</mgrwt>
</event>
<event>
 4    2  0.6914693E-007  0.1126865E+04  0.7818608E-02  0.9231719E-01
          2   -1    0    0  501    0  0.00000000000E+00  0.00000000000E+00  0.21920107398E+04  0.21920107398E+04  0.25500000000E-02 0. -1.
         -2   -1    0    0    0  501 -0.00000000000E+00 -0.00000000000E+00 -0.98509662051E+03  0.98509662052E+03  0.25500000000E-02 0.  1.
    8880023    1    1    2    0    0 -0.58168895329E+03  0.70544493945E+03 -0.50146640059E+03  0.12334072151E+04  0.65864270000E+03 0.  0.
    8880022    1    1    2    0    0  0.58168895329E+03 -0.70544493945E+03  0.17083805199E+04  0.19437001452E+04  0.15294330000E+03 0.  0.
<mgrwt>
<rscale>  0 0.10731952E+04</rscale>
<asrwt>0</asrwt>
<pdfrwt beam="1">  1        2 0.33723242E+00 0.11268650E+04</pdfrwt>
<pdfrwt beam="2">  1       -2 0.15155333E+00 0.11268650E+04</pdfrwt>
<totfact> 0.14958029E+00</totfact>
</mgrwt>
</event>
<event>
 4    2  0.6914693E-007  0.1480440E+04  0.7818608E-02  0.8923573E-01
          2   -1    0    0  501    0  0.00000000000E+00  0.00000000000E+00  0.26462928108E+04  0.26462928108E+04  0.25500000000E-02 0. -1.
         -2   -1    0    0    0  501 -0.00000000000E+00 -0.00000000000E+00 -0.10184810946E+04  0.10184810946E+04  0.25500000000E-02 0.  1.
    8880023    1    1    2    0    0  0.73467021979E+03 -0.11036992225E+04 -0.97320597452E+02  0.14836353361E+04  0.65864270000E+03 0.  0.
    8880022    1    1    2    0    0 -0.73467021979E+03  0.11036992225E+04  0.17251323137E+04  0.21811385693E+04  0.15294330000E+03 0.  0.
<mgrwt>
<rscale>  0 0.14425629E+04</rscale>
<asrwt>0</asrwt>
<pdfrwt beam="1">  1        2 0.40712198E+00 0.14804400E+04</pdfrwt>
<pdfrwt beam="2">  1       -2 0.15668940E+00 0.14804400E+04</pdfrwt>
<totfact> 0.72120613E-01</totfact>
</mgrwt>
</event>
<event>
 4    2  0.6914693E-007  0.1661236E+04  0.7818608E-02  0.8803447E-01
         -2   -1    0    0    0  501 -0.00000000000E+00  0.00000000000E+00  0.88571746475E+03  0.88571746476E+03  0.25500000000E-02 0.  1.
          2   -1    0    0  501    0  0.00000000000E+00 -0.00000000000E+00 -0.41413382280E+04  0.41413382280E+04  0.25500000000E-02 0. -1.
    8880023    1    1    2    0    0 -0.53548561835E+03  0.14279886046E+04 -0.28664849424E+03  0.16857858309E+04  0.65864270000E+03 0.  0.
    8880022    1    1    2    0    0  0.53548561835E+03 -0.14279886046E+04 -0.29689722690E+04  0.33412698618E+04  0.15294330000E+03 0.  0.
<mgrwt>
<rscale>  0 0.16281358E+04</rscale>
<asrwt>0</asrwt>
<pdfrwt beam="1">  1        2 0.63712894E+00 0.16612364E+04</pdfrwt>
<pdfrwt beam="2">  1       -2 0.13626423E+00 0.16612364E+04</pdfrwt>
<totfact> 0.95096274E-02</totfact>
</mgrwt>
</event>
<event>
 4    2  0.1156070E-006  0.7248818E+03  0.7818608E-02  0.9906401E-01
          2   -1    0    0  501    0  0.00000000000E+00  0.00000000000E+00  0.15316670801E+04  0.15316670801E+04  0.25500000000E-02 0. -1.
         -2   -1    0    0    0  501 -0.00000000000E+00 -0.00000000000E+00 -0.78354368580E+03  0.78354368580E+03  0.25500000000E-02 0.  1.
    8880023    1    1    2    0    0  0.30072112073E+03  0.34787509800E+02 -0.59008236088E+03  0.93469287051E+03  0.65864270000E+03 0.  0.
    8880022    1    1    2    0    0 -0.30072112073E+03 -0.34787509800E+02  0.13382057552E+04  0.13805178954E+04  0.15294330000E+03 0.  0.
<mgrwt>
<rscale>  0 0.59952064E+03</rscale>
<asrwt>0</asrwt>
<pdfrwt beam="1">  1        2 0.23564109E+00 0.72488176E+03</pdfrwt>
<pdfrwt beam="2">  1       -2 0.12054518E+00 0.72488176E+03</pdfrwt>
<totfact> 0.65849941E+00</totfact>
</mgrwt>
</event>
<event>
 4    2  0.6914693E-007  0.9495694E+03  0.7818608E-02  0.9450734E-01
          2   -1    0    0  501    0  0.00000000000E+00  0.00000000000E+00  0.48407179434E+03  0.48407179435E+03  0.25500000000E-02 0. -1.
         -2   -1    0    0    0  501 -0.00000000000E+00 -0.00000000000E+00 -0.28077559386E+04  0.28077559386E+04  0.25500000000E-02 0.  1.
    8880023    1    1    2    0    0  0.50343471870E+03  0.46306091581E+03 -0.24055270021E+04  0.25861636243E+04  0.65864270000E+03 0.  1.
    8880022    1    1    2    0    0 -0.50343471870E+03 -0.46306091581E+03  0.81842857867E+02  0.70566410859E+03  0.15294330000E+03 0.  0.
<mgrwt>
<rscale>  0 0.88015543E+03</rscale>
<asrwt>0</asrwt>
<pdfrwt beam="1">  1        2 0.74472585E-01 0.94956945E+03</pdfrwt>
<pdfrwt beam="2">  1       -2 0.43196244E+00 0.94956945E+03</pdfrwt>
<totfact> 0.30080883E-01</totfact>
</mgrwt>
</event>
<event>
 4    2  0.6914693E-007  0.7922512E+03  0.7818608E-02  0.9727808E-01
         -2   -1    0    0    0  501 -0.00000000000E+00  0.00000000000E+00  0.30551446996E+03  0.30551446998E+03  0.25500000000E-02 0.  1.
          2   -1    0    0  501    0  0.00000000000E+00 -0.00000000000E+00 -0.16643295232E+04  0.16643295232E+04  0.25500000000E-02 0. -1.
    8880023    1    1    2    0    0  0.42132439184E+03 -0.12781800645E+03 -0.36526503169E+03  0.87239924093E+03  0.65864270000E+03 0.  1.
    8880022    1    1    2    0    0 -0.42132439184E+03  0.12781800645E+03 -0.99355002157E+03  0.10974447523E+04  0.15294330000E+03 0.  0.
<mgrwt>
<rscale>  0 0.69384980E+03</rscale>
<asrwt>0</asrwt>
<pdfrwt beam="1">  1        2 0.25605069E+00 0.79225115E+03</pdfrwt>
<pdfrwt beam="2">  1       -2 0.47002227E-01 0.79225115E+03</pdfrwt>
<totfact> 0.44927658E+01</totfact>
</mgrwt>
</event>
<event>
 4    2  0.6914693E-007  0.7967518E+03  0.7818608E-02  0.9717864E-01
         -2   -1    0    0    0  501 -0.00000000000E+00  0.00000000000E+00  0.19771067222E+04  0.19771067222E+04  0.25500000000E-02 0.  1.
          2   -1    0    0  501    0  0.00000000000E+00 -0.00000000000E+00 -0.74692060858E+03  0.74692060859E+03  0.25500000000E-02 0. -1.
    8880023    1    1    2    0    0 -0.28917092932E+02 -0.44740029112E+03  0.18086420711E+04  0.19763601813E+04  0.65864270000E+03 0.  1.
    8880022    1    1    2    0    0  0.28917092932E+02  0.44740029112E+03 -0.57845595743E+03  0.74766714951E+03  0.15294330000E+03 0.  0.
<mgrwt>
<rscale>  0 0.69963077E+03</rscale>
<asrwt>0</asrwt>
<pdfrwt beam="1">  1        2 0.11491086E+00 0.79675180E+03</pdfrwt>
<pdfrwt beam="2">  1       -2 0.30417026E+00 0.79675180E+03</pdfrwt>
<totfact> 0.11707537E+00</totfact>
</mgrwt>
</event>
<event>
 4    2  0.6914693E-007  0.8239177E+03  0.7818608E-02  0.9661285E-01
          2   -1    0    0  501    0  0.00000000000E+00  0.00000000000E+00  0.14932474795E+04  0.14932474795E+04  0.25500000000E-02 0. -1.
         -2   -1    0    0    0  501 -0.00000000000E+00 -0.00000000000E+00 -0.67149265047E+03  0.67149265047E+03  0.25500000000E-02 0.  1.
    8880023    1    1    2    0    0 -0.49405353482E+03  0.30679589146E+02 -0.34106709730E+03  0.89172142712E+03  0.65864270000E+03 0.  1.
    8880022    1    1    2    0    0  0.49405353482E+03 -0.30679589146E+02  0.11628219264E+04  0.12730187029E+04  0.15294330000E+03 0.  0.
<mgrwt>
<rscale>  0 0.73369420E+03</rscale>
<asrwt>0</asrwt>
<pdfrwt beam="1">  1        2 0.22973038E+00 0.82391768E+03</pdfrwt>
<pdfrwt beam="2">  1       -2 0.10330656E+00 0.82391768E+03</pdfrwt>
<totfact> 0.99329725E+00</totfact>
</mgrwt>
</event>
<event>
 4    2  0.6914693E-007  0.6655815E+03  0.7818608E-02  0.1019050E+00
         -2   -1    0    0    0  501 -0.00000000000E+00  0.00000000000E+00  0.11999631263E+03  0.11999631266E+03  0.25500000000E-02 0.  1.
          2   -1    0    0  501    0  0.00000000000E+00 -0.00000000000E+00 -0.19413011688E+04  0.19413011688E+04  0.25500000000E-02 0. -1.
    8880023    1    1    2    0    0 -0.95215286814E+02  0.11070204586E+02 -0.88279802826E+03  0.11055908218E+04  0.65864270000E+03 0.  1.
    8880022    1    1    2    0    0  0.95215286814E+02 -0.11070204586E+02 -0.93850682793E+03  0.95570665969E+03  0.15294330000E+03 0.  0.
<mgrwt>
<rscale>  0 0.48030827E+03</rscale>
<asrwt>0</asrwt>
<pdfrwt beam="1">  1        2 0.29866169E+00 0.66558148E+03</pdfrwt>
<pdfrwt beam="2">  1       -2 0.18460973E-01 0.66558148E+03</pdfrwt>
<totfact> 0.18228845E+02</totfact>
</mgrwt>
</event>
<event>
 4    2  0.6914693E-007  0.7303525E+03  0.7818608E-02  0.9888997E-01
         -2   -1    0    0    0  501 -0.00000000000E+00  0.00000000000E+00  0.10407252455E+04  0.10407252455E+04  0.25500000000E-02 0.  1.
          2   -1    0    0  501    0  0.00000000000E+00 -0.00000000000E+00 -0.56341589215E+03  0.56341589216E+03  0.25500000000E-02 0. -1.
    8880023    1    1    2    0    0  0.11959844252E+03  0.29206285582E+03  0.83080645021E+03  0.11061889817E+04  0.65864270000E+03 0.  1.
    8880022    1    1    2    0    0 -0.11959844252E+03 -0.29206285582E+03 -0.35349709683E+03  0.49795215602E+03  0.15294330000E+03 0.  0.
<mgrwt>
<rscale>  0 0.60797512E+03</rscale>
<asrwt>0</asrwt>
<pdfrwt beam="1">  1        2 0.86679369E-01 0.73035245E+03</pdfrwt>
<pdfrwt beam="2">  1       -2 0.16011158E+00 0.73035245E+03</pdfrwt>
<totfact> 0.13677091E+01</totfact>
</mgrwt>
</event>
<event>
 4    2  0.6914693E-007  0.1059453E+04  0.7818608E-02  0.9307603E-01
         -2   -1    0    0    0  501 -0.00000000000E+00  0.00000000000E+00  0.15712315757E+04  0.15712315757E+04  0.25500000000E-02 0.  1.
          2   -1    0    0  501    0  0.00000000000E+00 -0.00000000000E+00 -0.15104301650E+04  0.15104301650E+04  0.25500000000E-02 0. -1.
    8880023    1    1    2    0    0  0.24090984077E+03  0.79409851463E+03  0.12404372646E+04  0.16312954411E+04  0.65864270000E+03 0.  0.
    8880022    1    1    2    0    0 -0.24090984077E+03 -0.79409851463E+03 -0.11796358539E+04  0.14503662997E+04  0.15294330000E+03 0.  0.
<mgrwt>
<rscale>  0 0.10008589E+04</rscale>
<asrwt>0</asrwt>
<pdfrwt beam="1">  1        2 0.23237387E+00 0.10594528E+04</pdfrwt>
<pdfrwt beam="2">  1       -2 0.24172793E+00 0.10594528E+04</pdfrwt>
<totfact> 0.89502733E-01</totfact>
</mgrwt>
</event>
<event>
 4    2  0.6914693E-007  0.9441506E+03  0.7818608E-02  0.9458580E-01
          2   -1    0    0  501    0  0.00000000000E+00  0.00000000000E+00  0.10528246759E+04  0.10528246760E+04  0.25500000000E-02 0. -1.
         -2   -1    0    0    0  501 -0.00000000000E+00 -0.00000000000E+00 -0.66490814851E+03  0.66490814851E+03  0.25500000000E-02 0.  1.
    8880023    1    1    2    0    0  0.24751036421E+03  0.62956240450E+03  0.48001236800E+02  0.94537004741E+03  0.65864270000E+03 0.  0.
    8880022    1    1    2    0    0 -0.24751036421E+03 -0.62956240450E+03  0.33991529064E+03  0.77236277705E+03  0.15294330000E+03 0.  0.
<mgrwt>
<rscale>  0 0.87407623E+03</rscale>
<asrwt>0</asrwt>
<pdfrwt beam="1">  1        2 0.16197303E+00 0.94415063E+03</pdfrwt>
<pdfrwt beam="2">  1       -2 0.10229356E+00 0.94415063E+03</pdfrwt>
<totfact> 0.18215296E+01</totfact>
</mgrwt>
</event>
<event>
 4    2  0.6914693E-007  0.9019615E+03  0.7818608E-02  0.9522890E-01
         -2   -1    0    0    0  501 -0.00000000000E+00  0.00000000000E+00  0.54963821083E+03  0.54963821083E+03  0.25500000000E-02 0.  1.
          2   -1    0    0  501    0  0.00000000000E+00 -0.00000000000E+00 -0.17011416078E+04  0.17011416078E+04  0.25500000000E-02 0. -1.
    8880023    1    1    2    0    0  0.58469838543E+03 -0.19455646542E+03  0.37646226445E+02  0.90274684425E+03  0.65864270000E+03 0.  0.
    8880022    1    1    2    0    0 -0.58469838543E+03  0.19455646542E+03 -0.11891496234E+04  0.13480329744E+04  0.15294330000E+03 0.  0.
<mgrwt>
<rscale>  0 0.82617068E+03</rscale>
<asrwt>0</asrwt>
<pdfrwt beam="1">  1        2 0.26171409E+00 0.90196154E+03</pdfrwt>
<pdfrwt beam="2">  1       -2 0.84559726E-01 0.90196154E+03</pdfrwt>
<totfact> 0.12047098E+01</totfact>
</mgrwt>
</event>
<event>
 4    2  0.6914693E-007  0.7097432E+03  0.7818608E-02  0.9958956E-01
          2   -1    0    0  501    0  0.00000000000E+00  0.00000000000E+00  0.97332198933E+03  0.97332198933E+03  0.25500000000E-02 0. -1.
         -2   -1    0    0    0  501 -0.00000000000E+00 -0.00000000000E+00 -0.37824326608E+03  0.37824326608E+03  0.25500000000E-02 0.  1.
    8880023    1    1    2    0    0  0.16555074385E+02  0.26391502479E+03  0.31405333111E+02  0.71043769045E+03  0.65864270000E+03 0. -1.
    8880022    1    1    2    0    0 -0.16555074385E+02 -0.26391502479E+03  0.56367339014E+03  0.64112756497E+03  0.15294330000E+03 0.  0.
<mgrwt>
<rscale>  0 0.57487173E+03</rscale>
<asrwt>0</asrwt>
<pdfrwt beam="1">  1        2 0.14974184E+00 0.70974321E+03</pdfrwt>
<pdfrwt beam="2">  1       -2 0.58191273E-01 0.70974321E+03</pdfrwt>
<totfact> 0.73693059E+01</totfact>
</mgrwt>
</event>
<event>
 4    2  0.6914693E-007  0.9002318E+03  0.7818608E-02  0.9525660E-01
         -2   -1    0    0    0  501 -0.00000000000E+00  0.00000000000E+00  0.79743244189E+03  0.79743244189E+03  0.25500000000E-02 0.  1.
          2   -1    0    0  501    0  0.00000000000E+00 -0.00000000000E+00 -0.20393742399E+04  0.20393742399E+04  0.25500000000E-02 0. -1.
    8880023    1    1    2    0    0  0.55232056567E+03  0.26748668012E+03  0.46731106204E+03  0.10142962912E+04  0.65864270000E+03 0.  1.
    8880022    1    1    2    0    0 -0.55232056567E+03 -0.26748668012E+03 -0.17092528600E+04  0.18225103906E+04  0.15294330000E+03 0.  0.
<mgrwt>
<rscale>  0 0.82418196E+03</rscale>
<asrwt>0</asrwt>
<pdfrwt beam="1">  1        2 0.31374988E+00 0.90023182E+03</pdfrwt>
<pdfrwt beam="2">  1       -2 0.12268191E+00 0.90023182E+03</pdfrwt>
<totfact> 0.32338902E+00</totfact>
</mgrwt>
</event>
<event>
 4    2  0.6914693E-007  0.8057181E+03  0.7818608E-02  0.9698566E-01
         -2   -1    0    0    0  501 -0.00000000000E+00  0.00000000000E+00  0.26760486294E+03  0.26760486295E+03  0.25500000000E-02 0.  1.
          2   -1    0    0  501    0  0.00000000000E+00 -0.00000000000E+00 -0.20116823538E+04  0.20116823538E+04  0.25500000000E-02 0. -1.
    8880023    1    1    2    0    0 -0.32512947483E+03  0.33115282743E+03 -0.51399173237E+03  0.95570344654E+03  0.65864270000E+03 0.  0.
    8880022    1    1    2    0    0  0.32512947483E+03 -0.33115282743E+03 -0.12300857585E+04  0.13235837702E+04  0.15294330000E+03 0.  0.
<mgrwt>
<rscale>  0 0.71102227E+03</rscale>
<asrwt>0</asrwt>
<pdfrwt beam="1">  1        2 0.30948958E+00 0.80571805E+03</pdfrwt>
<pdfrwt beam="2">  1       -2 0.41169980E-01 0.80571805E+03</pdfrwt>
<totfact> 0.37691123E+01</totfact>
</mgrwt>
</event>
<event>
 4    2  0.6914693E-007  0.9527046E+03  0.7818608E-02  0.9446233E-01
         -2   -1    0    0    0  501 -0.00000000000E+00  0.00000000000E+00  0.36767235428E+03  0.36767235429E+03  0.25500000000E-02 0.  1.
          2   -1    0    0  501    0  0.00000000000E+00 -0.00000000000E+00 -0.32317691396E+04  0.32317691396E+04  0.25500000000E-02 0. -1.
    8880023    1    1    2    0    0  0.46025792262E+02  0.68681697760E+03 -0.39451001524E+03  0.10311567740E+04  0.65864270000E+03 0.  0.
    8880022    1    1    2    0    0 -0.46025792262E+02 -0.68681697760E+03 -0.24695867701E+04  0.25682847199E+04  0.15294330000E+03 0.  0.
<mgrwt>
<rscale>  0 0.88366594E+03</rscale>
<asrwt>0</asrwt>
<pdfrwt beam="1">  1        2 0.49719523E+00 0.95270464E+03</pdfrwt>
<pdfrwt beam="2">  1       -2 0.56564980E-01 0.95270464E+03</pdfrwt>
<totfact> 0.37568804E+00</totfact>
</mgrwt>
</event>
<event>
 4    2  0.6914693E-007  0.6784316E+03  0.7818608E-02  0.1010225E+00
          2   -1    0    0  501    0  0.00000000000E+00  0.00000000000E+00  0.64123370098E+03  0.64123370098E+03  0.25500000000E-02 0. -1.
         -2   -1    0    0    0  501 -0.00000000000E+00 -0.00000000000E+00 -0.13953488635E+04  0.13953488635E+04  0.25500000000E-02 0.  1.
    8880023    1    1    2    0    0 -0.15411837841E+03 -0.52025962700E+02 -0.12891834843E+04  0.14567990383E+04  0.65864270000E+03 0.  1.
    8880022    1    1    2    0    0  0.15411837841E+03  0.52025962700E+02  0.53506832176E+03  0.57978352626E+03  0.15294330000E+03 0.  0.
<mgrwt>
<rscale>  0 0.51385263E+03</rscale>
<asrwt>0</asrwt>
<pdfrwt beam="1">  1        2 0.98651339E-01 0.67843156E+03</pdfrwt>
<pdfrwt beam="2">  1       -2 0.21466905E+00 0.67843156E+03</pdfrwt>
<totfact> 0.50476741E+00</totfact>
</mgrwt>
</event>
<event>
 4    2  0.6914693E-007  0.8790222E+03  0.7818608E-02  0.9560583E-01
         -2   -1    0    0    0  501 -0.00000000000E+00  0.00000000000E+00  0.67686839768E+03  0.67686839769E+03  0.25500000000E-02 0.  1.
          2   -1    0    0  501    0  0.00000000000E+00 -0.00000000000E+00 -0.10262799599E+04  0.10262799599E+04  0.25500000000E-02 0. -1.
    8880023    1    1    2    0    0 -0.59411904354E+02  0.57908548381E+03  0.18496979527E+03  0.89827267762E+03  0.65864270000E+03 0.  0.
    8880022    1    1    2    0    0  0.59411904354E+02 -0.57908548381E+03 -0.53438135744E+03  0.80487567992E+03  0.15294330000E+03 0.  0.
<mgrwt>
<rscale>  0 0.79960893E+03</rscale>
<asrwt>0</asrwt>
<pdfrwt beam="1">  1        2 0.15788922E+00 0.87902217E+03</pdfrwt>
<pdfrwt beam="2">  1       -2 0.10413360E+00 0.87902217E+03</pdfrwt>
<totfact> 0.18243286E+01</totfact>
</mgrwt>
</event>
<event>
 4    2  0.6914693E-007  0.7199636E+03  0.7818608E-02  0.9922709E-01
         -2   -1    0    0    0  501 -0.00000000000E+00  0.00000000000E+00  0.10122506022E+04  0.10122506022E+04  0.25500000000E-02 0.  1.
          2   -1    0    0  501    0  0.00000000000E+00 -0.00000000000E+00 -0.40594820769E+03  0.40594820770E+03  0.25500000000E-02 0. -1.
    8880023    1    1    2    0    0  0.28114958113E+03 -0.74110194410E+02  0.76743501099E+03  0.10522851848E+04  0.65864270000E+03 0.  1.
    8880022    1    1    2    0    0 -0.28114958113E+03  0.74110194410E+02 -0.16113261649E+03  0.36591362505E+03  0.15294330000E+03 0.  0.
<mgrwt>
<rscale>  0 0.59173222E+03</rscale>
<asrwt>0</asrwt>
<pdfrwt beam="1">  1        2 0.62453571E-01 0.71996362E+03</pdfrwt>
<pdfrwt beam="2">  1       -2 0.15573086E+00 0.71996362E+03</pdfrwt>
<totfact> 0.21535010E+01</totfact>
</mgrwt>
</event>
<event>
 4    2  0.6914693E-007  0.1047008E+04  0.7818608E-02  0.9322487E-01
          2   -1    0    0  501    0  0.00000000000E+00  0.00000000000E+00  0.11775501308E+04  0.11775501308E+04  0.25500000000E-02 0. -1.
         -2   -1    0    0    0  501 -0.00000000000E+00 -0.00000000000E+00 -0.14737890141E+04  0.14737890141E+04  0.25500000000E-02 0.  1.
    8880023    1    1    2    0    0  0.72513221489E+03  0.36959340310E+03 -0.10849185002E+04  0.15077381639E+04  0.65864270000E+03 0.  0.
    8880022    1    1    2    0    0 -0.72513221489E+03 -0.36959340310E+03  0.78867961685E+03  0.11436009810E+04  0.15294330000E+03 0.  0.
<mgrwt>
<rscale>  0 0.98738804E+03</rscale>
<asrwt>0</asrwt>
<pdfrwt beam="1">  1        2 0.18116156E+00 0.10470082E+04</pdfrwt>
<pdfrwt beam="2">  1       -2 0.22673677E+00 0.10470082E+04</pdfrwt>
<totfact> 0.17309023E+00</totfact>
</mgrwt>
</event>
<event>
 4    2  0.6914693E-007  0.7040000E+03  0.7818608E-02  0.9980995E-01
         -2   -1    0    0    0  501 -0.00000000000E+00  0.00000000000E+00  0.37771665663E+03  0.37771665664E+03  0.25500000000E-02 0.  1.
          2   -1    0    0  501    0  0.00000000000E+00 -0.00000000000E+00 -0.79940130301E+03  0.79940130302E+03  0.25500000000E-02 0. -1.
    8880023    1    1    2    0    0 -0.27149450030E+02 -0.24712075672E+03 -0.51753235553E+02  0.70589968458E+03  0.65864270000E+03 0.  1.
    8880022    1    1    2    0    0  0.27149450030E+02  0.24712075672E+03 -0.36993141083E+03  0.47121827508E+03  0.15294330000E+03 0. -1.
<mgrwt>
<rscale>  0 0.56491458E+03</rscale>
<asrwt>0</asrwt>
<pdfrwt beam="1">  1        2 0.12298482E+00 0.70399998E+03</pdfrwt>
<pdfrwt beam="2">  1       -2 0.58110255E-01 0.70399998E+03</pdfrwt>
<totfact> 0.97033583E+01</totfact>
</mgrwt>
</event>
<event>
 4    2  0.6914693E-007  0.6771871E+03  0.7818608E-02  0.1010962E+00
         -2   -1    0    0    0  501 -0.00000000000E+00  0.00000000000E+00  0.14726071326E+03  0.14726071328E+03  0.25500000000E-02 0.  1.
          2   -1    0    0  501    0  0.00000000000E+00 -0.00000000000E+00 -0.18648500207E+04  0.18648500207E+04  0.25500000000E-02 0. -1.
    8880023    1    1    2    0    0 -0.72048535723E+02 -0.13993278629E+03 -0.71105044193E+03  0.98192418924E+03  0.65864270000E+03 0.  1.
    8880022    1    1    2    0    0  0.72048535723E+02  0.13993278629E+03 -0.10065388655E+04  0.10301865447E+04  0.15294330000E+03 0.  0.
<mgrwt>
<rscale>  0 0.51094204E+03</rscale>
<asrwt>0</asrwt>
<pdfrwt beam="1">  1        2 0.28689999E+00 0.67718711E+03</pdfrwt>
<pdfrwt beam="2">  1       -2 0.22655496E-01 0.67718711E+03</pdfrwt>
<totfact> 0.13994089E+02</totfact>
</mgrwt>
</event>
<event>
 4    2  0.6914693E-007  0.6872672E+03  0.7818608E-02  0.1005479E+00
         -2   -1    0    0    0  501 -0.00000000000E+00  0.00000000000E+00  0.11783818194E+04  0.11783818194E+04  0.25500000000E-02 0.  1.
          2   -1    0    0  501    0  0.00000000000E+00 -0.00000000000E+00 -0.63633945198E+03  0.63633945199E+03  0.25500000000E-02 0. -1.
    8880023    1    1    2    0    0 -0.18929686647E+03  0.51891348130E+02  0.10466346581E+04  0.12521103504E+04  0.65864270000E+03 0.  1.
    8880022    1    1    2    0    0  0.18929686647E+03 -0.51891348130E+02 -0.50459229067E+03  0.56261092105E+03  0.15294330000E+03 0.  0.
<mgrwt>
<rscale>  0 0.53311517E+03</rscale>
<asrwt>0</asrwt>
<pdfrwt beam="1">  1        2 0.97898379E-01 0.68726721E+03</pdfrwt>
<pdfrwt beam="2">  1       -2 0.18128951E+00 0.68726721E+03</pdfrwt>
<totfact> 0.84082746E+00</totfact>
</mgrwt>
</event>
<event>
 4    2  0.6914693E-007  0.6920084E+03  0.7818608E-02  0.1003212E+00
          2   -1    0    0  501    0  0.00000000000E+00  0.00000000000E+00  0.10733962040E+04  0.10733962040E+04  0.25500000000E-02 0. -1.
         -2   -1    0    0    0  501 -0.00000000000E+00 -0.00000000000E+00 -0.27328642702E+03  0.27328642703E+03  0.25500000000E-02 0.  1.
    8880023    1    1    2    0    0  0.16903166105E+03  0.12842802333E+03  0.83304225898E+03  0.10829751018E+04  0.65864270000E+03 0. -1.
    8880022    1    1    2    0    0 -0.16903166105E+03 -0.12842802333E+03 -0.32932481958E+02  0.26370752927E+03  0.15294330000E+03 0.  0.
<mgrwt>
<rscale>  0 0.54263882E+03</rscale>
<asrwt>0</asrwt>
<pdfrwt beam="1">  1        2 0.16513788E+00 0.69200843E+03</pdfrwt>
<pdfrwt beam="2">  1       -2 0.42044066E-01 0.69200843E+03</pdfrwt>
<totfact> 0.12345706E+02</totfact>
</mgrwt>
</event>
<event>
 4    2  0.6914693E-007  0.1051752E+04  0.7818608E-02  0.9316778E-01
         -2   -1    0    0    0  501 -0.00000000000E+00  0.00000000000E+00  0.83841022118E+03  0.83841022118E+03  0.25500000000E-02 0.  1.
          2   -1    0    0  501    0  0.00000000000E+00 -0.00000000000E+00 -0.16400165107E+04  0.16400165107E+04  0.25500000000E-02 0. -1.
    8880023    1    1    2    0    0 -0.42280944579E+03  0.70257004639E+03  0.30275000572E+03  0.10944588936E+04  0.65864270000E+03 0.  1.
    8880022    1    1    2    0    0  0.42280944579E+03 -0.70257004639E+03 -0.11043562952E+04  0.13839678383E+04  0.15294330000E+03 0.  0.
<mgrwt>
<rscale>  0 0.99252814E+03</rscale>
<asrwt>0</asrwt>
<pdfrwt beam="1">  1        2 0.25231023E+00 0.10517522E+04</pdfrwt>
<pdfrwt beam="2">  1       -2 0.12898619E+00 0.10517522E+04</pdfrwt>
<totfact> 0.46395871E+00</totfact>
</mgrwt>
</event>
<event>
 4    2  0.6914693E-007  0.7733869E+03  0.7818608E-02  0.9771607E-01
          2   -1    0    0  501    0  0.00000000000E+00  0.00000000000E+00  0.25978601155E+04  0.25978601155E+04  0.25500000000E-02 0. -1.
         -2   -1    0    0    0  501 -0.00000000000E+00 -0.00000000000E+00 -0.20848714461E+03  0.20848714462E+03  0.25500000000E-02 0.  1.
    8880023    1    1    2    0    0  0.13452731894E+03  0.38238656733E+03  0.63920161900E+03  0.10033473987E+04  0.65864270000E+03 0.  1.
    8880022    1    1    2    0    0 -0.13452731894E+03 -0.38238656733E+03  0.17501713519E+04  0.18029998614E+04  0.15294330000E+03 0.  0.
<mgrwt>
<rscale>  0 0.66908789E+03</rscale>
<asrwt>0</asrwt>
<pdfrwt beam="1">  1        2 0.39967079E+00 0.77338690E+03</pdfrwt>
<pdfrwt beam="2">  1       -2 0.32074945E-01 0.77338690E+03</pdfrwt>
<totfact> 0.28773789E+01</totfact>
</mgrwt>
</event>
<event>
 4    2  0.6914693E-007  0.1148141E+04  0.7818608E-02  0.9209260E-01
          2   -1    0    0  501    0  0.00000000000E+00  0.00000000000E+00  0.15306609369E+04  0.15306609369E+04  0.25500000000E-02 0. -1.
         -2   -1    0    0    0  501 -0.00000000000E+00 -0.00000000000E+00 -0.79036503040E+03  0.79036503041E+03  0.25500000000E-02 0.  1.
    8880023    1    1    2    0    0  0.78225625152E+03  0.52200746915E+03  0.58890320817E+02  0.11496499106E+04  0.65864270000E+03 0.  0.
    8880022    1    1    2    0    0 -0.78225625152E+03 -0.52200746915E+03  0.68140558564E+03  0.11713760566E+04  0.15294330000E+03 0.  0.
<mgrwt>
<rscale>  0 0.10958360E+04</rscale>
<asrwt>0</asrwt>
<pdfrwt beam="1">  1        2 0.23548630E+00 0.11481406E+04</pdfrwt>
<pdfrwt beam="2">  1       -2 0.12159462E+00 0.11481406E+04</pdfrwt>
<totfact> 0.61387495E+00</totfact>
</mgrwt>
</event>
<event>
 4    2  0.6914693E-007  0.7098025E+03  0.7818608E-02  0.9958735E-01
          2   -1    0    0  501    0  0.00000000000E+00  0.00000000000E+00  0.73477340563E+03  0.73477340564E+03  0.25500000000E-02 0. -1.
         -2   -1    0    0    0  501 -0.00000000000E+00 -0.00000000000E+00 -0.82620343241E+03  0.82620343241E+03  0.25500000000E-02 0.  1.
    8880023    1    1    2    0    0  0.25558733211E+03  0.68443731828E+02 -0.62521539187E+03  0.94589318702E+03  0.65864270000E+03 0.  1.
    8880022    1    1    2    0    0 -0.25558733211E+03 -0.68443731828E+02  0.53378536509E+03  0.61508365103E+03  0.15294330000E+03 0.  0.
<mgrwt>
<rscale>  0 0.57497260E+03</rscale>
<asrwt>0</asrwt>
<pdfrwt beam="1">  1        2 0.11304206E+00 0.70980253E+03</pdfrwt>
<pdfrwt beam="2">  1       -2 0.12710822E+00 0.70980253E+03</pdfrwt>
<totfact> 0.18029080E+01</totfact>
</mgrwt>
</event>
<event>
 4    2  0.6914693E-007  0.7293379E+03  0.7818608E-02  0.9892170E-01
         -2   -1    0    0    0  501 -0.00000000000E+00  0.00000000000E+00  0.50050130376E+03  0.50050130376E+03  0.25500000000E-02 0.  1.
          2   -1    0    0  501    0  0.00000000000E+00 -0.00000000000E+00 -0.11916414168E+04  0.11916414168E+04  0.25500000000E-02 0. -1.
    8880023    1    1    2    0    0  0.24397531497E+03 -0.19646796599E+03  0.18224403621E+03  0.75176240327E+03  0.65864270000E+03 0.  0.
    8880022    1    1    2    0    0 -0.24397531497E+03  0.19646796599E+03 -0.87338414922E+03  0.94038031726E+03  0.15294330000E+03 0.  0.
<mgrwt>
<rscale>  0 0.60642271E+03</rscale>
<asrwt>0</asrwt>
<pdfrwt beam="1">  1        2 0.18332945E+00 0.72933793E+03</pdfrwt>
<pdfrwt beam="2">  1       -2 0.77000201E-01 0.72933793E+03</pdfrwt>
<totfact> 0.29454901E+01</totfact>
</mgrwt>
</event>
<event>
 4    2  0.6914693E-007  0.1215035E+04  0.7818608E-02  0.9142644E-01
          2   -1    0    0  501    0  0.00000000000E+00  0.00000000000E+00  0.26658258897E+04  0.26658258897E+04  0.25500000000E-02 0. -1.
         -2   -1    0    0    0  501 -0.00000000000E+00 -0.00000000000E+00 -0.55633408315E+03  0.55633408315E+03  0.25500000000E-02 0.  1.
    8880023    1    1    2    0    0 -0.21508501110E+03  0.99811776026E+03  0.50850146778E+03  0.13171501715E+04  0.65864270000E+03 0.  0.
    8880022    1    1    2    0    0  0.21508501110E+03 -0.99811776026E+03  0.16009903388E+04  0.19050098014E+04  0.15294330000E+03 0.  0.
<mgrwt>
<rscale>  0 0.11665567E+04</rscale>
<asrwt>0</asrwt>
<pdfrwt beam="1">  1        2 0.41012706E+00 0.12150353E+04</pdfrwt>
<pdfrwt beam="2">  1       -2 0.85589859E-01 0.12150353E+04</pdfrwt>
<totfact> 0.32536748E+00</totfact>
</mgrwt>
</event>
<event>
 4    2  0.6914693E-007  0.9835657E+03  0.7818608E-02  0.9403382E-01
         -2   -1    0    0    0  501 -0.00000000000E+00  0.00000000000E+00  0.76564455687E+03  0.76564455687E+03  0.25500000000E-02 0.  1.
          2   -1    0    0  501    0  0.00000000000E+00 -0.00000000000E+00 -0.26046791254E+04  0.26046791254E+04  0.25500000000E-02 0. -1.
    8880023    1    1    2    0    0 -0.12538451272E+03 -0.71963188340E+03 -0.22942097173E+04  0.24961569976E+04  0.65864270000E+03 0.  0.
    8880022    1    1    2    0    0  0.12538451272E+03  0.71963188340E+03  0.45517514870E+03  0.87416668470E+03  0.15294330000E+03 0.  0.
<mgrwt>
<rscale>  0 0.91797907E+03</rscale>
<asrwt>0</asrwt>
<pdfrwt beam="1">  1        2 0.40071986E+00 0.98356572E+03</pdfrwt>
<pdfrwt beam="2">  1       -2 0.11779147E+00 0.98356572E+03</pdfrwt>
<totfact> 0.17012898E+00</totfact>
</mgrwt>
</event>
<event>
 4    2  0.6914693E-007  0.7209855E+03  0.7818608E-02  0.9919265E-01
         -2   -1    0    0    0  501 -0.00000000000E+00  0.00000000000E+00  0.22313528333E+03  0.22313528334E+03  0.25500000000E-02 0.  1.
          2   -1    0    0  501    0  0.00000000000E+00 -0.00000000000E+00 -0.18038605506E+04  0.18038605506E+04  0.25500000000E-02 0. -1.
    8880023    1    1    2    0    0 -0.72643285844E+02 -0.28413525330E+03 -0.45234718443E+03  0.85113927807E+03  0.65864270000E+03 0.  1.
    8880022    1    1    2    0    0  0.72643285844E+02  0.28413525330E+03 -0.11283780828E+04  0.11758565558E+04  0.15294330000E+03 0. -1.
<mgrwt>
<rscale>  0 0.59336624E+03</rscale>
<asrwt>0</asrwt>
<pdfrwt beam="1">  1        2 0.27751700E+00 0.72098550E+03</pdfrwt>
<pdfrwt beam="2">  1       -2 0.34328506E-01 0.72098550E+03</pdfrwt>
<totfact> 0.70156229E+01</totfact>
</mgrwt>
</event>
<event>
 4    2  0.6914693E-007  0.6673237E+03  0.7818608E-02  0.1017659E+00
         -2   -1    0    0    0  501 -0.00000000000E+00  0.00000000000E+00  0.83453777584E+03  0.83453777584E+03  0.25500000000E-02 0.  1.
          2   -1    0    0  501    0  0.00000000000E+00 -0.00000000000E+00 -0.21898790014E+03  0.21898790016E+03  0.25500000000E-02 0. -1.
    8880023    1    1    2    0    0 -0.10678796241E+03 -0.10344873630E+02  0.49997898014E+03  0.83384643201E+03  0.65864270000E+03 0.  0.
    8880022    1    1    2    0    0  0.10678796241E+03  0.10344873630E+02  0.11557089555E+03  0.21967924399E+03  0.15294330000E+03 0. -1.
<mgrwt>
<rscale>  0 0.48541056E+03</rscale>
<asrwt>0</asrwt>
<pdfrwt beam="1">  1        2 0.33690446E-01 0.66732368E+03</pdfrwt>
<pdfrwt beam="2">  1       -2 0.12839043E+00 0.66732368E+03</pdfrwt>
<totfact> 0.70951258E+01</totfact>
</mgrwt>
</event>
<event>
 4    2  0.6914693E-007  0.8314531E+03  0.7818608E-02  0.9646512E-01
          2   -1    0    0  501    0  0.00000000000E+00  0.00000000000E+00  0.12110893130E+04  0.12110893130E+04  0.25500000000E-02 0. -1.
         -2   -1    0    0    0  501 -0.00000000000E+00 -0.00000000000E+00 -0.38262604289E+03  0.38262604290E+03  0.25500000000E-02 0.  1.
    8880023    1    1    2    0    0 -0.50743581942E+03 -0.35865765074E+01  0.50261960869E+03  0.97156608198E+03  0.65864270000E+03 0.  0.
    8880022    1    1    2    0    0  0.50743581942E+03  0.35865765074E+01  0.32584366147E+03  0.62214927396E+03  0.15294330000E+03 0.  1.
<mgrwt>
<rscale>  0 0.74292748E+03</rscale>
<asrwt>0</asrwt>
<pdfrwt beam="1">  1        2 0.18632143E+00 0.83145305E+03</pdfrwt>
<pdfrwt beam="2">  1       -2 0.58865544E-01 0.83145305E+03</pdfrwt>
<totfact> 0.50824476E+01</totfact>
</mgrwt>
</event>
<event>
 4    2  0.6914693E-007  0.8663416E+03  0.7818608E-02  0.9582381E-01
          2   -1    0    0  501    0  0.00000000000E+00  0.00000000000E+00  0.13809929698E+04  0.13809929698E+04  0.25500000000E-02 0. -1.
         -2   -1    0    0    0  501 -0.00000000000E+00 -0.00000000000E+00 -0.87985782182E+03  0.87985782182E+03  0.25500000000E-02 0.  1.
    8880023    1    1    2    0    0  0.12441281607E+03  0.54887059379E+03 -0.57293760435E+03  0.10386554685E+04  0.65864270000E+03 0.  1.
    8880022    1    1    2    0    0 -0.12441281607E+03 -0.54887059379E+03  0.10740727523E+04  0.12221953231E+04  0.15294330000E+03 0.  0.
<mgrwt>
<rscale>  0 0.78473376E+03</rscale>
<asrwt>0</asrwt>
<pdfrwt beam="1">  1        2 0.21246046E+00 0.86634155E+03</pdfrwt>
<pdfrwt beam="2">  1       -2 0.13536274E+00 0.86634155E+03</pdfrwt>
<totfact> 0.58590500E+00</totfact>
</mgrwt>
</event>
<event>
 4    2  0.6914693E-007  0.6732014E+03  0.7818608E-02  0.1013465E+00
         -2   -1    0    0    0  501 -0.00000000000E+00  0.00000000000E+00  0.12229626426E+03  0.12229626429E+03  0.25500000000E-02 0.  1.
          2   -1    0    0  501    0  0.00000000000E+00 -0.00000000000E+00 -0.25950946037E+04  0.25950946037E+04  0.25500000000E-02 0. -1.
    8880023    1    1    2    0    0 -0.12806507957E+03 -0.54673641595E+02 -0.86378072096E+03  0.10951334219E+04  0.65864270000E+03 0.  1.
    8880022    1    1    2    0    0  0.12806507957E+03  0.54673641595E+02 -0.16090176184E+04  0.16222574460E+04  0.15294330000E+03 0.  0.
<mgrwt>
<rscale>  0 0.50120544E+03</rscale>
<asrwt>0</asrwt>
<pdfrwt beam="1">  1        2 0.39924528E+00 0.67320137E+03</pdfrwt>
<pdfrwt beam="2">  1       -2 0.18814812E-01 0.67320137E+03</pdfrwt>
<totfact> 0.76561530E+01</totfact>
</mgrwt>
</event>
<event>
 4    2  0.6914693E-007  0.7064864E+03  0.7818608E-02  0.9971287E-01
         -2   -1    0    0    0  501 -0.00000000000E+00  0.00000000000E+00  0.91861591489E+02  0.91861591524E+02  0.25500000000E-02 0.  1.
          2   -1    0    0  501    0  0.00000000000E+00 -0.00000000000E+00 -0.34713231674E+04  0.34713231674E+04  0.25500000000E-02 0. -1.
    8880023    1    1    2    0    0  0.22187506359E+03 -0.12682377124E+03 -0.14737286339E+04  0.16343191566E+04  0.65864270000E+03 0.  1.
    8880022    1    1    2    0    0 -0.22187506359E+03  0.12682377124E+03 -0.19057329419E+04  0.19288656023E+04  0.15294330000E+03 0.  0.
<mgrwt>
<rscale>  0 0.56927359E+03</rscale>
<asrwt>0</asrwt>
<pdfrwt beam="1">  1        2 0.53404962E+00 0.70648639E+03</pdfrwt>
<pdfrwt beam="2">  1       -2 0.14132555E-01 0.70648639E+03</pdfrwt>
<totfact> 0.35696766E+01</totfact>
</mgrwt>
</event>
<event>
 4    2  0.6914693E-007  0.1059348E+04  0.7818608E-02  0.9307727E-01
          2   -1    0    0  501    0  0.00000000000E+00  0.00000000000E+00  0.11800582753E+04  0.11800582753E+04  0.25500000000E-02 0. -1.
         -2   -1    0    0    0  501 -0.00000000000E+00 -0.00000000000E+00 -0.93734528918E+03  0.93734528919E+03  0.25500000000E-02 0.  1.
    8880023    1    1    2    0    0 -0.81806201156E+03 -0.13850110476E+03 -0.31602373208E+03  0.11054814410E+04  0.65864270000E+03 0.  0.
    8880022    1    1    2    0    0  0.81806201156E+03  0.13850110476E+03  0.55873671815E+03  0.10119221235E+04  0.15294330000E+03 0.  0.
<mgrwt>
<rscale>  0 0.10007457E+04</rscale>
<asrwt>0</asrwt>
<pdfrwt beam="1">  1        2 0.18154743E+00 0.10593480E+04</pdfrwt>
<pdfrwt beam="2">  1       -2 0.14420697E+00 0.10593480E+04</pdfrwt>
<totfact> 0.63804081E+00</totfact>
</mgrwt>
</event>
<event>
 4    2  0.6914693E-007  0.8810649E+03  0.7818608E-02  0.9557139E-01
          2   -1    0    0  501    0  0.00000000000E+00  0.00000000000E+00  0.21641345344E+04  0.21641345344E+04  0.25500000000E-02 0. -1.
         -2   -1    0    0    0  501 -0.00000000000E+00 -0.00000000000E+00 -0.81503864544E+03  0.81503864544E+03  0.25500000000E-02 0.  1.
    8880023    1    1    2    0    0  0.19604012006E+03  0.55139232061E+03 -0.51421736070E+03  0.10201445585E+04  0.65864270000E+03 0.  0.
    8880022    1    1    2    0    0 -0.19604012006E+03 -0.55139232061E+03  0.18633132496E+04  0.19590286213E+04  0.15294330000E+03 0.  0.
<mgrwt>
<rscale>  0 0.80199164E+03</rscale>
<asrwt>0</asrwt>
<pdfrwt beam="1">  1        2 0.33294377E+00 0.88106494E+03</pdfrwt>
<pdfrwt beam="2">  1       -2 0.12539056E+00 0.88106494E+03</pdfrwt>
<totfact> 0.26205614E+00</totfact>
</mgrwt>
</event>
<event>
 4    2  0.6914693E-007  0.7679046E+03  0.7818608E-02  0.9785057E-01
         -2   -1    0    0    0  501 -0.00000000000E+00  0.00000000000E+00  0.51455744996E+03  0.51455744997E+03  0.25500000000E-02 0.  1.
          2   -1    0    0  501    0  0.00000000000E+00 -0.00000000000E+00 -0.26727527647E+04  0.26727527647E+04  0.25500000000E-02 0. -1.
    8880023    1    1    2    0    0 -0.37520057750E+03 -0.12284878686E+03  0.19828903871E+03  0.79309271017E+03  0.65864270000E+03 0.  1.
    8880022    1    1    2    0    0  0.37520057750E+03  0.12284878686E+03 -0.23564843535E+04  0.23942175045E+04  0.15294330000E+03 0.  0.
<mgrwt>
<rscale>  0 0.66170675E+03</rscale>
<asrwt>0</asrwt>
<pdfrwt beam="1">  1        2 0.41119273E+00 0.76790462E+03</pdfrwt>
<pdfrwt beam="2">  1       -2 0.79162686E-01 0.76790462E+03</pdfrwt>
<totfact> 0.41043587E+00</totfact>
</mgrwt>
</event>
<event>
 4    2  0.6914693E-007  0.8532700E+03  0.7818608E-02  0.9605649E-01
         -2   -1    0    0    0  501 -0.00000000000E+00  0.00000000000E+00  0.13551122277E+04  0.13551122277E+04  0.25500000000E-02 0.  1.
          2   -1    0    0  501    0  0.00000000000E+00 -0.00000000000E+00 -0.70967710082E+03  0.70967710083E+03  0.25500000000E-02 0. -1.
    8880023    1    1    2    0    0  0.54128577384E+03  0.35626111664E+02  0.10631854317E+04  0.13632435502E+04  0.65864270000E+03 0.  0.
    8880022    1    1    2    0    0 -0.54128577384E+03 -0.35626111664E+02 -0.41775030485E+03  0.70154577827E+03  0.15294330000E+03 0.  0.
<mgrwt>
<rscale>  0 0.76923435E+03</rscale>
<asrwt>0</asrwt>
<pdfrwt beam="1">  1        2 0.10918109E+00 0.85327001E+03</pdfrwt>
<pdfrwt beam="2">  1       -2 0.20847880E+00 0.85327001E+03</pdfrwt>
<totfact> 0.47608355E+00</totfact>
</mgrwt>
</event>
<event>
 4    2  0.6914693E-007  0.6747665E+03  0.7818608E-02  0.1012454E+00
         -2   -1    0    0    0  501 -0.00000000000E+00  0.00000000000E+00  0.27129271248E+03  0.27129271250E+03  0.25500000000E-02 0.  1.
          2   -1    0    0  501    0  0.00000000000E+00 -0.00000000000E+00 -0.20072346571E+04  0.20072346571E+04  0.25500000000E-02 0. -1.
    8880023    1    1    2    0    0  0.13008359343E+03 -0.67660365069E+02 -0.16670871213E+03  0.69505515410E+03  0.65864270000E+03 0.  1.
    8880022    1    1    2    0    0 -0.13008359343E+03  0.67660365069E+02 -0.15692332325E+04  0.15834722155E+04  0.15294330000E+03 0.  0.
<mgrwt>
<rscale>  0 0.50510939E+03</rscale>
<asrwt>0</asrwt>
<pdfrwt beam="1">  1        2 0.30880532E+00 0.67476653E+03</pdfrwt>
<pdfrwt beam="2">  1       -2 0.41737342E-01 0.67476653E+03</pdfrwt>
<totfact> 0.37521829E+01</totfact>
</mgrwt>
</event>
<event>
 4    2  0.6914693E-007  0.6776354E+03  0.7818608E-02  0.1010694E+00
         -2   -1    0    0    0  501 -0.00000000000E+00  0.00000000000E+00  0.35819621588E+03  0.35819621589E+03  0.25500000000E-02 0.  1.
          2   -1    0    0  501    0  0.00000000000E+00 -0.00000000000E+00 -0.10464921498E+04  0.10464921498E+04  0.25500000000E-02 0. -1.
    8880023    1    1    2    0    0 -0.60099187630E+02  0.14753847662E+03  0.43902745991E+01  0.67764961094E+03  0.65864270000E+03 0.  0.
    8880022    1    1    2    0    0  0.60099187630E+02 -0.14753847662E+03 -0.69268620856E+03  0.72703875480E+03  0.15294330000E+03 0.  0.
<mgrwt>
<rscale>  0 0.51199704E+03</rscale>
<asrwt>0</asrwt>
<pdfrwt beam="1">  1        2 0.16099879E+00 0.67763539E+03</pdfrwt>
<pdfrwt beam="2">  1       -2 0.55107111E-01 0.67763539E+03</pdfrwt>
<totfact> 0.74399839E+01</totfact>
</mgrwt>
</event>
<event>
 4    2  0.6914693E-007  0.6619334E+03  0.7818608E-02  0.1022258E+00
         -2   -1    0    0    0  501 -0.00000000000E+00  0.00000000000E+00  0.20188426359E+03  0.20188426361E+03  0.25500000000E-02 0.  1.
          2   -1    0    0  501    0  0.00000000000E+00 -0.00000000000E+00 -0.11433802550E+04  0.11433802551E+04  0.25500000000E-02 0. -1.
    8880023    1    1    2    0    0 -0.11196143427E+01 -0.65911946047E+02 -0.38802847063E+03  0.76728217655E+03  0.65864270000E+03 0.  1.
    8880022    1    1    2    0    0  0.11196143427E+01  0.65911946047E+02 -0.55346752083E+03  0.57798234211E+03  0.15294330000E+03 0.  0.
<mgrwt>
<rscale>  0 0.46880662E+03</rscale>
<asrwt>0</asrwt>
<pdfrwt beam="1">  1        2 0.17590465E+00 0.66193341E+03</pdfrwt>
<pdfrwt beam="2">  1       -2 0.31059118E-01 0.66193341E+03</pdfrwt>
<totfact> 0.20021787E+02</totfact>
</mgrwt>
</event>
<event>
 4    2  0.6914693E-007  0.7051877E+03  0.7818608E-02  0.9976325E-01
         -2   -1    0    0    0  501 -0.00000000000E+00  0.00000000000E+00  0.15042619568E+03  0.15042619571E+03  0.25500000000E-02 0.  1.
          2   -1    0    0  501    0  0.00000000000E+00 -0.00000000000E+00 -0.35342686927E+04  0.35342686927E+04  0.25500000000E-02 0. -1.
    8880023    1    1    2    0    0  0.16337730132E+03 -0.19180025885E+03 -0.73163012121E+03  0.10161556585E+04  0.65864270000E+03 0.  0.
    8880022    1    1    2    0    0 -0.16337730132E+03  0.19180025885E+03 -0.26522123758E+04  0.26685392299E+04  0.15294330000E+03 0. -1.
<mgrwt>
<rscale>  0 0.56700643E+03</rscale>
<asrwt>0</asrwt>
<pdfrwt beam="1">  1        2 0.54373358E+00 0.70518770E+03</pdfrwt>
<pdfrwt beam="2">  1       -2 0.23142494E-01 0.70518770E+03</pdfrwt>
<totfact> 0.13795140E+01</totfact>
</mgrwt>
</event>
<event>
 4    2  0.6914693E-007  0.8657273E+03  0.7818608E-02  0.9583456E-01
          2   -1    0    0  501    0  0.00000000000E+00  0.00000000000E+00  0.24111476375E+04  0.24111476375E+04  0.25500000000E-02 0. -1.
         -2   -1    0    0    0  501 -0.00000000000E+00 -0.00000000000E+00 -0.45438200603E+03  0.45438200604E+03  0.25500000000E-02 0.  1.
    8880023    1    1    2    0    0  0.44881201320E+03 -0.33799597782E+03  0.44827636091E+02  0.86688709036E+03  0.65864270000E+03 0.  0.
    8880022    1    1    2    0    0 -0.44881201320E+03  0.33799597782E+03  0.19119379954E+04  0.19986425532E+04  0.15294330000E+03 0.  0.
<mgrwt>
<rscale>  0 0.78400931E+03</rscale>
<asrwt>0</asrwt>
<pdfrwt beam="1">  1        2 0.37094578E+00 0.86572727E+03</pdfrwt>
<pdfrwt beam="2">  1       -2 0.69904925E-01 0.86572727E+03</pdfrwt>
<totfact> 0.75066487E+00</totfact>
</mgrwt>
</event>
<event>
 4    2  0.6914693E-007  0.6819090E+03  0.7818608E-02  0.1008264E+00
         -2   -1    0    0    0  501 -0.00000000000E+00  0.00000000000E+00  0.39181645593E+03  0.39181645594E+03  0.25500000000E-02 0.  1.
          2   -1    0    0  501    0  0.00000000000E+00 -0.00000000000E+00 -0.12113166118E+04  0.12113166118E+04  0.25500000000E-02 0. -1.
    8880023    1    1    2    0    0  0.13420498552E+03 -0.11479845559E+03  0.68100166324E+02  0.68530103054E+03  0.65864270000E+03 0.  1.
    8880022    1    1    2    0    0 -0.13420498552E+03  0.11479845559E+03 -0.88760032223E+03  0.91783203723E+03  0.15294330000E+03 0.  0.
<mgrwt>
<rscale>  0 0.52170538E+03</rscale>
<asrwt>0</asrwt>
<pdfrwt beam="1">  1        2 0.18635640E+00 0.68190899E+03</pdfrwt>
<pdfrwt beam="2">  1       -2 0.60279455E-01 0.68190899E+03</pdfrwt>
<totfact> 0.49013499E+01</totfact>
</mgrwt>
</event>
<event>
 4    2  0.6914693E-007  0.7179864E+03  0.7818608E-02  0.9929459E-01
         -2   -1    0    0    0  501 -0.00000000000E+00  0.00000000000E+00  0.75467251379E+03  0.75467251379E+03  0.25500000000E-02 0.  1.
          2   -1    0    0  501    0  0.00000000000E+00 -0.00000000000E+00 -0.53588490292E+03  0.53588490293E+03  0.25500000000E-02 0. -1.
    8880023    1    1    2    0    0  0.20289178769E+03  0.20131850148E+03  0.48887195568E+03  0.86861971649E+03  0.65864270000E+03 0.  1.
    8880022    1    1    2    0    0 -0.20289178769E+03 -0.20131850148E+03 -0.27008434482E+03  0.42193770024E+03  0.15294330000E+03 0.  0.
<mgrwt>
<rscale>  0 0.58854570E+03</rscale>
<asrwt>0</asrwt>
<pdfrwt beam="1">  1        2 0.82443831E-01 0.71798637E+03</pdfrwt>
<pdfrwt beam="2">  1       -2 0.11610346E+00 0.71798637E+03</pdfrwt>
<totfact> 0.33189124E+01</totfact>
</mgrwt>
</event>
<event>
 4    2  0.6914693E-007  0.7777770E+03  0.7818608E-02  0.9761085E-01
          2   -1    0    0  501    0  0.00000000000E+00  0.00000000000E+00  0.27669476135E+04  0.27669476135E+04  0.25500000000E-02 0. -1.
         -2   -1    0    0    0  501 -0.00000000000E+00 -0.00000000000E+00 -0.17756784238E+03  0.17756784240E+03  0.25500000000E-02 0.  1.
    8880023    1    1    2    0    0  0.76847168664E+02 -0.40647422112E+03  0.85894312268E+03  0.11587580740E+04  0.65864270000E+03 0.  1.
    8880022    1    1    2    0    0 -0.76847168664E+02  0.40647422112E+03  0.17304366485E+04  0.17857573819E+04  0.15294330000E+03 0.  0.
<mgrwt>
<rscale>  0 0.67493414E+03</rscale>
<asrwt>0</asrwt>
<pdfrwt beam="1">  1        2 0.42568424E+00 0.77777695E+03</pdfrwt>
<pdfrwt beam="2">  1       -2 0.27318130E-01 0.77777695E+03</pdfrwt>
<totfact> 0.30877485E+01</totfact>
</mgrwt>
</event>
<event>
 4    2  0.6914693E-007  0.6928361E+03  0.7818608E-02  0.1002833E+00
         -2   -1    0    0    0  501 -0.00000000000E+00  0.00000000000E+00  0.92262268264E+03  0.92262268264E+03  0.25500000000E-02 0.  1.
          2   -1    0    0  501    0  0.00000000000E+00 -0.00000000000E+00 -0.96513733266E+03  0.96513733267E+03  0.25500000000E-02 0. -1.
    8880023    1    1    2    0    0  0.21871096628E+02 -0.21385354459E+03  0.76862286903E+03  0.10347961173E+04  0.65864270000E+03 0.  1.
    8880022    1    1    2    0    0 -0.21871096628E+02  0.21385354459E+03 -0.81113751906E+03  0.85296389797E+03  0.15294330000E+03 0.  0.
<mgrwt>
<rscale>  0 0.54425402E+03</rscale>
<asrwt>0</asrwt>
<pdfrwt beam="1">  1        2 0.14848267E+00 0.69283612E+03</pdfrwt>
<pdfrwt beam="2">  1       -2 0.14194195E+00 0.69283612E+03</pdfrwt>
<totfact> 0.94220754E+00</totfact>
</mgrwt>
</event>
<event>
 4    2  0.6914693E-007  0.7972907E+03  0.7818608E-02  0.9716685E-01
         -2   -1    0    0    0  501 -0.00000000000E+00  0.00000000000E+00  0.39226573779E+03  0.39226573780E+03  0.25500000000E-02 0.  1.
          2   -1    0    0  501    0  0.00000000000E+00 -0.00000000000E+00 -0.11880207183E+04  0.11880207183E+04  0.25500000000E-02 0. -1.
    8880023    1    1    2    0    0  0.39716838456E+03  0.21004651301E+03 -0.20637350925E+03  0.82356693408E+03  0.65864270000E+03 0.  1.
    8880022    1    1    2    0    0 -0.39716838456E+03 -0.21004651301E+03 -0.58938147128E+03  0.75671952203E+03  0.15294330000E+03 0.  0.
<mgrwt>
<rscale>  0 0.70032007E+03</rscale>
<asrwt>0</asrwt>
<pdfrwt beam="1">  1        2 0.18277242E+00 0.79729071E+03</pdfrwt>
<pdfrwt beam="2">  1       -2 0.60348576E-01 0.79729071E+03</pdfrwt>
<totfact> 0.49915695E+01</totfact>
</mgrwt>
</event>
<event>
 4    2  0.6914693E-007  0.7716229E+03  0.7818608E-02  0.9775896E-01
         -2   -1    0    0    0  501 -0.00000000000E+00  0.00000000000E+00  0.10107410910E+04  0.10107410910E+04  0.25500000000E-02 0.  1.
          2   -1    0    0  501    0  0.00000000000E+00 -0.00000000000E+00 -0.14954957821E+04  0.14954957821E+04  0.25500000000E-02 0. -1.
    8880023    1    1    2    0    0 -0.38881414823E+03 -0.10205533675E+03  0.82384445083E+03  0.11287699584E+04  0.65864270000E+03 0.  1.
    8880022    1    1    2    0    0  0.38881414823E+03  0.10205533675E+03 -0.13085991419E+04  0.13774669146E+04  0.15294330000E+03 0.  0.
<mgrwt>
<rscale>  0 0.66672299E+03</rscale>
<asrwt>0</asrwt>
<pdfrwt beam="1">  1        2 0.23007627E+00 0.77162293E+03</pdfrwt>
<pdfrwt beam="2">  1       -2 0.15549863E+00 0.77162293E+03</pdfrwt>
<totfact> 0.35566466E+00</totfact>
</mgrwt>
</event>
<event>
 4    2  0.6914693E-007  0.7401123E+03  0.7818608E-02  0.9859620E-01
          2   -1    0    0  501    0  0.00000000000E+00  0.00000000000E+00  0.99131707807E+03  0.99131707807E+03  0.25500000000E-02 0. -1.
         -2   -1    0    0    0  501 -0.00000000000E+00 -0.00000000000E+00 -0.47052833898E+03  0.47052833899E+03  0.25500000000E-02 0.  1.
    8880023    1    1    2    0    0 -0.29012357618E+03 -0.17258137450E+03 -0.91893898673E+02  0.74579535742E+03  0.65864270000E+03 0.  1.
    8880022    1    1    2    0    0  0.29012357618E+03  0.17258137450E+03  0.61268263776E+03  0.71605005964E+03  0.15294330000E+03 0.  0.
<mgrwt>
<rscale>  0 0.62258820E+03</rscale>
<asrwt>0</asrwt>
<pdfrwt beam="1">  1        2 0.15251032E+00 0.74011231E+03</pdfrwt>
<pdfrwt beam="2">  1       -2 0.72388976E-01 0.74011231E+03</pdfrwt>
<totfact> 0.44788649E+01</totfact>
</mgrwt>
</event>
<event>
 4    2  0.6914693E-007  0.1050069E+04  0.7818608E-02  0.9318799E-01
         -2   -1    0    0    0  501 -0.00000000000E+00  0.00000000000E+00  0.67461175847E+03  0.67461175847E+03  0.25500000000E-02 0.  1.
          2   -1    0    0  501    0  0.00000000000E+00 -0.00000000000E+00 -0.18651832328E+04  0.18651832328E+04  0.25500000000E-02 0. -1.
    8880023    1    1    2    0    0 -0.86127816836E+02  0.81327477859E+03 -0.13317123670E+04  0.16959073975E+04  0.65864270000E+03 0.  0.
    8880022    1    1    2    0    0  0.86127816836E+02 -0.81327477859E+03  0.14114089264E+03  0.84388759376E+03  0.15294330000E+03 0.  0.
<mgrwt>
<rscale>  0 0.99070466E+03</rscale>
<asrwt>0</asrwt>
<pdfrwt beam="1">  1        2 0.28695126E+00 0.10500686E+04</pdfrwt>
<pdfrwt beam="2">  1       -2 0.10378643E+00 0.10500686E+04</pdfrwt>
<totfact> 0.59581278E+00</totfact>
</mgrwt>
</event>
<event>
 4    2  0.1180004E-006  0.7219349E+03  0.7818608E-02  0.9916092E-01
          2   -1    0    0  501    0  0.00000000000E+00  0.00000000000E+00  0.15197225778E+04  0.15197225778E+04  0.25500000000E-02 0. -1.
         -2   -1    0    0    0  501 -0.00000000000E+00 -0.00000000000E+00 -0.10942673109E+04  0.10942673109E+04  0.25500000000E-02 0.  1.
    8880023    1    1    2    0    0  0.29560084053E+03  0.88993700428E-01 -0.95319746845E+03  0.11957321962E+04  0.65864270000E+03 0.  1.
    8880022    1    1    2    0    0 -0.29560084053E+03 -0.88993700428E-01  0.13786527353E+04  0.14182576925E+04  0.15294330000E+03 0.  0.
<mgrwt>
<rscale>  0 0.59487684E+03</rscale>
<asrwt>0</asrwt>
<pdfrwt beam="1">  1        2 0.23380347E+00 0.72193495E+03</pdfrwt>
<pdfrwt beam="2">  1       -2 0.16834882E+00 0.72193495E+03</pdfrwt>
<totfact> 0.28002554E+00</totfact>
</mgrwt>
</event>
<event>
 4    2  0.6914693E-007  0.6994956E+03  0.7818608E-02  0.9999300E-01
         -2   -1    0    0    0  501 -0.00000000000E+00  0.00000000000E+00  0.95450870227E+03  0.95450870228E+03  0.25500000000E-02 0.  1.
          2   -1    0    0  501    0  0.00000000000E+00 -0.00000000000E+00 -0.76711704786E+03  0.76711704786E+03  0.25500000000E-02 0. -1.
    8880023    1    1    2    0    0  0.23304434089E+03  0.34266804605E+02  0.79097301562E+03  0.10559035924E+04  0.65864270000E+03 0.  1.
    8880022    1    1    2    0    0 -0.23304434089E+03 -0.34266804605E+02 -0.60358136120E+03  0.66572215775E+03  0.15294330000E+03 0.  0.
<mgrwt>
<rscale>  0 0.55680936E+03</rscale>
<asrwt>0</asrwt>
<pdfrwt beam="1">  1        2 0.11801801E+00 0.69949559E+03</pdfrwt>
<pdfrwt beam="2">  1       -2 0.14684749E+00 0.69949559E+03</pdfrwt>
<totfact> 0.11787250E+01</totfact>
</mgrwt>
</event>
<event>
 4    2  0.6914693E-007  0.7731795E+03  0.7818608E-02  0.9772109E-01
          2   -1    0    0  501    0  0.00000000000E+00  0.00000000000E+00  0.36672572206E+04  0.36672572206E+04  0.25500000000E-02 0. -1.
         -2   -1    0    0    0  501 -0.00000000000E+00 -0.00000000000E+00 -0.31812725834E+03  0.31812725835E+03  0.25500000000E-02 0.  1.
    8880023    1    1    2    0    0  0.27261695362E+03  0.29945994839E+03  0.18926667883E+03  0.79600775503E+03  0.65864270000E+03 0.  1.
    8880022    1    1    2    0    0 -0.27261695362E+03 -0.29945994839E+03  0.31598632834E+04  0.31893767239E+04  0.15294330000E+03 0.  0.
<mgrwt>
<rscale>  0 0.66881026E+03</rscale>
<asrwt>0</asrwt>
<pdfrwt beam="1">  1        2 0.56419347E+00 0.77317946E+03</pdfrwt>
<pdfrwt beam="2">  1       -2 0.48942650E-01 0.77317946E+03</pdfrwt>
<totfact> 0.26535992E+00</totfact>
</mgrwt>
</event>
<event>
 4    2  0.6914693E-007  0.6851876E+03  0.7818608E-02  0.1006529E+00
          2   -1    0    0  501    0  0.00000000000E+00  0.00000000000E+00  0.82636190650E+03  0.82636190651E+03  0.25500000000E-02 0. -1.
         -2   -1    0    0    0  501 -0.00000000000E+00 -0.00000000000E+00 -0.53812278983E+03  0.53812278984E+03  0.25500000000E-02 0.  1.
    8880023    1    1    2    0    0  0.17984899835E+03 -0.57672677720E+02 -0.28481573221E+03  0.74202561111E+03  0.65864270000E+03 0.  1.
    8880022    1    1    2    0    0 -0.17984899835E+03  0.57672677720E+02  0.57305484887E+03  0.62245908524E+03  0.15294330000E+03 0.  0.
<mgrwt>
<rscale>  0 0.52877627E+03</rscale>
<asrwt>0</asrwt>
<pdfrwt beam="1">  1        2 0.12713260E+00 0.68518757E+03</pdfrwt>
<pdfrwt beam="2">  1       -2 0.82788122E-01 0.68518757E+03</pdfrwt>
<totfact> 0.43025861E+01</totfact>
</mgrwt>
</event>
<event>
 4    2  0.6914693E-007  0.6797753E+03  0.7818608E-02  0.1009451E+00
          2   -1    0    0  501    0  0.00000000000E+00  0.00000000000E+00  0.10261689268E+04  0.10261689268E+04  0.25500000000E-02 0. -1.
         -2   -1    0    0    0  501 -0.00000000000E+00 -0.00000000000E+00 -0.50845711425E+03  0.50845711426E+03  0.25500000000E-02 0.  1.
    8880023    1    1    2    0    0  0.11916346779E+03 -0.11867738701E+03 -0.25739309365E+03  0.72687389908E+03  0.65864270000E+03 0.  1.
    8880022    1    1    2    0    0 -0.11916346779E+03  0.11867738701E+03  0.77510490617E+03  0.80775214196E+03  0.15294330000E+03 0.  0.
<mgrwt>
<rscale>  0 0.51693394E+03</rscale>
<asrwt>0</asrwt>
<pdfrwt beam="1">  1        2 0.15787214E+00 0.67977530E+03</pdfrwt>
<pdfrwt beam="2">  1       -2 0.78224173E-01 0.67977530E+03</pdfrwt>
<totfact> 0.36055320E+01</totfact>
</mgrwt>
</event>
<event>
 4    2  0.6914693E-007  0.9711085E+03  0.7818608E-02  0.9420373E-01
          2   -1    0    0  501    0  0.00000000000E+00  0.00000000000E+00  0.17121499338E+04  0.17121499338E+04  0.25500000000E-02 0. -1.
         -2   -1    0    0    0  501 -0.00000000000E+00 -0.00000000000E+00 -0.50434859190E+03  0.50434859191E+03  0.25500000000E-02 0.  1.
    8880023    1    1    2    0    0 -0.71083732294E+03  0.62863837019E+02  0.11184851843E+04  0.14812362659E+04  0.65864270000E+03 0.  0.
    8880022    1    1    2    0    0  0.71083732294E+03 -0.62863837019E+02  0.89316157626E+02  0.73526225982E+03  0.15294330000E+03 0.  0.
<mgrwt>
<rscale>  0 0.90417887E+03</rscale>
<asrwt>0</asrwt>
<pdfrwt beam="1">  1        2 0.26340768E+00 0.97110853E+03</pdfrwt>
<pdfrwt beam="2">  1       -2 0.77592091E-01 0.97110853E+03</pdfrwt>
<totfact> 0.14322560E+01</totfact>
</mgrwt>
</event>
<event>
 4    2  0.6914693E-007  0.1016222E+04  0.7818608E-02  0.9360635E-01
         -2   -1    0    0    0  501 -0.00000000000E+00  0.00000000000E+00  0.96463857495E+03  0.96463857495E+03  0.25500000000E-02 0.  1.
          2   -1    0    0  501    0  0.00000000000E+00 -0.00000000000E+00 -0.13099950159E+04  0.13099950159E+04  0.25500000000E-02 0. -1.
    8880023    1    1    2    0    0  0.71540100959E+02  0.77057106758E+03  0.48783250312E+03  0.11272482041E+04  0.65864270000E+03 0.  0.
    8880022    1    1    2    0    0 -0.71540100959E+02 -0.77057106758E+03 -0.83318894409E+03  0.11473853868E+04  0.15294330000E+03 0.  0.
<mgrwt>
<rscale>  0 0.95387315E+03</rscale>
<asrwt>0</asrwt>
<pdfrwt beam="1">  1        2 0.20153770E+00 0.10162224E+04</pdfrwt>
<pdfrwt beam="2">  1       -2 0.14840593E+00 0.10162224E+04</pdfrwt>
<totfact> 0.49772721E+00</totfact>
</mgrwt>
</event>
<event>
 4    2  0.6914693E-007  0.9892932E+03  0.7818608E-02  0.9395701E-01
         -2   -1    0    0    0  501 -0.00000000000E+00  0.00000000000E+00  0.62273691184E+03  0.62273691185E+03  0.25500000000E-02 0.  1.
          2   -1    0    0  501    0  0.00000000000E+00 -0.00000000000E+00 -0.22347473153E+04  0.22347473153E+04  0.25500000000E-02 0. -1.
    8880023    1    1    2    0    0  0.60256904582E+03 -0.42638176573E+03  0.92605284649E+02  0.99361804036E+03  0.65864270000E+03 0.  0.
    8880022    1    1    2    0    0 -0.60256904582E+03  0.42638176573E+03 -0.17046156881E+04  0.18638661868E+04  0.15294330000E+03 0.  0.
<mgrwt>
<rscale>  0 0.92430289E+03</rscale>
<asrwt>0</asrwt>
<pdfrwt beam="1">  1        2 0.34380728E+00 0.98929322E+03</pdfrwt>
<pdfrwt beam="2">  1       -2 0.95805680E-01 0.98929322E+03</pdfrwt>
<totfact> 0.45359800E+00</totfact>
</mgrwt>
</event>
<event>
 4    2  0.6914693E-007  0.6844664E+03  0.7818608E-02  0.1006902E+00
         -2   -1    0    0    0  501 -0.00000000000E+00  0.00000000000E+00  0.22015248209E+04  0.22015248209E+04  0.25500000000E-02 0.  1.
          2   -1    0    0  501    0  0.00000000000E+00 -0.00000000000E+00 -0.13946527697E+03  0.13946527699E+03  0.25500000000E-02 0. -1.
    8880023    1    1    2    0    0  0.15780293421E+03 -0.98905714118E+02  0.19656850920E+04  0.20814447371E+04  0.65864270000E+03 0.  0.
    8880022    1    1    2    0    0 -0.15780293421E+03  0.98905714118E+02  0.96374451959E+02  0.25954536085E+03  0.15294330000E+03 0.  0.
<mgrwt>
<rscale>  0 0.52724623E+03</rscale>
<asrwt>0</asrwt>
<pdfrwt beam="1">  1        2 0.21456197E-01 0.68446644E+03</pdfrwt>
<pdfrwt beam="2">  1       -2 0.33869611E+00 0.68446644E+03</pdfrwt>
<totfact> 0.50708967E+00</totfact>
</mgrwt>
</event>
<event>
 4    2  0.6914693E-007  0.9818584E+03  0.7818608E-02  0.9405687E-01
         -2   -1    0    0    0  501 -0.00000000000E+00  0.00000000000E+00  0.80533423485E+03  0.80533423486E+03  0.25500000000E-02 0.  1.
          2   -1    0    0  501    0  0.00000000000E+00 -0.00000000000E+00 -0.12947543791E+04  0.12947543791E+04  0.25500000000E-02 0. -1.
    8880023    1    1    2    0    0 -0.67185342542E+03 -0.28080023078E+03  0.28875149911E+03  0.10234370666E+04  0.65864270000E+03 0.  1.
    8880022    1    1    2    0    0  0.67185342542E+03  0.28080023078E+03 -0.77817164339E+03  0.10766515474E+04  0.15294330000E+03 0.  0.
<mgrwt>
<rscale>  0 0.91609152E+03</rscale>
<asrwt>0</asrwt>
<pdfrwt beam="1">  1        2 0.19919298E+00 0.98185844E+03</pdfrwt>
<pdfrwt beam="2">  1       -2 0.12389757E+00 0.98185844E+03</pdfrwt>
<totfact> 0.81174301E+00</totfact>
</mgrwt>
</event>
<event>
 4    2  0.6914693E-007  0.8142473E+03  0.7818608E-02  0.9680797E-01
         -2   -1    0    0    0  501 -0.00000000000E+00  0.00000000000E+00  0.48156718339E+03  0.48156718340E+03  0.25500000000E-02 0.  1.
          2   -1    0    0  501    0  0.00000000000E+00 -0.00000000000E+00 -0.21678994931E+04  0.21678994931E+04  0.25500000000E-02 0. -1.
    8880023    1    1    2    0    0 -0.68494922222E+02  0.47381096116E+03  0.75134577912E+02  0.81770642186E+03  0.65864270000E+03 0.  1.
    8880022    1    1    2    0    0  0.68494922222E+02 -0.47381096116E+03 -0.17614668877E+04  0.18317602547E+04  0.15294330000E+03 0.  0.
<mgrwt>
<rscale>  0 0.72171728E+03</rscale>
<asrwt>0</asrwt>
<pdfrwt beam="1">  1        2 0.33352299E+00 0.81424725E+03</pdfrwt>
<pdfrwt beam="2">  1       -2 0.74087260E-01 0.81424725E+03</pdfrwt>
<totfact> 0.90939140E+00</totfact>
</mgrwt>
</event>
<event>
 4    2  0.6914693E-007  0.1114226E+04  0.7818608E-02  0.9245380E-01
         -2   -1    0    0    0  501 -0.00000000000E+00  0.00000000000E+00  0.79353478920E+03  0.79353478920E+03  0.25500000000E-02 0.  1.
          2   -1    0    0  501    0  0.00000000000E+00 -0.00000000000E+00 -0.15482924854E+04  0.15482924854E+04  0.25500000000E-02 0. -1.
    8880023    1    1    2    0    0 -0.32246493343E+03  0.83887204090E+03  0.64591699368E+02  0.11160968722E+04  0.65864270000E+03 0.  1.
    8880022    1    1    2    0    0  0.32246493343E+03 -0.83887204090E+03 -0.81934939559E+03  0.12257304024E+04  0.15294330000E+03 0.  0.
<mgrwt>
<rscale>  0 0.10597063E+04</rscale>
<asrwt>0</asrwt>
<pdfrwt beam="1">  1        2 0.23819884E+00 0.11142263E+04</pdfrwt>
<pdfrwt beam="2">  1       -2 0.12208228E+00 0.11142263E+04</pdfrwt>
<totfact> 0.59595524E+00</totfact>
</mgrwt>
</event>
<event>
 4    2  0.6914693E-007  0.7942985E+03  0.7818608E-02  0.9723262E-01
          2   -1    0    0  501    0  0.00000000000E+00  0.00000000000E+00  0.57230783844E+03  0.57230783844E+03  0.25500000000E-02 0. -1.
         -2   -1    0    0    0  501 -0.00000000000E+00 -0.00000000000E+00 -0.10647816588E+04  0.10647816588E+04  0.25500000000E-02 0.  1.
    8880023    1    1    2    0    0 -0.43537433104E+03 -0.86885169164E+02 -0.75775350786E+03  0.10977706617E+04  0.65864270000E+03 0.  1.
    8880022    1    1    2    0    0  0.43537433104E+03  0.86885169164E+02  0.26527968751E+03  0.53931883554E+03  0.15294330000E+03 0.  0.
<mgrwt>
<rscale>  0 0.69648501E+03</rscale>
<asrwt>0</asrwt>
<pdfrwt beam="1">  1        2 0.88047360E-01 0.79429846E+03</pdfrwt>
<pdfrwt beam="2">  1       -2 0.16381256E+00 0.79429846E+03</pdfrwt>
<totfact> 0.12535463E+01</totfact>
</mgrwt>
</event>
<event>
 4    2  0.6914693E-007  0.8933444E+03  0.7818608E-02  0.9536802E-01
         -2   -1    0    0    0  501 -0.00000000000E+00  0.00000000000E+00  0.25950943354E+04  0.25950943354E+04  0.25500000000E-02 0.  1.
          2   -1    0    0  501    0  0.00000000000E+00 -0.00000000000E+00 -0.38423193832E+03  0.38423193833E+03  0.25500000000E-02 0. -1.
    8880023    1    1    2    0    0  0.46859803929E+03 -0.38035501943E+03  0.21800085495E+04  0.23559502426E+04  0.65864270000E+03 0.  0.
    8880022    1    1    2    0    0 -0.46859803929E+03  0.38035501943E+03  0.30853847503E+02  0.62337603110E+03  0.15294330000E+03 0.  0.
<mgrwt>
<rscale>  0 0.81624132E+03</rscale>
<asrwt>0</asrwt>
<pdfrwt beam="1">  1        2 0.59112605E-01 0.89334443E+03</pdfrwt>
<pdfrwt beam="2">  1       -2 0.39924529E+00 0.89334443E+03</pdfrwt>
<totfact> 0.64803105E-01</totfact>
</mgrwt>
</event>
<event>
 4    2  0.6914693E-007  0.6650734E+03  0.7818608E-02  0.1019472E+00
         -2   -1    0    0    0  501 -0.00000000000E+00  0.00000000000E+00  0.28785721978E+03  0.28785721979E+03  0.25500000000E-02 0.  1.
          2   -1    0    0  501    0  0.00000000000E+00 -0.00000000000E+00 -0.69500626911E+03  0.69500626912E+03  0.25500000000E-02 0. -1.
    8880023    1    1    2    0    0 -0.88322320209E+02 -0.26676083960E+02 -0.17087868340E+03  0.68667472387E+03  0.65864270000E+03 0.  1.
    8880022    1    1    2    0    0  0.88322320209E+02  0.26676083960E+02 -0.23627036593E+03  0.29618876503E+03  0.15294330000E+03 0. -1.
<mgrwt>
<rscale>  0 0.47877670E+03</rscale>
<asrwt>0</asrwt>
<pdfrwt beam="1">  1        2 0.10692404E+00 0.66507342E+03</pdfrwt>
<pdfrwt beam="2">  1       -2 0.44285726E-01 0.66507342E+03</pdfrwt>
<totfact> 0.20267478E+02</totfact>
</mgrwt>
</event>
<event>
 4    2  0.6914693E-007  0.8732988E+03  0.7818608E-02  0.9570332E-01
          2   -1    0    0  501    0  0.00000000000E+00  0.00000000000E+00  0.32905698356E+04  0.32905698356E+04  0.25500000000E-02 0. -1.
         -2   -1    0    0    0  501 -0.00000000000E+00 -0.00000000000E+00 -0.22563326049E+03  0.22563326050E+03  0.25500000000E-02 0.  1.
    8880023    1    1    2    0    0  0.56317993021E+03 -0.10802253974E+03  0.83359785064E+03  0.12072845919E+04  0.65864270000E+03 0.  1.
    8880022    1    1    2    0    0 -0.56317993021E+03  0.10802253974E+03  0.22313387245E+04  0.23089185042E+04  0.15294330000E+03 0.  0.
<mgrwt>
<rscale>  0 0.79291339E+03</rscale>
<asrwt>0</asrwt>
<pdfrwt beam="1">  1        2 0.50624144E+00 0.87329875E+03</pdfrwt>
<pdfrwt beam="2">  1       -2 0.34712814E-01 0.87329875E+03</pdfrwt>
<totfact> 0.92347170E+00</totfact>
</mgrwt>
</event>
<event>
 4    2  0.6914693E-007  0.6983502E+03  0.7818608E-02  0.1000411E+00
         -2   -1    0    0    0  501 -0.00000000000E+00  0.00000000000E+00  0.12875146793E+03  0.12875146795E+03  0.25500000000E-02 0.  1.
          2   -1    0    0  501    0  0.00000000000E+00 -0.00000000000E+00 -0.20525086241E+04  0.20525086241E+04  0.25500000000E-02 0. -1.
    8880023    1    1    2    0    0 -0.12726741490E+03 -0.19412843818E+03 -0.10234093795E+04  0.12389753063E+04  0.65864270000E+03 0.  1.
    8880022    1    1    2    0    0  0.12726741490E+03  0.19412843818E+03 -0.90034777670E+03  0.94228478573E+03  0.15294330000E+03 0.  0.
<mgrwt>
<rscale>  0 0.55470169E+03</rscale>
<asrwt>0</asrwt>
<pdfrwt beam="1">  1        2 0.31577053E+00 0.69835024E+03</pdfrwt>
<pdfrwt beam="2">  1       -2 0.19807920E-01 0.69835024E+03</pdfrwt>
<totfact> 0.13983789E+02</totfact>
</mgrwt>
</event>
<event>
 4    2  0.6914693E-007  0.6957278E+03  0.7818608E-02  0.1001541E+00
          2   -1    0    0  501    0  0.00000000000E+00  0.00000000000E+00  0.40954201613E+04  0.40954201613E+04  0.25500000000E-02 0. -1.
         -2   -1    0    0    0  501 -0.00000000000E+00 -0.00000000000E+00 -0.23917824495E+03  0.23917824496E+03  0.25500000000E-02 0.  1.
    8880023    1    1    2    0    0  0.20043534132E+03 -0.10026301755E+03  0.28302166400E+03  0.75109151726E+03  0.65864270000E+03 0.  1.
    8880022    1    1    2    0    0 -0.20043534132E+03  0.10026301755E+03  0.35732202523E+04  0.35835068890E+04  0.15294330000E+03 0.  0.
<mgrwt>
<rscale>  0 0.54979782E+03</rscale>
<asrwt>0</asrwt>
<pdfrwt beam="1">  1        2 0.63006466E+00 0.69572782E+03</pdfrwt>
<pdfrwt beam="2">  1       -2 0.36796652E-01 0.69572782E+03</pdfrwt>
<totfact> 0.22416086E+00</totfact>
</mgrwt>
</event>
<event>
 4    2  0.6914693E-007  0.7154083E+03  0.7818608E-02  0.9938441E-01
          2   -1    0    0  501    0  0.00000000000E+00  0.00000000000E+00  0.11180570041E+04  0.11180570041E+04  0.25500000000E-02 0. -1.
         -2   -1    0    0    0  501 -0.00000000000E+00 -0.00000000000E+00 -0.31526179164E+03  0.31526179165E+03  0.25500000000E-02 0.  1.
    8880023    1    1    2    0    0  0.21671328961E+03  0.17616500805E+03  0.18601683086E+03  0.73919633899E+03  0.65864270000E+03 0.  0.
    8880022    1    1    2    0    0 -0.21671328961E+03 -0.17616500805E+03  0.61677838165E+03  0.69412245680E+03  0.15294330000E+03 0.  0.
<mgrwt>
<rscale>  0 0.58433927E+03</rscale>
<asrwt>0</asrwt>
<pdfrwt beam="1">  1        2 0.17200877E+00 0.71540825E+03</pdfrwt>
<pdfrwt beam="2">  1       -2 0.48501813E-01 0.71540825E+03</pdfrwt>
<totfact> 0.87030117E+01</totfact>
</mgrwt>
</event>
<event>
 4    2  0.6914693E-007  0.1007897E+04  0.7818608E-02  0.9371297E-01
          2   -1    0    0  501    0  0.00000000000E+00  0.00000000000E+00  0.69835401057E+03  0.69835401057E+03  0.25500000000E-02 0. -1.
         -2   -1    0    0    0  501 -0.00000000000E+00 -0.00000000000E+00 -0.15254136107E+04  0.15254136107E+04  0.25500000000E-02 0.  1.
    8880023    1    1    2    0    0  0.24773139393E+03 -0.72157904641E+03 -0.10074130188E+04  0.14250397750E+04  0.65864270000E+03 0.  0.
    8880022    1    1    2    0    0 -0.24773139393E+03  0.72157904641E+03  0.18035341863E+03  0.79872784626E+03  0.15294330000E+03 0.  0.
<mgrwt>
<rscale>  0 0.94475905E+03</rscale>
<asrwt>0</asrwt>
<pdfrwt beam="1">  1        2 0.10743908E+00 0.10078975E+04</pdfrwt>
<pdfrwt beam="2">  1       -2 0.23467902E+00 0.10078975E+04</pdfrwt>
<totfact> 0.32703967E+00</totfact>
</mgrwt>
</event>
<event>
 4    2  0.6914693E-007  0.7936552E+03  0.7818608E-02  0.9724687E-01
          2   -1    0    0  501    0  0.00000000000E+00  0.00000000000E+00  0.28560680438E+04  0.28560680438E+04  0.25500000000E-02 0. -1.
         -2   -1    0    0    0  501 -0.00000000000E+00 -0.00000000000E+00 -0.82516578481E+03  0.82516578481E+03  0.25500000000E-02 0.  1.
    8880023    1    1    2    0    0 -0.61258550345E+02 -0.43854955601E+03 -0.60881250851E+03  0.10002705633E+04  0.65864270000E+03 0.  1.
    8880022    1    1    2    0    0  0.61258550345E+02  0.43854955601E+03  0.26397147675E+04  0.26809632653E+04  0.15294330000E+03 0.  0.
<mgrwt>
<rscale>  0 0.69565799E+03</rscale>
<asrwt>0</asrwt>
<pdfrwt beam="1">  1        2 0.43939508E+00 0.79365517E+03</pdfrwt>
<pdfrwt beam="2">  1       -2 0.12694858E+00 0.79365517E+03</pdfrwt>
<totfact> 0.10384665E+00</totfact>
</mgrwt>
</event>
<event>
 4    2  0.6914693E-007  0.8541366E+03  0.7818608E-02  0.9604080E-01
          2   -1    0    0  501    0  0.00000000000E+00  0.00000000000E+00  0.30805636754E+04  0.30805636754E+04  0.25500000000E-02 0. -1.
         -2   -1    0    0    0  501 -0.00000000000E+00 -0.00000000000E+00 -0.19806744148E+03  0.19806744150E+03  0.25500000000E-02 0.  1.
    8880023    1    1    2    0    0  0.20576965521E+03 -0.50338653043E+03  0.10098352628E+04  0.13226173348E+04  0.65864270000E+03 0.  1.
    8880022    1    1    2    0    0 -0.20576965521E+03  0.50338653043E+03  0.18726609712E+04  0.19560137821E+04  0.15294330000E+03 0.  0.
<mgrwt>
<rscale>  0 0.77026754E+03</rscale>
<asrwt>0</asrwt>
<pdfrwt beam="1">  1        2 0.47393289E+00 0.85413661E+03</pdfrwt>
<pdfrwt beam="2">  1       -2 0.30471913E-01 0.85413661E+03</pdfrwt>
<totfact> 0.16115764E+01</totfact>
</mgrwt>
</event>
<event>
 4    2  0.6914693E-007  0.8352405E+03  0.7818608E-02  0.9639221E-01
          2   -1    0    0  501    0  0.00000000000E+00  0.00000000000E+00  0.12899633921E+04  0.12899633921E+04  0.25500000000E-02 0. -1.
         -2   -1    0    0    0  501 -0.00000000000E+00 -0.00000000000E+00 -0.52844030033E+03  0.52844030034E+03  0.25500000000E-02 0.  1.
    8880023    1    1    2    0    0  0.51333996073E+03  0.17280750541E+02 -0.60153555203E+02  0.83740384289E+03  0.65864270000E+03 0.  1.
    8880022    1    1    2    0    0 -0.51333996073E+03 -0.17280750541E+02  0.82167664697E+03  0.98099984954E+03  0.15294330000E+03 0.  0.
<mgrwt>
<rscale>  0 0.74753800E+03</rscale>
<asrwt>0</asrwt>
<pdfrwt beam="1">  1        2 0.19845591E+00 0.83524053E+03</pdfrwt>
<pdfrwt beam="2">  1       -2 0.81298508E-01 0.83524053E+03</pdfrwt>
<totfact> 0.22584088E+01</totfact>
</mgrwt>
</event>
<event>
 4    2  0.6914693E-007  0.9352025E+03  0.7818608E-02  0.9471732E-01
          2   -1    0    0  501    0  0.00000000000E+00  0.00000000000E+00  0.12710108647E+04  0.12710108647E+04  0.25500000000E-02 0. -1.
         -2   -1    0    0    0  501 -0.00000000000E+00 -0.00000000000E+00 -0.73074162522E+03  0.73074162522E+03  0.25500000000E-02 0.  1.
    8880023    1    1    2    0    0  0.52245682790E+03  0.40967356373E+03 -0.24038498552E+03  0.96560277204E+03  0.65864270000E+03 0.  1.
    8880022    1    1    2    0    0 -0.52245682790E+03 -0.40967356373E+03  0.78065422499E+03  0.10361497179E+04  0.15294330000E+03 0.  0.
<mgrwt>
<rscale>  0 0.86400383E+03</rscale>
<asrwt>0</asrwt>
<pdfrwt beam="1">  1        2 0.19554013E+00 0.93520253E+03</pdfrwt>
<pdfrwt beam="2">  1       -2 0.11242179E+00 0.93520253E+03</pdfrwt>
<totfact> 0.10709429E+01</totfact>
</mgrwt>
</event>
<event>
 4    2  0.6914693E-007  0.8515143E+03  0.7818608E-02  0.9608840E-01
         -2   -1    0    0    0  501 -0.00000000000E+00  0.00000000000E+00  0.13127293233E+04  0.13127293233E+04  0.25500000000E-02 0.  1.
          2   -1    0    0  501    0  0.00000000000E+00 -0.00000000000E+00 -0.41202968586E+03  0.41202968586E+03  0.25500000000E-02 0. -1.
    8880023    1    1    2    0    0  0.19943509715E+03 -0.50148984364E+03  0.77170156757E+03  0.11491735887E+04  0.65864270000E+03 0.  1.
    8880022    1    1    2    0    0 -0.19943509715E+03  0.50148984364E+03  0.12899806988E+03  0.57558542050E+03  0.15294330000E+03 0.  0.
<mgrwt>
<rscale>  0 0.76713858E+03</rscale>
<asrwt>0</asrwt>
<pdfrwt beam="1">  1        2 0.63389182E-01 0.85151431E+03</pdfrwt>
<pdfrwt beam="2">  1       -2 0.20195836E+00 0.85151431E+03</pdfrwt>
<totfact> 0.10018677E+01</totfact>
</mgrwt>
</event>
<event>
 4    2  0.6914693E-007  0.1201001E+04  0.7818608E-02  0.9156150E-01
          2   -1    0    0  501    0  0.00000000000E+00  0.00000000000E+00  0.18136907399E+04  0.18136907399E+04  0.25500000000E-02 0. -1.
         -2   -1    0    0    0  501 -0.00000000000E+00 -0.00000000000E+00 -0.12059068586E+04  0.12059068586E+04  0.25500000000E-02 0.  1.
    8880023    1    1    2    0    0 -0.94540185080E+03 -0.33883412029E+03 -0.67938636264E+03  0.13798439247E+04  0.65864270000E+03 0.  0.
    8880022    1    1    2    0    0  0.94540185080E+03  0.33883412029E+03  0.12871702440E+04  0.16397536738E+04  0.15294330000E+03 0.  0.
<mgrwt>
<rscale>  0 0.11517725E+04</rscale>
<asrwt>0</asrwt>
<pdfrwt beam="1">  1        2 0.27902934E+00 0.12010010E+04</pdfrwt>
<pdfrwt beam="2">  1       -2 0.18552413E+00 0.12010010E+04</pdfrwt>
<totfact> 0.13676048E+00</totfact>
</mgrwt>
</event>
<event>
 4    2  0.6914693E-007  0.7264554E+03  0.7818608E-02  0.9901319E-01
         -2   -1    0    0    0  501 -0.00000000000E+00  0.00000000000E+00  0.11398246097E+04  0.11398246097E+04  0.25500000000E-02 0.  1.
          2   -1    0    0  501    0  0.00000000000E+00 -0.00000000000E+00 -0.35048643302E+03  0.35048643303E+03  0.25500000000E-02 0. -1.
    8880023    1    1    2    0    0 -0.56085942544E+01 -0.30642412585E+03  0.87498262574E+03  0.11372475557E+04  0.65864270000E+03 0.  0.
    8880022    1    1    2    0    0  0.56085942544E+01  0.30642412585E+03 -0.85644449063E+02  0.35306348707E+03  0.15294330000E+03 0.  0.
<mgrwt>
<rscale>  0 0.60197393E+03</rscale>
<asrwt>0</asrwt>
<pdfrwt beam="1">  1        2 0.53920989E-01 0.72645537E+03</pdfrwt>
<pdfrwt beam="2">  1       -2 0.17535763E+00 0.72645537E+03</pdfrwt>
<totfact> 0.18326405E+01</totfact>
</mgrwt>
</event>
<event>
 4    2  0.6914693E-007  0.7956951E+03  0.7818608E-02  0.9720183E-01
         -2   -1    0    0    0  501 -0.00000000000E+00  0.00000000000E+00  0.44646619688E+03  0.44646619689E+03  0.25500000000E-02 0.  1.
          2   -1    0    0  501    0  0.00000000000E+00 -0.00000000000E+00 -0.28191677532E+04  0.28191677532E+04  0.25500000000E-02 0. -1.
    8880023    1    1    2    0    0 -0.14925005453E+03 -0.42076709425E+03  0.50126578391E+02  0.79727247946E+03  0.65864270000E+03 0.  1.
    8880022    1    1    2    0    0  0.14925005453E+03  0.42076709425E+03 -0.24228281347E+04  0.24683614706E+04  0.15294330000E+03 0.  0.
<mgrwt>
<rscale>  0 0.69827745E+03</rscale>
<asrwt>0</asrwt>
<pdfrwt beam="1">  1        2 0.43371811E+00 0.79569513E+03</pdfrwt>
<pdfrwt beam="2">  1       -2 0.68687109E-01 0.79569513E+03</pdfrwt>
<totfact> 0.45850803E+00</totfact>
</mgrwt>
</event>
<event>
 4    2  0.6914693E-007  0.6621941E+03  0.7818608E-02  0.1022013E+00
         -2   -1    0    0    0  501 -0.00000000000E+00  0.00000000000E+00  0.22122587027E+03  0.22122587028E+03  0.25500000000E-02 0.  1.
          2   -1    0    0  501    0  0.00000000000E+00 -0.00000000000E+00 -0.17869915070E+04  0.17869915070E+04  0.25500000000E-02 0. -1.
    8880023    1    1    2    0    0 -0.51222520534E+02  0.45465113859E+02 -0.29240919382E+03  0.72388132044E+03  0.65864270000E+03 0.  1.
    8880022    1    1    2    0    0  0.51222520534E+02 -0.45465113859E+02 -0.12733564429E+04  0.12843360568E+04  0.15294330000E+03 0.  0.
<mgrwt>
<rscale>  0 0.46967063E+03</rscale>
<asrwt>0</asrwt>
<pdfrwt beam="1">  1        2 0.27492176E+00 0.66219410E+03</pdfrwt>
<pdfrwt beam="2">  1       -2 0.34034750E-01 0.66219410E+03</pdfrwt>
<totfact> 0.73329708E+01</totfact>
</mgrwt>
</event>
<event>
 4    2  0.6914693E-007  0.8400798E+03  0.7818608E-02  0.9630030E-01
         -2   -1    0    0    0  501 -0.00000000000E+00  0.00000000000E+00  0.62191707702E+03  0.62191707703E+03  0.25500000000E-02 0.  1.
          2   -1    0    0  501    0  0.00000000000E+00 -0.00000000000E+00 -0.10013294958E+04  0.10013294958E+04  0.25500000000E-02 0. -1.
    8880023    1    1    2    0    0 -0.44249642464E+03  0.27589999798E+03 -0.60458283253E+03  0.10350142522E+04  0.65864270000E+03 0.  0.
    8880022    1    1    2    0    0  0.44249642464E+03 -0.27589999798E+03  0.22517041377E+03  0.58823232057E+03  0.15294330000E+03 0.  0.
<mgrwt>
<rscale>  0 0.75340102E+03</rscale>
<asrwt>0</asrwt>
<pdfrwt beam="1">  1        2 0.15405069E+00 0.84007982E+03</pdfrwt>
<pdfrwt beam="2">  1       -2 0.95679550E-01 0.84007982E+03</pdfrwt>
<totfact> 0.23218133E+01</totfact>
</mgrwt>
</event>
<event>
 4    2  0.6914693E-007  0.7124885E+03  0.7818608E-02  0.9948874E-01
         -2   -1    0    0    0  501 -0.00000000000E+00  0.00000000000E+00  0.57137478024E+03  0.57137478024E+03  0.25500000000E-02 0.  1.
          2   -1    0    0  501    0  0.00000000000E+00 -0.00000000000E+00 -0.98836548750E+03  0.98836548750E+03  0.25500000000E-02 0. -1.
    8880023    1    1    2    0    0  0.23162852532E+03  0.14204901865E+03  0.30368160811E+03  0.77450785845E+03  0.65864270000E+03 0.  1.
    8880022    1    1    2    0    0 -0.23162852532E+03 -0.14204901865E+03 -0.72067231537E+03  0.78523240929E+03  0.15294330000E+03 0.  0.
<mgrwt>
<rscale>  0 0.57950023E+03</rscale>
<asrwt>0</asrwt>
<pdfrwt beam="1">  1        2 0.15205623E+00 0.71248853E+03</pdfrwt>
<pdfrwt beam="2">  1       -2 0.87903812E-01 0.71248853E+03</pdfrwt>
<totfact> 0.29161386E+01</totfact>
</mgrwt>
</event>
<event>
 4    2  0.6914693E-007  0.7511040E+03  0.7818608E-02  0.9828708E-01
         -2   -1    0    0    0  501 -0.00000000000E+00  0.00000000000E+00  0.56010324457E+03  0.56010324458E+03  0.25500000000E-02 0.  1.
          2   -1    0    0  501    0  0.00000000000E+00 -0.00000000000E+00 -0.12459344190E+04  0.12459344190E+04  0.25500000000E-02 0. -1.
    8880023    1    1    2    0    0 -0.31063296036E+03 -0.18399489157E+03  0.24981333111E+03  0.79155787082E+03  0.65864270000E+03 0. -1.
    8880022    1    1    2    0    0  0.31063296036E+03  0.18399489157E+03 -0.93564450558E+03  0.10144797928E+04  0.15294330000E+03 0.  0.
<mgrwt>
<rscale>  0 0.63844414E+03</rscale>
<asrwt>0</asrwt>
<pdfrwt beam="1">  1        2 0.19168222E+00 0.75110396E+03</pdfrwt>
<pdfrwt beam="2">  1       -2 0.86169730E-01 0.75110396E+03</pdfrwt>
<totfact> 0.21179030E+01</totfact>
</mgrwt>
</event>
<event>
 4    2  0.6914693E-007  0.6803457E+03  0.7818608E-02  0.1009129E+00
         -2   -1    0    0    0  501 -0.00000000000E+00  0.00000000000E+00  0.37439851675E+03  0.37439851676E+03  0.25500000000E-02 0.  1.
          2   -1    0    0  501    0  0.00000000000E+00 -0.00000000000E+00 -0.99878085657E+03  0.99878085657E+03  0.25500000000E-02 0. -1.
    8880023    1    1    2    0    0 -0.16271424587E+03  0.50834231666E+02  0.28855483957E+02  0.68095733356E+03  0.65864270000E+03 0.  1.
    8880022    1    1    2    0    0  0.16271424587E+03 -0.50834231666E+02 -0.65323782377E+03  0.69222203977E+03  0.15294330000E+03 0.  0.
<mgrwt>
<rscale>  0 0.51822358E+03</rscale>
<asrwt>0</asrwt>
<pdfrwt beam="1">  1        2 0.15365859E+00 0.68034569E+03</pdfrwt>
<pdfrwt beam="2">  1       -2 0.57599772E-01 0.68034569E+03</pdfrwt>
<totfact> 0.72693096E+01</totfact>
</mgrwt>
</event>
<event>
 4    2  0.6914693E-007  0.8322946E+03  0.7818608E-02  0.9644884E-01
          2   -1    0    0  501    0  0.00000000000E+00  0.00000000000E+00  0.76366828088E+03  0.76366828089E+03  0.25500000000E-02 0. -1.
         -2   -1    0    0    0  501 -0.00000000000E+00 -0.00000000000E+00 -0.82480619066E+03  0.82480619066E+03  0.25500000000E-02 0.  1.
    8880023    1    1    2    0    0 -0.15527245309E+03  0.48455596637E+03 -0.43470171005E+03  0.93897806269E+03  0.65864270000E+03 0.  0.
    8880022    1    1    2    0    0  0.15527245309E+03 -0.48455596637E+03  0.37356380027E+03  0.64949640886E+03  0.15294330000E+03 0.  0.
<mgrwt>
<rscale>  0 0.74395354E+03</rscale>
<asrwt>0</asrwt>
<pdfrwt beam="1">  1        2 0.11748743E+00 0.83229455E+03</pdfrwt>
<pdfrwt beam="2">  1       -2 0.12689326E+00 0.83229455E+03</pdfrwt>
<totfact> 0.17023992E+01</totfact>
</mgrwt>
</event>
<event>
 4    2  0.6914693E-007  0.7055959E+03  0.7818608E-02  0.9974734E-01
         -2   -1    0    0    0  501 -0.00000000000E+00  0.00000000000E+00  0.61783485410E+03  0.61783485411E+03  0.25500000000E-02 0.  1.
          2   -1    0    0  501    0  0.00000000000E+00 -0.00000000000E+00 -0.99493749561E+03  0.99493749561E+03  0.25500000000E-02 0. -1.
    8880023    1    1    2    0    0 -0.19803947167E+03 -0.15759360006E+03 -0.81901732365E+03  0.10810434579E+04  0.65864270000E+03 0.  0.
    8880022    1    1    2    0    0  0.19803947167E+03  0.15759360006E+03  0.44191468214E+03  0.53172889184E+03  0.15294330000E+03 0.  1.
<mgrwt>
<rscale>  0 0.56772128E+03</rscale>
<asrwt>0</asrwt>
<pdfrwt beam="1">  1        2 0.15306731E+00 0.70559591E+03</pdfrwt>
<pdfrwt beam="2">  1       -2 0.95051516E-01 0.70559591E+03</pdfrwt>
<totfact> 0.24118711E+01</totfact>
</mgrwt>
</event>
<event>
 4    2  0.6914693E-007  0.8366022E+03  0.7818608E-02  0.9636621E-01
         -2   -1    0    0    0  501 -0.00000000000E+00  0.00000000000E+00  0.49347061177E+03  0.49347061177E+03  0.25500000000E-02 0.  1.
          2   -1    0    0  501    0  0.00000000000E+00 -0.00000000000E+00 -0.21568214857E+04  0.21568214857E+04  0.25500000000E-02 0. -1.
    8880023    1    1    2    0    0  0.31952767399E+03 -0.40496299275E+03  0.65975978492E+02  0.83919961627E+03  0.65864270000E+03 0.  0.
    8880022    1    1    2    0    0 -0.31952767399E+03  0.40496299275E+03 -0.17293268524E+04  0.18110924812E+04  0.15294330000E+03 0.  0.
<mgrwt>
<rscale>  0 0.74919077E+03</rscale>
<asrwt>0</asrwt>
<pdfrwt beam="1">  1        2 0.33181869E+00 0.83660216E+03</pdfrwt>
<pdfrwt beam="2">  1       -2 0.75918557E-01 0.83660216E+03</pdfrwt>
<totfact> 0.87081002E+00</totfact>
</mgrwt>
</event>
<event>
 4    2  0.6914693E-007  0.8094867E+03  0.7818608E-02  0.9690647E-01
          2   -1    0    0  501    0  0.00000000000E+00  0.00000000000E+00  0.14157634000E+04  0.14157634000E+04  0.25500000000E-02 0. -1.
         -2   -1    0    0    0  501 -0.00000000000E+00 -0.00000000000E+00 -0.67708103910E+03  0.67708103910E+03  0.25500000000E-02 0.  1.
    8880023    1    1    2    0    0  0.16150681812E+03  0.44201138306E+03 -0.36147550275E+03  0.88652877021E+03  0.65864270000E+03 0.  1.
    8880022    1    1    2    0    0 -0.16150681812E+03 -0.44201138306E+03  0.11001578637E+04  0.12063156689E+04  0.15294330000E+03 0.  0.
<mgrwt>
<rscale>  0 0.71576398E+03</rscale>
<asrwt>0</asrwt>
<pdfrwt beam="1">  1        2 0.21780975E+00 0.80948670E+03</pdfrwt>
<pdfrwt beam="2">  1       -2 0.10416631E+00 0.80948670E+03</pdfrwt>
<totfact> 0.10783861E+01</totfact>
</mgrwt>
</event>
<event>
 4    2  0.6914693E-007  0.7723471E+03  0.7818608E-02  0.9774131E-01
          2   -1    0    0  501    0  0.00000000000E+00  0.00000000000E+00  0.16702279804E+04  0.16702279804E+04  0.25500000000E-02 0. -1.
         -2   -1    0    0    0  501 -0.00000000000E+00 -0.00000000000E+00 -0.36233574127E+03  0.36233574128E+03  0.25500000000E-02 0.  1.
    8880023    1    1    2    0    0  0.41660868064E+02  0.40121583614E+03  0.13657329498E+03  0.78432916959E+03  0.65864270000E+03 0.  0.
    8880022    1    1    2    0    0 -0.41660868064E+02 -0.40121583614E+03  0.11713189442E+04  0.12482345521E+04  0.15294330000E+03 0.  0.
<mgrwt>
<rscale>  0 0.66769494E+03</rscale>
<asrwt>0</asrwt>
<pdfrwt beam="1">  1        2 0.25695815E+00 0.77234706E+03</pdfrwt>
<pdfrwt beam="2">  1       -2 0.55743961E-01 0.77234706E+03</pdfrwt>
<totfact> 0.31522061E+01</totfact>
</mgrwt>
</event>
<event>
 4    2  0.6914693E-007  0.8502118E+03  0.7818608E-02  0.9611218E-01
         -2   -1    0    0    0  501 -0.00000000000E+00  0.00000000000E+00  0.27938805571E+03  0.27938805573E+03  0.25500000000E-02 0.  1.
          2   -1    0    0  501    0  0.00000000000E+00 -0.00000000000E+00 -0.20685547983E+04  0.20685547983E+04  0.25500000000E-02 0. -1.
    8880023    1    1    2    0    0  0.42863550617E+03 -0.32453268550E+03 -0.14860604877E+04  0.17120852317E+04  0.65864270000E+03 0. -1.
    8880022    1    1    2    0    0 -0.42863550617E+03  0.32453268550E+03 -0.30310625481E+03  0.63585762230E+03  0.15294330000E+03 0.  0.
<mgrwt>
<rscale>  0 0.76558150E+03</rscale>
<asrwt>0</asrwt>
<pdfrwt beam="1">  1        2 0.31823919E+00 0.85021178E+03</pdfrwt>
<pdfrwt beam="2">  1       -2 0.42982779E-01 0.85021178E+03</pdfrwt>
<totfact> 0.32055837E+01</totfact>
</mgrwt>
</event>
<event>
 4    2  0.6914693E-007  0.1385780E+04  0.7818608E-02  0.8994811E-01
          2   -1    0    0  501    0  0.00000000000E+00  0.00000000000E+00  0.19214003585E+04  0.19214003585E+04  0.25500000000E-02 0. -1.
         -2   -1    0    0    0  501 -0.00000000000E+00 -0.00000000000E+00 -0.17054638881E+04  0.17054638881E+04  0.25500000000E-02 0.  1.
    8880023    1    1    2    0    0 -0.30251164129E+03  0.11811278908E+04 -0.11418395682E+04  0.17956013459E+04  0.65864270000E+03 0.  0.
    8880022    1    1    2    0    0  0.30251164129E+03 -0.11811278908E+04  0.13577760387E+04  0.18312629008E+04  0.15294330000E+03 0.  0.
<mgrwt>
<rscale>  0 0.13447505E+04</rscale>
<asrwt>0</asrwt>
<pdfrwt beam="1">  1        2 0.29560006E+00 0.13857801E+04</pdfrwt>
<pdfrwt beam="2">  1       -2 0.26237906E+00 0.13857801E+04</pdfrwt>
<totfact> 0.37879664E-01</totfact>
</mgrwt>
</event>
<event>
 4    2  0.6914693E-007  0.6612550E+03  0.7818608E-02  0.1022906E+00
          2   -1    0    0  501    0  0.00000000000E+00  0.00000000000E+00  0.10250440405E+04  0.10250440405E+04  0.25500000000E-02 0. -1.
         -2   -1    0    0    0  501 -0.00000000000E+00 -0.00000000000E+00 -0.22970889547E+03  0.22970889548E+03  0.25500000000E-02 0.  1.
    8880023    1    1    2    0    0 -0.58718963055E+02  0.15042474101E+00  0.28732765372E+03  0.72098219541E+03  0.65864270000E+03 0.  1.
    8880022    1    1    2    0    0  0.58718963055E+02 -0.15042474101E+00  0.50800749131E+03  0.53377074057E+03  0.15294330000E+03 0.  0.
<mgrwt>
<rscale>  0 0.46652369E+03</rscale>
<asrwt>0</asrwt>
<pdfrwt beam="1">  1        2 0.15769909E+00 0.66125498E+03</pdfrwt>
<pdfrwt beam="2">  1       -2 0.35339829E-01 0.66125498E+03</pdfrwt>
<totfact> 0.18557020E+02</totfact>
</mgrwt>
</event>
<event>
 4    2  0.6914693E-007  0.6591415E+03  0.7818608E-02  0.1025054E+00
          2   -1    0    0  501    0  0.00000000000E+00  0.00000000000E+00  0.52225267106E+03  0.52225267107E+03  0.25500000000E-02 0. -1.
         -2   -1    0    0    0  501 -0.00000000000E+00 -0.00000000000E+00 -0.51566267177E+03  0.51566267178E+03  0.25500000000E-02 0.  1.
    8880023    1    1    2    0    0 -0.24482181614E+02  0.76153666078E+01 -0.27677340576E+03  0.71489236632E+03  0.65864270000E+03 0.  1.
    8880022    1    1    2    0    0  0.24482181614E+02 -0.76153666078E+01  0.28336340505E+03  0.32302297652E+03  0.15294330000E+03 0.  0.
<mgrwt>
<rscale>  0 0.45906184E+03</rscale>
<asrwt>0</asrwt>
<pdfrwt beam="1">  1        2 0.80346564E-01 0.65914155E+03</pdfrwt>
<pdfrwt beam="2">  1       -2 0.79332719E-01 0.65914155E+03</pdfrwt>
<totfact> 0.83832808E+01</totfact>
</mgrwt>
</event>
<event>
 4    2  0.6914693E-007  0.9169799E+03  0.7818608E-02  0.9499305E-01
          2   -1    0    0  501    0  0.00000000000E+00  0.00000000000E+00  0.12961889498E+04  0.12961889498E+04  0.25500000000E-02 0. -1.
         -2   -1    0    0    0  501 -0.00000000000E+00 -0.00000000000E+00 -0.55280151865E+03  0.55280151866E+03  0.25500000000E-02 0.  1.
    8880023    1    1    2    0    0 -0.60989281339E+03 -0.18727720633E+03  0.87258008269E+02  0.92112222973E+03  0.65864270000E+03 0.  0.
    8880022    1    1    2    0    0  0.60989281339E+03  0.18727720633E+03  0.65612942287E+03  0.92786823871E+03  0.15294330000E+03 0.  0.
<mgrwt>
<rscale>  0 0.84335059E+03</rscale>
<asrwt>0</asrwt>
<pdfrwt beam="1">  1        2 0.19941368E+00 0.91697994E+03</pdfrwt>
<pdfrwt beam="2">  1       -2 0.85046389E-01 0.91697994E+03</pdfrwt>
<totfact> 0.20057464E+01</totfact>
</mgrwt>
</event>
<event>
 4    2  0.6914693E-007  0.6632891E+03  0.7818608E-02  0.1021014E+00
         -2   -1    0    0    0  501 -0.00000000000E+00  0.00000000000E+00  0.38636028498E+03  0.38636028499E+03  0.25500000000E-02 0.  1.
          2   -1    0    0  501    0  0.00000000000E+00 -0.00000000000E+00 -0.18892454665E+04  0.18892454665E+04  0.25500000000E-02 0. -1.
    8880023    1    1    2    0    0  0.25005209056E+02 -0.74275892426E+02  0.93632529801E+02  0.66986522941E+03  0.65864270000E+03 0.  1.
    8880022    1    1    2    0    0 -0.25005209056E+02  0.74275892426E+02 -0.15965177114E+04  0.16057405221E+04  0.15294330000E+03 0.  0.
<mgrwt>
<rscale>  0 0.47322435E+03</rscale>
<asrwt>0</asrwt>
<pdfrwt beam="1">  1        2 0.29065314E+00 0.66328906E+03</pdfrwt>
<pdfrwt beam="2">  1       -2 0.59440045E-01 0.66328906E+03</pdfrwt>
<totfact> 0.21240665E+01</totfact>
</mgrwt>
</event>
<event>
 4    2  0.6914693E-007  0.6999755E+03  0.7818608E-02  0.9997303E-01
         -2   -1    0    0    0  501 -0.00000000000E+00  0.00000000000E+00  0.23392337543E+03  0.23392337545E+03  0.25500000000E-02 0.  1.
          2   -1    0    0  501    0  0.00000000000E+00 -0.00000000000E+00 -0.27567331680E+04  0.27567331680E+04  0.25500000000E-02 0. -1.
    8880023    1    1    2    0    0  0.15231134703E+03  0.18154007856E+03 -0.31963338066E+03  0.76950065033E+03  0.65864270000E+03 0.  1.
    8880022    1    1    2    0    0 -0.15231134703E+03 -0.18154007856E+03 -0.22031764119E+04  0.22211558932E+04  0.15294330000E+03 0.  0.
<mgrwt>
<rscale>  0 0.55768666E+03</rscale>
<asrwt>0</asrwt>
<pdfrwt beam="1">  1        2 0.42411277E+00 0.69997554E+03</pdfrwt>
<pdfrwt beam="2">  1       -2 0.35988214E-01 0.69997554E+03</pdfrwt>
<totfact> 0.18929569E+01</totfact>
</mgrwt>
</event>
<event>
 4    2  0.6914693E-007  0.7665761E+03  0.7818608E-02  0.9788371E-01
          2   -1    0    0  501    0  0.00000000000E+00  0.00000000000E+00  0.39145784429E+04  0.39145784429E+04  0.25500000000E-02 0. -1.
         -2   -1    0    0    0  501 -0.00000000000E+00 -0.00000000000E+00 -0.25523945380E+03  0.25523945381E+03  0.25500000000E-02 0.  1.
    8880023    1    1    2    0    0 -0.32252315524E+03 -0.22317609414E+03  0.36561767277E+03  0.84930279852E+03  0.65864270000E+03 0.  1.
    8880022    1    1    2    0    0  0.32252315524E+03  0.22317609414E+03  0.32937213163E+04  0.33205150982E+04  0.15294330000E+03 0.  0.
<mgrwt>
<rscale>  0 0.65990388E+03</rscale>
<asrwt>0</asrwt>
<pdfrwt beam="1">  1        2 0.60224281E+00 0.76657613E+03</pdfrwt>
<pdfrwt beam="2">  1       -2 0.39267610E-01 0.76657613E+03</pdfrwt>
<totfact> 0.27005493E+00</totfact>
</mgrwt>
</event>
<event>
 4    2  0.6914693E-007  0.9179717E+03  0.7818608E-02  0.9497776E-01
         -2   -1    0    0    0  501 -0.00000000000E+00  0.00000000000E+00  0.30517443242E+03  0.30517443243E+03  0.25500000000E-02 0.  1.
          2   -1    0    0  501    0  0.00000000000E+00 -0.00000000000E+00 -0.31635370782E+04  0.31635370782E+04  0.25500000000E-02 0. -1.
    8880023    1    1    2    0    0  0.19576792922E+03  0.60871735194E+03 -0.55353968870E+03  0.10719506938E+04  0.65864270000E+03 0.  1.
    8880022    1    1    2    0    0 -0.19576792922E+03 -0.60871735194E+03 -0.23048229571E+04  0.23967608168E+04  0.15294330000E+03 0.  0.
<mgrwt>
<rscale>  0 0.84447987E+03</rscale>
<asrwt>0</asrwt>
<pdfrwt beam="1">  1        2 0.48669799E+00 0.91797173E+03</pdfrwt>
<pdfrwt beam="2">  1       -2 0.46949915E-01 0.91797173E+03</pdfrwt>
<totfact> 0.61253436E+00</totfact>
</mgrwt>
</event>
<event>
 4    2  0.6914693E-007  0.9037507E+03  0.7818608E-02  0.9520037E-01
          2   -1    0    0  501    0  0.00000000000E+00  0.00000000000E+00  0.15153524563E+04  0.15153524563E+04  0.25500000000E-02 0. -1.
         -2   -1    0    0    0  501 -0.00000000000E+00 -0.00000000000E+00 -0.47126791943E+03  0.47126791944E+03  0.25500000000E-02 0.  1.
    8880023    1    1    2    0    0 -0.53525586230E+02 -0.61651455482E+03  0.99965805963E+03  0.13476207282E+04  0.65864270000E+03 0. -1.
    8880022    1    1    2    0    0  0.53525586230E+02  0.61651455482E+03  0.44426477275E+02  0.63899964756E+03  0.15294330000E+03 0.  0.
<mgrwt>
<rscale>  0 0.82822552E+03</rscale>
<asrwt>0</asrwt>
<pdfrwt beam="1">  1        2 0.23313115E+00 0.90375073E+03</pdfrwt>
<pdfrwt beam="2">  1       -2 0.72502755E-01 0.90375073E+03</pdfrwt>
<totfact> 0.21563184E+01</totfact>
</mgrwt>
</event>
<event>
 4    2  0.6914693E-007  0.6901390E+03  0.7818608E-02  0.1004087E+00
          2   -1    0    0  501    0  0.00000000000E+00  0.00000000000E+00  0.85720875353E+03  0.85720875354E+03  0.25500000000E-02 0. -1.
         -2   -1    0    0    0  501 -0.00000000000E+00 -0.00000000000E+00 -0.45430239912E+03  0.45430239913E+03  0.25500000000E-02 0.  1.
    8880023    1    1    2    0    0 -0.15415767254E+03  0.13681027740E+03 -0.14613580605E+03  0.70544136544E+03  0.65864270000E+03 0.  1.
    8880022    1    1    2    0    0  0.15415767254E+03 -0.13681027740E+03  0.54904216046E+03  0.60606978722E+03  0.15294330000E+03 0.  0.
<mgrwt>
<rscale>  0 0.53894085E+03</rscale>
<asrwt>0</asrwt>
<pdfrwt beam="1">  1        2 0.13187827E+00 0.69013901E+03</pdfrwt>
<pdfrwt beam="2">  1       -2 0.69892678E-01 0.69013901E+03</pdfrwt>
<totfact> 0.59618462E+01</totfact>
</mgrwt>
</event>
<event>
 4    2  0.6914693E-007  0.8296678E+03  0.7818608E-02  0.9649979E-01
          2   -1    0    0  501    0  0.00000000000E+00  0.00000000000E+00  0.30581281067E+04  0.30581281067E+04  0.25500000000E-02 0. -1.
         -2   -1    0    0    0  501 -0.00000000000E+00 -0.00000000000E+00 -0.47541059668E+03  0.47541059669E+03  0.25500000000E-02 0.  1.
    8880023    1    1    2    0    0 -0.50236975346E+03  0.46508967935E+02 -0.66544058195E+02  0.83233212796E+03  0.65864270000E+03 0.  0.
    8880022    1    1    2    0    0  0.50236975346E+03 -0.46508967935E+02  0.26492615682E+04  0.27012065754E+04  0.15294330000E+03 0.  0.
<mgrwt>
<rscale>  0 0.74074738E+03</rscale>
<asrwt>0</asrwt>
<pdfrwt beam="1">  1        2 0.47048124E+00 0.82966780E+03</pdfrwt>
<pdfrwt beam="2">  1       -2 0.73140093E-01 0.82966780E+03</pdfrwt>
<totfact> 0.28438044E+00</totfact>
</mgrwt>
</event>
<event>
 4    2  0.6914693E-007  0.8076668E+03  0.7818608E-02  0.9694458E-01
         -2   -1    0    0    0  501 -0.00000000000E+00  0.00000000000E+00  0.58408528209E+03  0.58408528209E+03  0.25500000000E-02 0.  1.
          2   -1    0    0  501    0  0.00000000000E+00 -0.00000000000E+00 -0.12372913451E+04  0.12372913451E+04  0.25500000000E-02 0. -1.
    8880023    1    1    2    0    0 -0.12537985401E+03 -0.45032804025E+03  0.20405300682E+03  0.83304458913E+03  0.65864270000E+03 0.  0.
    8880022    1    1    2    0    0  0.12537985401E+03  0.45032804025E+03 -0.85725906987E+03  0.98833203809E+03  0.15294330000E+03 0.  0.
<mgrwt>
<rscale>  0 0.71347745E+03</rscale>
<asrwt>0</asrwt>
<pdfrwt beam="1">  1        2 0.19035251E+00 0.80766680E+03</pdfrwt>
<pdfrwt beam="2">  1       -2 0.89859274E-01 0.80766680E+03</pdfrwt>
<totfact> 0.19341176E+01</totfact>
</mgrwt>
</event>
<event>
 4    2  0.6914693E-007  0.1021092E+04  0.7818608E-02  0.9354468E-01
         -2   -1    0    0    0  501 -0.00000000000E+00  0.00000000000E+00  0.42140374036E+03  0.42140374036E+03  0.25500000000E-02 0.  1.
          2   -1    0    0  501    0  0.00000000000E+00 -0.00000000000E+00 -0.19589022856E+04  0.19589022856E+04  0.25500000000E-02 0. -1.
    8880023    1    1    2    0    0 -0.86513832612E+02  0.77545781934E+03 -0.90184989122E+03  0.13623372950E+04  0.65864270000E+03 0. -1.
    8880022    1    1    2    0    0  0.86513832612E+02 -0.77545781934E+03 -0.63564865398E+03  0.10179687309E+04  0.15294330000E+03 0.  1.
<mgrwt>
<rscale>  0 0.95919421E+03</rscale>
<asrwt>0</asrwt>
<pdfrwt beam="1">  1        2 0.30136958E+00 0.10210924E+04</pdfrwt>
<pdfrwt beam="2">  1       -2 0.64831346E-01 0.10210924E+04</pdfrwt>
<totfact> 0.15469841E+01</totfact>
</mgrwt>
</event>
<event>
 4    2  0.6914693E-007  0.6703048E+03  0.7818608E-02  0.1015445E+00
          2   -1    0    0  501    0  0.00000000000E+00  0.00000000000E+00  0.12053522958E+04  0.12053522958E+04  0.25500000000E-02 0. -1.
         -2   -1    0    0    0  501 -0.00000000000E+00 -0.00000000000E+00 -0.49207042735E+03  0.49207042736E+03  0.25500000000E-02 0.  1.
    8880023    1    1    2    0    0 -0.95843398289E+02  0.79450096003E+02 -0.24906210182E+03  0.71508070284E+03  0.65864270000E+03 0.  1.
    8880022    1    1    2    0    0  0.95843398289E+02 -0.79450096003E+02  0.96234397029E+03  0.98234202033E+03  0.15294330000E+03 0.  0.
<mgrwt>
<rscale>  0 0.49366675E+03</rscale>
<asrwt>0</asrwt>
<pdfrwt beam="1">  1        2 0.18543881E+00 0.67030477E+03</pdfrwt>
<pdfrwt beam="2">  1       -2 0.75703143E-01 0.67030477E+03</pdfrwt>
<totfact> 0.30222787E+01</totfact>
</mgrwt>
</event>
<event>
 4    2  0.6914693E-007  0.8635625E+03  0.7818608E-02  0.9587258E-01
         -2   -1    0    0    0  501 -0.00000000000E+00  0.00000000000E+00  0.44945770474E+03  0.44945770475E+03  0.25500000000E-02 0.  1.
          2   -1    0    0  501    0  0.00000000000E+00 -0.00000000000E+00 -0.21396407290E+04  0.21396407290E+04  0.25500000000E-02 0. -1.
    8880023    1    1    2    0    0  0.66096886419E+02  0.55458193921E+03 -0.67510317488E+02  0.86619730716E+03  0.65864270000E+03 0. -1.
    8880022    1    1    2    0    0 -0.66096886419E+02 -0.55458193921E+03 -0.16226727068E+04  0.17229011266E+04  0.15294330000E+03 0.  0.
<mgrwt>
<rscale>  0 0.78145326E+03</rscale>
<asrwt>0</asrwt>
<pdfrwt beam="1">  1        2 0.32917549E+00 0.86356247E+03</pdfrwt>
<pdfrwt beam="2">  1       -2 0.69147340E-01 0.86356247E+03</pdfrwt>
<totfact> 0.10893988E+01</totfact>
</mgrwt>
</event>
<event>
 4    2  0.6914693E-007  0.8156207E+03  0.7818608E-02  0.9677986E-01
         -2   -1    0    0    0  501 -0.00000000000E+00  0.00000000000E+00  0.38521188774E+03  0.38521188775E+03  0.25500000000E-02 0.  1.
          2   -1    0    0  501    0  0.00000000000E+00 -0.00000000000E+00 -0.15232103535E+04  0.15232103535E+04  0.25500000000E-02 0. -1.
    8880023    1    1    2    0    0 -0.27030144228E+03  0.39794978287E+03 -0.19468363845E+03  0.83853373500E+03  0.65864270000E+03 0.  0.
    8880022    1    1    2    0    0  0.27030144228E+03 -0.39794978287E+03 -0.94331482729E+03  0.10698885062E+04  0.15294330000E+03 0.  0.
<mgrwt>
<rscale>  0 0.72342757E+03</rscale>
<asrwt>0</asrwt>
<pdfrwt beam="1">  1        2 0.23434005E+00 0.81562069E+03</pdfrwt>
<pdfrwt beam="2">  1       -2 0.59263368E-01 0.81562069E+03</pdfrwt>
<totfact> 0.33271748E+01</totfact>
</mgrwt>
</event>
<event>
 4    2  0.6914693E-007  0.7537056E+03  0.7818608E-02  0.9821684E-01
          2   -1    0    0  501    0  0.00000000000E+00  0.00000000000E+00  0.74072791527E+03  0.74072791528E+03  0.25500000000E-02 0. -1.
         -2   -1    0    0    0  501 -0.00000000000E+00 -0.00000000000E+00 -0.82376908871E+03  0.82376908871E+03  0.25500000000E-02 0.  1.
    8880023    1    1    2    0    0  0.35119214899E+03  0.10452730390E+03 -0.56360106273E+03  0.94112605264E+03  0.65864270000E+03 0.  0.
    8880022    1    1    2    0    0 -0.35119214899E+03 -0.10452730390E+03  0.48055988930E+03  0.62337095135E+03  0.15294330000E+03 0.  0.
<mgrwt>
<rscale>  0 0.64211713E+03</rscale>
<asrwt>0</asrwt>
<pdfrwt beam="1">  1        2 0.11395814E+00 0.75370557E+03</pdfrwt>
<pdfrwt beam="2">  1       -2 0.12673371E+00 0.75370557E+03</pdfrwt>
<totfact> 0.17897460E+01</totfact>
</mgrwt>
</event>
<event>
 4    2  0.6914693E-007  0.1108856E+04  0.7818608E-02  0.9251260E-01
          2   -1    0    0  501    0  0.00000000000E+00  0.00000000000E+00  0.28969400537E+04  0.28969400537E+04  0.25500000000E-02 0. -1.
         -2   -1    0    0    0  501 -0.00000000000E+00 -0.00000000000E+00 -0.65569589600E+03  0.65569589601E+03  0.25500000000E-02 0.  1.
    8880023    1    1    2    0    0  0.88718963883E+03 -0.92979317500E+02 -0.28369606884E+02  0.11092184860E+04  0.65864270000E+03 0.  0.
    8880022    1    1    2    0    0 -0.88718963883E+03  0.92979317500E+02  0.22696137646E+04  0.24434174637E+04  0.15294330000E+03 0.  0.
<mgrwt>
<rscale>  0 0.10539650E+04</rscale>
<asrwt>0</asrwt>
<pdfrwt beam="1">  1        2 0.44568308E+00 0.11088556E+04</pdfrwt>
<pdfrwt beam="2">  1       -2 0.10087629E+00 0.11088556E+04</pdfrwt>
<totfact> 0.16338683E+00</totfact>
</mgrwt>
</event>
<event>
 4    2  0.6914693E-007  0.6650182E+03  0.7818608E-02  0.1019518E+00
         -2   -1    0    0    0  501 -0.00000000000E+00  0.00000000000E+00  0.81230058437E+02  0.81230058477E+02  0.25500000000E-02 0.  1.
          2   -1    0    0  501    0  0.00000000000E+00 -0.00000000000E+00 -0.22597545049E+04  0.22597545049E+04  0.25500000000E-02 0. -1.
    8880023    1    1    2    0    0 -0.53615578915E+02 -0.74594784912E+02 -0.15281059504E+04  0.16665404328E+04  0.65864270000E+03 0.  0.
    8880022    1    1    2    0    0  0.53615578915E+02  0.74594784912E+02 -0.65041849608E+03  0.67444413060E+03  0.15294330000E+03 0.  0.
<mgrwt>
<rscale>  0 0.47860901E+03</rscale>
<asrwt>0</asrwt>
<pdfrwt beam="1">  1        2 0.34765449E+00 0.66501821E+03</pdfrwt>
<pdfrwt beam="2">  1       -2 0.12496934E-01 0.66501821E+03</pdfrwt>
<totfact> 0.23625420E+02</totfact>
</mgrwt>
</event>
<event>
 4    2  0.6914693E-007  0.8147400E+03  0.7818608E-02  0.9679787E-01
         -2   -1    0    0    0  501 -0.00000000000E+00  0.00000000000E+00  0.14492543390E+04  0.14492543390E+04  0.25500000000E-02 0.  1.
          2   -1    0    0  501    0  0.00000000000E+00 -0.00000000000E+00 -0.59327242625E+03  0.59327242626E+03  0.25500000000E-02 0. -1.
    8880023    1    1    2    0    0  0.24985368291E+03  0.40934607202E+03  0.11872596960E+04  0.14399259917E+04  0.65864270000E+03 0.  1.
    8880022    1    1    2    0    0 -0.24985368291E+03 -0.40934607202E+03 -0.33127778329E+03  0.60260077353E+03  0.15294330000E+03 0.  0.
<mgrwt>
<rscale>  0 0.72233125E+03</rscale>
<asrwt>0</asrwt>
<pdfrwt beam="1">  1        2 0.91272682E-01 0.81474001E+03</pdfrwt>
<pdfrwt beam="2">  1       -2 0.22296220E+00 0.81474001E+03</pdfrwt>
<totfact> 0.48355115E+00</totfact>
</mgrwt>
</event>
<event>
 4    2  0.6914693E-007  0.8097635E+03  0.7818608E-02  0.9690070E-01
         -2   -1    0    0    0  501 -0.00000000000E+00  0.00000000000E+00  0.52536924861E+03  0.52536924862E+03  0.25500000000E-02 0.  1.
          2   -1    0    0  501    0  0.00000000000E+00 -0.00000000000E+00 -0.27138422391E+04  0.27138422391E+04  0.25500000000E-02 0. -1.
    8880023    1    1    2    0    0 -0.46467494976E+03  0.77355695716E+02  0.17158650347E+03  0.82774322530E+03  0.65864270000E+03 0.  1.
    8880022    1    1    2    0    0  0.46467494976E+03 -0.77355695716E+02 -0.23600594940E+04  0.24114682624E+04  0.15294330000E+03 0.  0.
<mgrwt>
<rscale>  0 0.71611122E+03</rscale>
<asrwt>0</asrwt>
<pdfrwt beam="1">  1        2 0.41751419E+00 0.80976350E+03</pdfrwt>
<pdfrwt beam="2">  1       -2 0.80826039E-01 0.80976350E+03</pdfrwt>
<totfact> 0.36789382E+00</totfact>
</mgrwt>
</event>
<event>
 4    2  0.6914693E-007  0.6668384E+03  0.7818608E-02  0.1018038E+00
         -2   -1    0    0    0  501 -0.00000000000E+00  0.00000000000E+00  0.26629329423E+03  0.26629329425E+03  0.25500000000E-02 0.  1.
          2   -1    0    0  501    0  0.00000000000E+00 -0.00000000000E+00 -0.68538326109E+03  0.68538326110E+03  0.25500000000E-02 0. -1.
    8880023    1    1    2    0    0  0.79318321887E+02 -0.67615357341E+02 -0.35745643424E+03  0.75660329194E+03  0.65864270000E+03 0.  0.
    8880022    1    1    2    0    0 -0.79318321887E+02  0.67615357341E+02 -0.61633532618E+02  0.19507326340E+03  0.15294330000E+03 0.  1.
<mgrwt>
<rscale>  0 0.48401159E+03</rscale>
<asrwt>0</asrwt>
<pdfrwt beam="1">  1        2 0.10544358E+00 0.66683839E+03</pdfrwt>
<pdfrwt beam="2">  1       -2 0.40968199E-01 0.66683839E+03</pdfrwt>
<totfact> 0.24040963E+02</totfact>
</mgrwt>
</event>
<event>
 4    2  0.6914693E-007  0.8744767E+03  0.7818608E-02  0.9568313E-01
          2   -1    0    0  501    0  0.00000000000E+00  0.00000000000E+00  0.56887990836E+03  0.56887990836E+03  0.25500000000E-02 0. -1.
         -2   -1    0    0    0  501 -0.00000000000E+00 -0.00000000000E+00 -0.11526976041E+04  0.11526976041E+04  0.25500000000E-02 0.  1.
    8880023    1    1    2    0    0 -0.27278982274E+03  0.50644353895E+03  0.18637555729E+02  0.87467531706E+03  0.65864270000E+03 0.  0.
    8880022    1    1    2    0    0  0.27278982274E+03 -0.50644353895E+03 -0.60245525148E+03  0.84690219541E+03  0.15294330000E+03 0.  0.
<mgrwt>
<rscale>  0 0.79429386E+03</rscale>
<asrwt>0</asrwt>
<pdfrwt beam="1">  1        2 0.87519986E-01 0.87447673E+03</pdfrwt>
<pdfrwt beam="2">  1       -2 0.17733809E+00 0.87447673E+03</pdfrwt>
<totfact> 0.10049754E+01</totfact>
</mgrwt>
</event>
<event>
 4    2  0.6914693E-007  0.6837187E+03  0.7818608E-02  0.1007294E+00
          2   -1    0    0  501    0  0.00000000000E+00  0.00000000000E+00  0.14615614259E+04  0.14615614259E+04  0.25500000000E-02 0. -1.
         -2   -1    0    0    0  501 -0.00000000000E+00 -0.00000000000E+00 -0.68500522666E+03  0.68500522666E+03  0.25500000000E-02 0.  1.
    8880023    1    1    2    0    0  0.51031730490E+02 -0.17622959835E+03 -0.50052086391E+03  0.84734435168E+03  0.65864270000E+03 0.  1.
    8880022    1    1    2    0    0 -0.51031730490E+02  0.17622959835E+03  0.12770770631E+04  0.12992223009E+04  0.15294330000E+03 0.  0.
<mgrwt>
<rscale>  0 0.52564519E+03</rscale>
<asrwt>0</asrwt>
<pdfrwt beam="1">  1        2 0.22485560E+00 0.68371874E+03</pdfrwt>
<pdfrwt beam="2">  1       -2 0.10538542E+00 0.68371874E+03</pdfrwt>
<totfact> 0.10051917E+01</totfact>
</mgrwt>
</event>
<event>
 4    2  0.6914693E-007  0.7110153E+03  0.7818608E-02  0.9954250E-01
         -2   -1    0    0    0  501 -0.00000000000E+00  0.00000000000E+00  0.13690799489E+04  0.13690799489E+04  0.25500000000E-02 0.  1.
          2   -1    0    0  501    0  0.00000000000E+00 -0.00000000000E+00 -0.95015840586E+03  0.95015840587E+03  0.25500000000E-02 0. -1.
    8880023    1    1    2    0    0  0.70334897652E+02  0.25842908925E+03  0.12470695787E+04  0.14355226687E+04  0.65864270000E+03 0.  1.
    8880022    1    1    2    0    0 -0.70334897652E+02 -0.25842908925E+03 -0.82814803561E+03  0.88371568612E+03  0.15294330000E+03 0.  0.
<mgrwt>
<rscale>  0 0.57702632E+03</rscale>
<asrwt>0</asrwt>
<pdfrwt beam="1">  1        2 0.14617822E+00 0.71101533E+03</pdfrwt>
<pdfrwt beam="2">  1       -2 0.21062768E+00 0.71101533E+03</pdfrwt>
<totfact> 0.31762991E+00</totfact>
</mgrwt>
</event>
<event>
 4    2  0.6914693E-007  0.8081020E+03  0.7818608E-02  0.9693544E-01
          2   -1    0    0  501    0  0.00000000000E+00  0.00000000000E+00  0.74573333590E+03  0.74573333591E+03  0.25500000000E-02 0. -1.
         -2   -1    0    0    0  501 -0.00000000000E+00 -0.00000000000E+00 -0.20537231979E+04  0.20537231979E+04  0.25500000000E-02 0.  1.
    8880023    1    1    2    0    0  0.34857002091E+03 -0.31259821027E+03 -0.18789743219E+04  0.20453785491E+04  0.65864270000E+03 0.  1.
    8880022    1    1    2    0    0 -0.34857002091E+03  0.31259821027E+03  0.57098445990E+03  0.75407798470E+03  0.15294330000E+03 0.  0.
<mgrwt>
<rscale>  0 0.71402484E+03</rscale>
<asrwt>0</asrwt>
<pdfrwt beam="1">  1        2 0.11472821E+00 0.80810204E+03</pdfrwt>
<pdfrwt beam="2">  1       -2 0.31595741E+00 0.80810204E+03</pdfrwt>
<totfact> 0.99353310E-01</totfact>
</mgrwt>
</event>
<event>
 4    2  0.6914693E-007  0.1183582E+04  0.7818608E-02  0.9173250E-01
          2   -1    0    0  501    0  0.00000000000E+00  0.00000000000E+00  0.24856286230E+04  0.24856286230E+04  0.25500000000E-02 0. -1.
         -2   -1    0    0    0  501 -0.00000000000E+00 -0.00000000000E+00 -0.61650083869E+03  0.61650083870E+03  0.25500000000E-02 0.  1.
    8880023    1    1    2    0    0  0.87418535693E+03  0.45039486898E+03  0.17316115222E+04  0.20974613814E+04  0.65864270000E+03 0. -1.
    8880022    1    1    2    0    0 -0.87418535693E+03 -0.45039486898E+03  0.13751626211E+03  0.10046680803E+04  0.15294330000E+03 0.  0.
<mgrwt>
<rscale>  0 0.11333854E+04</rscale>
<asrwt>0</asrwt>
<pdfrwt beam="1">  1        2 0.38240441E+00 0.11835818E+04</pdfrwt>
<pdfrwt beam="2">  1       -2 0.94846282E-01 0.11835818E+04</pdfrwt>
<totfact> 0.32726349E+00</totfact>
</mgrwt>
</event>
<event>
 4    2  0.6914693E-007  0.9755193E+03  0.7818608E-02  0.9414311E-01
         -2   -1    0    0    0  501 -0.00000000000E+00  0.00000000000E+00  0.72567167216E+03  0.72567167216E+03  0.25500000000E-02 0.  1.
          2   -1    0    0  501    0  0.00000000000E+00 -0.00000000000E+00 -0.33085353949E+04  0.33085353949E+04  0.25500000000E-02 0. -1.
    8880023    1    1    2    0    0  0.89639733533E+02  0.71399746018E+03  0.33004155409E+03  0.10298375059E+04  0.65864270000E+03 0.  0.
    8880022    1    1    2    0    0 -0.89639733533E+02 -0.71399746018E+03 -0.29129052768E+04  0.30043695611E+04  0.15294330000E+03 0.  0.
<mgrwt>
<rscale>  0 0.90907257E+03</rscale>
<asrwt>0</asrwt>
<pdfrwt beam="1">  1        2 0.50900544E+00 0.97551928E+03</pdfrwt>
<pdfrwt beam="2">  1       -2 0.11164180E+00 0.97551928E+03</pdfrwt>
<totfact> 0.71863173E-01</totfact>
</mgrwt>
</event>
<event>
 4    2  0.6914693E-007  0.9785354E+03  0.7818608E-02  0.9410195E-01
         -2   -1    0    0    0  501 -0.00000000000E+00  0.00000000000E+00  0.15787773837E+04  0.15787773837E+04  0.25500000000E-02 0.  1.
          2   -1    0    0  501    0  0.00000000000E+00 -0.00000000000E+00 -0.55897318934E+03  0.55897318934E+03  0.25500000000E-02 0. -1.
    8880023    1    1    2    0    0  0.52974159914E+03 -0.49304690942E+03  0.14027267703E+03  0.98853833862E+03  0.65864270000E+03 0. -1.
    8880022    1    1    2    0    0 -0.52974159914E+03  0.49304690942E+03  0.87953151737E+03  0.11492122344E+04  0.15294330000E+03 0.  0.
<mgrwt>
<rscale>  0 0.91241425E+03</rscale>
<asrwt>0</asrwt>
<pdfrwt beam="1">  1        2 0.85995877E-01 0.97853545E+03</pdfrwt>
<pdfrwt beam="2">  1       -2 0.24288882E+00 0.97853545E+03</pdfrwt>
<totfact> 0.38418152E+00</totfact>
</mgrwt>
</event>
