<event>
 4    1  0.8645356E-007  0.1206050E+04  0.7818608E-02  0.9151263E-01
          2   -1    0    0  501    0  0.00000000000E+00  0.00000000000E+00  0.27701054222E+04  0.27701054222E+04  0.25500000000E-02 0. -1.
         -2   -1    0    0    0  501 -0.00000000000E+00 -0.00000000000E+00 -0.55384562733E+03  0.55384562733E+03  0.25500000000E-02 0.  1.
    8880023    1    1    2    0    0 -0.63926358354E+03 -0.78236132728E+03  0.45752182002E+03  0.12899161204E+04  0.65864270000E+03 0.  0.
    8880022    1    1    2    0    0  0.63926358354E+03  0.78236132728E+03  0.17587379748E+04  0.20340349291E+04  0.15294330000E+03 0.  0.
<mgrwt>
<rscale>  0 0.11570946E+04</rscale>
<asrwt>0</asrwt>
<pdfrwt beam="1">  1        2 0.42617007E+00 0.12060503E+04</pdfrwt>
<pdfrwt beam="2">  1       -2 0.85207018E-01 0.12060503E+04</pdfrwt>
<totfact> 0.28548704E+00</totfact>
</mgrwt>
</event>
<event>
 4    1  0.8645356E-007  0.8227292E+03  0.7818608E-02  0.9663648E-01
          2   -1    0    0  501    0  0.00000000000E+00  0.00000000000E+00  0.10334136533E+04  0.10334136533E+04  0.25500000000E-02 0. -1.
         -2   -1    0    0    0  501 -0.00000000000E+00 -0.00000000000E+00 -0.79990820954E+03  0.79990820954E+03  0.25500000000E-02 0.  1.
    8880023    1    1    2    0    0 -0.46823366781E+03  0.15437063707E+03 -0.48011552842E+03  0.95257240573E+03  0.65864270000E+03 0.  1.
    8880022    1    1    2    0    0  0.46823366781E+03 -0.15437063707E+03  0.71362097216E+03  0.88074945710E+03  0.15294330000E+03 0.  0.
<mgrwt>
<rscale>  0 0.73223019E+03</rscale>
<asrwt>0</asrwt>
<pdfrwt beam="1">  1        2 0.15898672E+00 0.82272916E+03</pdfrwt>
<pdfrwt beam="2">  1       -2 0.12306280E+00 0.82272916E+03</pdfrwt>
<totfact> 0.12068848E+01</totfact>
</mgrwt>
</event>
<event>
 4    1  0.8645356E-007  0.6706986E+03  0.7818608E-02  0.1015167E+00
          2   -1    0    0  501    0  0.00000000000E+00  0.00000000000E+00  0.24361778740E+03  0.24361778741E+03  0.25500000000E-02 0. -1.
         -2   -1    0    0    0  501 -0.00000000000E+00 -0.00000000000E+00 -0.17228187238E+04  0.17228187238E+04  0.25500000000E-02 0.  1.
    8880023    1    1    2    0    0  0.12488352736E+03 -0.20749658985E+02 -0.15994079552E+04  0.17343420819E+04  0.65864270000E+03 0.  1.
    8880022    1    1    2    0    0 -0.12488352736E+03  0.20749658985E+02  0.12020701875E+03  0.23209442932E+03  0.15294330000E+03 0.  0.
<mgrwt>
<rscale>  0 0.49471778E+03</rscale>
<asrwt>0</asrwt>
<pdfrwt beam="1">  1        2 0.37479661E-01 0.67069863E+03</pdfrwt>
<pdfrwt beam="2">  1       -2 0.26504903E+00 0.67069863E+03</pdfrwt>
<totfact> 0.74858179E+00</totfact>
</mgrwt>
</event>
<event>
 4    1  0.8645356E-007  0.1084596E+04  0.7818608E-02  0.9278403E-01
         -2   -1    0    0    0  501 -0.00000000000E+00  0.00000000000E+00  0.76666296393E+03  0.76666296393E+03  0.25500000000E-02 0.  1.
          2   -1    0    0  501    0  0.00000000000E+00 -0.00000000000E+00 -0.14583843136E+04  0.14583843136E+04  0.25500000000E-02 0. -1.
    8880023    1    1    2    0    0 -0.62881363769E+03 -0.58917937231E+03  0.38446155094E+02  0.10852774930E+04  0.65864270000E+03 0.  0.
    8880022    1    1    2    0    0  0.62881363769E+03  0.58917937231E+03 -0.73016750474E+03  0.11397697845E+04  0.15294330000E+03 0.  0.
<mgrwt>
<rscale>  0 0.10279566E+04</rscale>
<asrwt>0</asrwt>
<pdfrwt beam="1">  1        2 0.22436682E+00 0.10845963E+04</pdfrwt>
<pdfrwt beam="2">  1       -2 0.11794815E+00 0.10845963E+04</pdfrwt>
<totfact> 0.73199601E+00</totfact>
</mgrwt>
</event>
<event>
 4    1  0.8645356E-007  0.7114216E+03  0.7818608E-02  0.9952759E-01
         -2   -1    0    0    0  501 -0.00000000000E+00  0.00000000000E+00  0.48762425902E+03  0.48762425902E+03  0.25500000000E-02 0.  1.
          2   -1    0    0  501    0  0.00000000000E+00 -0.00000000000E+00 -0.80576054079E+03  0.80576054080E+03  0.25500000000E-02 0. -1.
    8880023    1    1    2    0    0  0.21848409726E+03 -0.15676497199E+03  0.15497827334E+03  0.72810646795E+03  0.65864270000E+03 0.  1.
    8880022    1    1    2    0    0 -0.21848409726E+03  0.15676497199E+03 -0.47311455512E+03  0.56527833187E+03  0.15294330000E+03 0.  0.
<mgrwt>
<rscale>  0 0.57771089E+03</rscale>
<asrwt>0</asrwt>
<pdfrwt beam="1">  1        2 0.12396316E+00 0.71142165E+03</pdfrwt>
<pdfrwt beam="2">  1       -2 0.75019117E-01 0.71142165E+03</pdfrwt>
<totfact> 0.55357476E+01</totfact>
</mgrwt>
</event>
<event>
 4    1  0.8645356E-007  0.6598510E+03  0.7818608E-02  0.1024310E+00
          2   -1    0    0  501    0  0.00000000000E+00  0.00000000000E+00  0.17276206091E+03  0.17276206093E+03  0.25500000000E-02 0. -1.
         -2   -1    0    0    0  501 -0.00000000000E+00 -0.00000000000E+00 -0.11727306450E+04  0.11727306450E+04  0.25500000000E-02 0.  1.
    8880023    1    1    2    0    0 -0.38012161145E+01  0.39732936896E+02 -0.98652089192E+03  0.11868558598E+04  0.65864270000E+03 0.  1.
    8880022    1    1    2    0    0  0.38012161145E+01 -0.39732936896E+02 -0.13447692213E+02  0.15863684616E+03  0.15294330000E+03 0.  0.
<mgrwt>
<rscale>  0 0.46162989E+03</rscale>
<asrwt>0</asrwt>
<pdfrwt beam="1">  1        2 0.26578779E-01 0.65985101E+03</pdfrwt>
<pdfrwt beam="2">  1       -2 0.18042009E+00 0.65985101E+03</pdfrwt>
<totfact> 0.37521302E+01</totfact>
</mgrwt>
</event>
<event>
 4    1  0.8645356E-007  0.8746585E+03  0.7818608E-02  0.9568003E-01
          2   -1    0    0  501    0  0.00000000000E+00  0.00000000000E+00  0.64632362197E+03  0.64632362198E+03  0.25500000000E-02 0. -1.
         -2   -1    0    0    0  501 -0.00000000000E+00 -0.00000000000E+00 -0.10004931726E+04  0.10004931726E+04  0.25500000000E-02 0.  1.
    8880023    1    1    2    0    0 -0.30322869441E+00 -0.57551470455E+03 -0.53397632917E+03  0.10247722642E+04  0.65864270000E+03 0.  1.
    8880022    1    1    2    0    0  0.30322869441E+00  0.57551470455E+03  0.17980677857E+03  0.62204453035E+03  0.15294330000E+03 0.  0.
<mgrwt>
<rscale>  0 0.79450675E+03</rscale>
<asrwt>0</asrwt>
<pdfrwt beam="1">  1        2 0.99434403E-01 0.87465849E+03</pdfrwt>
<pdfrwt beam="2">  1       -2 0.15392203E+00 0.87465849E+03</pdfrwt>
<totfact> 0.12705151E+01</totfact>
</mgrwt>
</event>
<event>
 4    1  0.8645356E-007  0.6608165E+03  0.7818608E-02  0.1023335E+00
         -2   -1    0    0    0  501 -0.00000000000E+00  0.00000000000E+00  0.57694788557E+03  0.57694788557E+03  0.25500000000E-02 0.  1.
          2   -1    0    0  501    0  0.00000000000E+00 -0.00000000000E+00 -0.79423114615E+03  0.79423114615E+03  0.25500000000E-02 0. -1.
    8880023    1    1    2    0    0 -0.44166175599E+02 -0.30292786230E+02  0.37316239975E+03  0.75889965530E+03  0.65864270000E+03 0.  1.
    8880022    1    1    2    0    0  0.44166175599E+02  0.30292786230E+02 -0.59044566034E+03  0.61227937642E+03  0.15294330000E+03 0.  0.
<mgrwt>
<rscale>  0 0.46502086E+03</rscale>
<asrwt>0</asrwt>
<pdfrwt beam="1">  1        2 0.12218941E+00 0.66081655E+03</pdfrwt>
<pdfrwt beam="2">  1       -2 0.88761213E-01 0.66081655E+03</pdfrwt>
<totfact> 0.38783998E+01</totfact>
</mgrwt>
</event>
<event>
 4    1  0.1038470E-006  0.6977404E+03  0.7818608E-02  0.1000671E+00
          2   -1    0    0  501    0  0.00000000000E+00  0.00000000000E+00  0.17809613620E+04  0.17809613620E+04  0.25500000000E-02 0. -1.
         -2   -1    0    0    0  501 -0.00000000000E+00 -0.00000000000E+00 -0.82502185322E+03  0.82502185323E+03  0.25500000000E-02 0.  1.
    8880023    1    1    2    0    0  0.12659504765E+03  0.19236729208E+03 -0.66366168457E+03  0.96295821248E+03  0.65864270000E+03 0.  1.
    8880022    1    1    2    0    0 -0.12659504765E+03 -0.19236729208E+03  0.16196011934E+04  0.16430250028E+04  0.15294330000E+03 0.  0.
<mgrwt>
<rscale>  0 0.55357124E+03</rscale>
<asrwt>0</asrwt>
<pdfrwt beam="1">  1        2 0.27399405E+00 0.69774042E+03</pdfrwt>
<pdfrwt beam="2">  1       -2 0.12692644E+00 0.69774042E+03</pdfrwt>
<totfact> 0.42443805E+00</totfact>
</mgrwt>
</event>
<event>
 4    1  0.8645356E-007  0.1293796E+04  0.7818608E-02  0.9070936E-01
         -2   -1    0    0    0  501 -0.00000000000E+00  0.00000000000E+00  0.54709617295E+03  0.54709617296E+03  0.25500000000E-02 0.  1.
          2   -1    0    0  501    0  0.00000000000E+00 -0.00000000000E+00 -0.35766050657E+04  0.35766050657E+04  0.25500000000E-02 0. -1.
    8880023    1    1    2    0    0 -0.82692594784E+03 -0.74584871103E+03 -0.55879640507E+03  0.14093120490E+04  0.65864270000E+03 0.  0.
    8880022    1    1    2    0    0  0.82692594784E+03  0.74584871103E+03 -0.24707124876E+04  0.27143891896E+04  0.15294330000E+03 0.  0.
<mgrwt>
<rscale>  0 0.12490955E+04</rscale>
<asrwt>0</asrwt>
<pdfrwt beam="1">  1        2 0.55024692E+00 0.12937956E+04</pdfrwt>
<pdfrwt beam="2">  1       -2 0.84168644E-01 0.12937956E+04</pdfrwt>
<totfact> 0.87666512E-01</totfact>
</mgrwt>
</event>
<event>
 4    1  0.8645356E-007  0.8875729E+03  0.7818608E-02  0.9546283E-01
         -2   -1    0    0    0  501 -0.00000000000E+00  0.00000000000E+00  0.98490958291E+03  0.98490958291E+03  0.25500000000E-02 0.  1.
          2   -1    0    0  501    0  0.00000000000E+00 -0.00000000000E+00 -0.69320966949E+03  0.69320966949E+03  0.25500000000E-02 0. -1.
    8880023    1    1    2    0    0  0.59476569177E+03  0.15141129831E+02  0.51301264755E+03  0.10251671399E+04  0.65864270000E+03 0.  0.
    8880022    1    1    2    0    0 -0.59476569177E+03 -0.15141129831E+02 -0.22131273414E+03  0.65295211250E+03  0.15294330000E+03 0.  0.
<mgrwt>
<rscale>  0 0.80955907E+03</rscale>
<asrwt>0</asrwt>
<pdfrwt beam="1">  1        2 0.10664764E+00 0.88757292E+03</pdfrwt>
<pdfrwt beam="2">  1       -2 0.15152455E+00 0.88757292E+03</pdfrwt>
<totfact> 0.12122757E+01</totfact>
</mgrwt>
</event>
<event>
 4    1  0.8645356E-007  0.6601739E+03  0.7818608E-02  0.1023979E+00
         -2   -1    0    0    0  501 -0.00000000000E+00  0.00000000000E+00  0.60615047725E+02  0.60615047778E+02  0.25500000000E-02 0.  1.
          2   -1    0    0  501    0  0.00000000000E+00 -0.00000000000E+00 -0.28018049919E+04  0.28018049919E+04  0.25500000000E-02 0. -1.
    8880023    1    1    2    0    0  0.31715477918E+02  0.31835187958E+02 -0.20783216222E+04  0.21806536456E+04  0.65864270000E+03 0.  1.
    8880022    1    1    2    0    0 -0.31715477918E+02 -0.31835187958E+02 -0.66286832202E+03  0.68176639407E+03  0.15294330000E+03 0. -1.
<mgrwt>
<rscale>  0 0.46277670E+03</rscale>
<asrwt>0</asrwt>
<pdfrwt beam="1">  1        2 0.43104682E+00 0.66017388E+03</pdfrwt>
<pdfrwt beam="2">  1       -2 0.93253941E-02 0.66017388E+03</pdfrwt>
<totfact> 0.18779017E+02</totfact>
</mgrwt>
</event>
<event>
 4    1  0.8645356E-007  0.8177418E+03  0.7818608E-02  0.9673671E-01
         -2   -1    0    0    0  501 -0.00000000000E+00  0.00000000000E+00  0.28944657865E+03  0.28944657867E+03  0.25500000000E-02 0.  1.
          2   -1    0    0  501    0  0.00000000000E+00 -0.00000000000E+00 -0.15403326079E+04  0.15403326079E+04  0.25500000000E-02 0. -1.
    8880023    1    1    2    0    0  0.35259989143E+03  0.33251276067E+03 -0.87520026354E+03  0.11977800829E+04  0.65864270000E+03 0.  0.
    8880022    1    1    2    0    0 -0.35259989143E+03 -0.33251276067E+03 -0.37568576569E+03  0.63199910364E+03  0.15294330000E+03 0.  0.
<mgrwt>
<rscale>  0 0.72606271E+03</rscale>
<asrwt>0</asrwt>
<pdfrwt beam="1">  1        2 0.23697424E+00 0.81774178E+03</pdfrwt>
<pdfrwt beam="2">  1       -2 0.44530244E-01 0.81774178E+03</pdfrwt>
<totfact> 0.58464985E+01</totfact>
</mgrwt>
</event>
<event>
 4    1  0.8645356E-007  0.1162821E+04  0.7818608E-02  0.9194139E-01
         -2   -1    0    0    0  501 -0.00000000000E+00  0.00000000000E+00  0.95167036683E+03  0.95167036683E+03  0.25500000000E-02 0.  1.
          2   -1    0    0  501    0  0.00000000000E+00 -0.00000000000E+00 -0.13188320002E+04  0.13188320002E+04  0.25500000000E-02 0. -1.
    8880023    1    1    2    0    0  0.48906252902E+03  0.82411126727E+03  0.14734221836E+03  0.11721183702E+04  0.65864270000E+03 0. -1.
    8880022    1    1    2    0    0 -0.48906252902E+03 -0.82411126727E+03 -0.51450385175E+03  0.10983839969E+04  0.15294330000E+03 0.  0.
<mgrwt>
<rscale>  0 0.11114131E+04</rscale>
<asrwt>0</asrwt>
<pdfrwt beam="1">  1        2 0.20289723E+00 0.11628206E+04</pdfrwt>
<pdfrwt beam="2">  1       -2 0.14641083E+00 0.11628206E+04</pdfrwt>
<totfact> 0.50254594E+00</totfact>
</mgrwt>
</event>
<event>
 4    1  0.1008417E-006  0.7282239E+03  0.7818608E-02  0.9895682E-01
         -2   -1    0    0    0  501 -0.00000000000E+00  0.00000000000E+00  0.96496031226E+03  0.96496031227E+03  0.25500000000E-02 0.  1.
          2   -1    0    0  501    0  0.00000000000E+00 -0.00000000000E+00 -0.23967983482E+04  0.23967983482E+04  0.25500000000E-02 0. -1.
    8880023    1    1    2    0    0  0.28947205352E+03 -0.11272001194E+03  0.81237477522E+03  0.10909916831E+04  0.65864270000E+03 0.  1.
    8880022    1    1    2    0    0 -0.28947205352E+03  0.11272001194E+03 -0.22442128111E+04  0.22707669774E+04  0.15294330000E+03 0.  0.
<mgrwt>
<rscale>  0 0.60471016E+03</rscale>
<asrwt>0</asrwt>
<pdfrwt beam="1">  1        2 0.36873820E+00 0.72822392E+03</pdfrwt>
<pdfrwt beam="2">  1       -2 0.14845543E+00 0.72822392E+03</pdfrwt>
<totfact> 0.12955755E+00</totfact>
</mgrwt>
</event>
<event>
 4    1  0.8645356E-007  0.7948295E+03  0.7818608E-02  0.9722089E-01
         -2   -1    0    0    0  501 -0.00000000000E+00  0.00000000000E+00  0.43349510361E+03  0.43349510362E+03  0.25500000000E-02 0.  1.
          2   -1    0    0  501    0  0.00000000000E+00 -0.00000000000E+00 -0.10563234479E+04  0.10563234479E+04  0.25500000000E-02 0. -1.
    8880023    1    1    2    0    0  0.40559290105E+03  0.18286089750E+03 -0.12454318049E+03  0.80452776166E+03  0.65864270000E+03 0.  0.
    8880022    1    1    2    0    0 -0.40559290105E+03 -0.18286089750E+03 -0.49828516384E+03  0.68529078991E+03  0.15294330000E+03 0.  0.
<mgrwt>
<rscale>  0 0.69716701E+03</rscale>
<asrwt>0</asrwt>
<pdfrwt beam="1">  1        2 0.16251130E+00 0.79482949E+03</pdfrwt>
<pdfrwt beam="2">  1       -2 0.66691555E-01 0.79482949E+03</pdfrwt>
<totfact> 0.48489463E+01</totfact>
</mgrwt>
</event>
<event>
 4    1  0.8645356E-007  0.7338432E+03  0.7818608E-02  0.9878259E-01
         -2   -1    0    0    0  501 -0.00000000000E+00  0.00000000000E+00  0.38573047696E+03  0.38573047697E+03  0.25500000000E-02 0.  1.
          2   -1    0    0  501    0  0.00000000000E+00 -0.00000000000E+00 -0.87739547774E+03  0.87739547774E+03  0.25500000000E-02 0. -1.
    8880023    1    1    2    0    0  0.24764941450E+03  0.20829145464E+03 -0.11372778907E+03  0.74260337923E+03  0.65864270000E+03 0.  1.
    8880022    1    1    2    0    0 -0.24764941450E+03 -0.20829145464E+03 -0.37793721170E+03  0.52052257548E+03  0.15294330000E+03 0.  0.
<mgrwt>
<rscale>  0 0.61326635E+03</rscale>
<asrwt>0</asrwt>
<pdfrwt beam="1">  1        2 0.13498392E+00 0.73384315E+03</pdfrwt>
<pdfrwt beam="2">  1       -2 0.59343151E-01 0.73384315E+03</pdfrwt>
<totfact> 0.81711746E+01</totfact>
</mgrwt>
</event>
<event>
 4    1  0.8645356E-007  0.8673417E+03  0.7818608E-02  0.9580635E-01
          2   -1    0    0  501    0  0.00000000000E+00  0.00000000000E+00  0.94621668185E+03  0.94621668185E+03  0.25500000000E-02 0. -1.
         -2   -1    0    0    0  501 -0.00000000000E+00 -0.00000000000E+00 -0.90409613942E+03  0.90409613942E+03  0.25500000000E-02 0.  1.
    8880023    1    1    2    0    0  0.55805072739E+03  0.83968913381E+02 -0.54286865944E+03  0.10232243060E+04  0.65864270000E+03 0.  0.
    8880022    1    1    2    0    0 -0.55805072739E+03 -0.83968913381E+02  0.58498920188E+03  0.82708851526E+03  0.15294330000E+03 0.  0.
<mgrwt>
<rscale>  0 0.78591248E+03</rscale>
<asrwt>0</asrwt>
<pdfrwt beam="1">  1        2 0.14557180E+00 0.86734169E+03</pdfrwt>
<pdfrwt beam="2">  1       -2 0.13909171E+00 0.86734169E+03</pdfrwt>
<totfact> 0.10016056E+01</totfact>
</mgrwt>
</event>
<event>
 4    1  0.8645356E-007  0.7637841E+03  0.7818608E-02  0.9795408E-01
         -2   -1    0    0    0  501 -0.00000000000E+00  0.00000000000E+00  0.11005527442E+03  0.11005527445E+03  0.25500000000E-02 0.  1.
          2   -1    0    0  501    0  0.00000000000E+00 -0.00000000000E+00 -0.32549226362E+04  0.32549226362E+04  0.25500000000E-02 0. -1.
    8880023    1    1    2    0    0  0.15421366212E+03 -0.35464639187E+03 -0.17495033222E+04  0.19089599256E+04  0.65864270000E+03 0.  0.
    8880022    1    1    2    0    0 -0.15421366212E+03  0.35464639187E+03 -0.13953640396E+04  0.14560179851E+04  0.15294330000E+03 0.  0.
<mgrwt>
<rscale>  0 0.65609580E+03</rscale>
<asrwt>0</asrwt>
<pdfrwt beam="1">  1        2 0.50075726E+00 0.76378408E+03</pdfrwt>
<pdfrwt beam="2">  1       -2 0.16931583E-01 0.76378408E+03</pdfrwt>
<totfact> 0.36159809E+01</totfact>
</mgrwt>
</event>
<event>
 4    1  0.8645356E-007  0.8687686E+03  0.7818608E-02  0.9578152E-01
          2   -1    0    0  501    0  0.00000000000E+00  0.00000000000E+00  0.81055397962E+03  0.81055397962E+03  0.25500000000E-02 0. -1.
         -2   -1    0    0    0  501 -0.00000000000E+00 -0.00000000000E+00 -0.10919833906E+04  0.10919833906E+04  0.25500000000E-02 0.  1.
    8880023    1    1    2    0    0 -0.27884941603E+03  0.49314476129E+03 -0.75303756101E+03  0.11497062786E+04  0.65864270000E+03 0.  1.
    8880022    1    1    2    0    0  0.27884941603E+03 -0.49314476129E+03  0.47160815002E+03  0.75283109167E+03  0.15294330000E+03 0.  0.
<mgrwt>
<rscale>  0 0.78759255E+03</rscale>
<asrwt>0</asrwt>
<pdfrwt beam="1">  1        2 0.12470061E+00 0.86876865E+03</pdfrwt>
<pdfrwt beam="2">  1       -2 0.16799745E+00 0.86876865E+03</pdfrwt>
<totfact> 0.74885952E+00</totfact>
</mgrwt>
</event>
<event>
 4    1  0.8645356E-007  0.7082092E+03  0.7818608E-02  0.9964712E-01
          2   -1    0    0  501    0  0.00000000000E+00  0.00000000000E+00  0.33203588532E+04  0.33203588532E+04  0.25500000000E-02 0. -1.
         -2   -1    0    0    0  501 -0.00000000000E+00 -0.00000000000E+00 -0.16207601454E+03  0.16207601456E+03  0.25500000000E-02 0.  1.
    8880023    1    1    2    0    0 -0.94105341556E+01 -0.26011835108E+03  0.66677118449E+03  0.97269940549E+03  0.65864270000E+03 0.  1.
    8880022    1    1    2    0    0  0.94105341556E+01  0.26011835108E+03  0.24915116541E+04  0.25097354622E+04  0.15294330000E+03 0.  0.
<mgrwt>
<rscale>  0 0.57225009E+03</rscale>
<asrwt>0</asrwt>
<pdfrwt beam="1">  1        2 0.51082449E+00 0.70820924E+03</pdfrwt>
<pdfrwt beam="2">  1       -2 0.24934769E-01 0.70820924E+03</pdfrwt>
<totfact> 0.16771876E+01</totfact>
</mgrwt>
</event>
<event>
 4    1  0.8645356E-007  0.1093542E+04  0.7818608E-02  0.9268281E-01
          2   -1    0    0  501    0  0.00000000000E+00  0.00000000000E+00  0.18266999757E+04  0.18266999757E+04  0.25500000000E-02 0. -1.
         -2   -1    0    0    0  501 -0.00000000000E+00 -0.00000000000E+00 -0.61342474723E+03  0.61342474723E+03  0.25500000000E-02 0.  1.
    8880023    1    1    2    0    0 -0.71176736578E+03 -0.50538211304E+03  0.10923793530E+04  0.15456800187E+04  0.65864270000E+03 0.  0.
    8880022    1    1    2    0    0  0.71176736578E+03  0.50538211304E+03  0.12089587548E+03  0.89444470422E+03  0.15294330000E+03 0.  0.
<mgrwt>
<rscale>  0 0.10375619E+04</rscale>
<asrwt>0</asrwt>
<pdfrwt beam="1">  1        2 0.28103077E+00 0.10935420E+04</pdfrwt>
<pdfrwt beam="2">  1       -2 0.94373038E-01 0.10935420E+04</pdfrwt>
<totfact> 0.78065331E+00</totfact>
</mgrwt>
</event>
<event>
 4    1  0.8645356E-007  0.6856169E+03  0.7818608E-02  0.1006310E+00
          2   -1    0    0  501    0  0.00000000000E+00  0.00000000000E+00  0.27252014034E+04  0.27252014034E+04  0.25500000000E-02 0. -1.
         -2   -1    0    0    0  501 -0.00000000000E+00 -0.00000000000E+00 -0.11586745469E+03  0.11586745472E+03  0.25500000000E-02 0.  1.
    8880023    1    1    2    0    0 -0.56997280630E+02  0.18169089822E+03  0.99488127806E+03  0.12082463475E+04  0.65864270000E+03 0.  1.
    8880022    1    1    2    0    0  0.56997280630E+02 -0.18169089822E+03  0.16144526706E+04  0.16328225106E+04  0.15294330000E+03 0.  0.
<mgrwt>
<rscale>  0 0.52968073E+03</rscale>
<asrwt>0</asrwt>
<pdfrwt beam="1">  1        2 0.41926173E+00 0.68561686E+03</pdfrwt>
<pdfrwt beam="2">  1       -2 0.17825763E-01 0.68561686E+03</pdfrwt>
<totfact> 0.70576355E+01</totfact>
</mgrwt>
</event>
<event>
 4    1  0.8645356E-007  0.6651716E+03  0.7818608E-02  0.1019390E+00
         -2   -1    0    0    0  501 -0.00000000000E+00  0.00000000000E+00  0.43242685842E+03  0.43242685843E+03  0.25500000000E-02 0.  1.
          2   -1    0    0  501    0  0.00000000000E+00 -0.00000000000E+00 -0.60180377020E+03  0.60180377020E+03  0.25500000000E-02 0. -1.
    8880023    1    1    2    0    0  0.92013287102E+02 -0.13287249823E+02  0.13725458562E+03  0.67918482282E+03  0.65864270000E+03 0.  1.
    8880022    1    1    2    0    0 -0.92013287102E+02  0.13287249823E+02 -0.30663149740E+03  0.35504580581E+03  0.15294330000E+03 0.  0.
<mgrwt>
<rscale>  0 0.47907416E+03</rscale>
<asrwt>0</asrwt>
<pdfrwt beam="1">  1        2 0.92585195E-01 0.66517156E+03</pdfrwt>
<pdfrwt beam="2">  1       -2 0.66527209E-01 0.66517156E+03</pdfrwt>
<totfact> 0.10430780E+02</totfact>
</mgrwt>
</event>
<event>
 4    1  0.8645356E-007  0.8072982E+03  0.7818608E-02  0.9695232E-01
          2   -1    0    0  501    0  0.00000000000E+00  0.00000000000E+00  0.18102493195E+04  0.18102493195E+04  0.25500000000E-02 0. -1.
         -2   -1    0    0    0  501 -0.00000000000E+00 -0.00000000000E+00 -0.48120188692E+03  0.48120188692E+03  0.25500000000E-02 0.  1.
    8880023    1    1    2    0    0 -0.44628089348E+03  0.13694364868E+03 -0.68387362413E+02  0.81018962990E+03  0.65864270000E+03 0.  1.
    8880022    1    1    2    0    0  0.44628089348E+03 -0.13694364868E+03  0.13974347950E+04  0.14812615765E+04  0.15294330000E+03 0.  0.
<mgrwt>
<rscale>  0 0.71301362E+03</rscale>
<asrwt>0</asrwt>
<pdfrwt beam="1">  1        2 0.27849989E+00 0.80729821E+03</pdfrwt>
<pdfrwt beam="2">  1       -2 0.74031061E-01 0.80729821E+03</pdfrwt>
<totfact> 0.14314865E+01</totfact>
</mgrwt>
</event>
<event>
 4    1  0.8645356E-007  0.7058851E+03  0.7818608E-02  0.9973611E-01
         -2   -1    0    0    0  501 -0.00000000000E+00  0.00000000000E+00  0.80998787792E+03  0.80998787792E+03  0.25500000000E-02 0.  1.
          2   -1    0    0  501    0  0.00000000000E+00 -0.00000000000E+00 -0.69216210410E+03  0.69216210411E+03  0.25500000000E-02 0. -1.
    8880023    1    1    2    0    0 -0.16068671762E+03 -0.19657926689E+03  0.60647117409E+03  0.93063479446E+03  0.65864270000E+03 0.  1.
    8880022    1    1    2    0    0  0.16068671762E+03  0.19657926689E+03 -0.48864540028E+03  0.57151518757E+03  0.15294330000E+03 0.  0.
<mgrwt>
<rscale>  0 0.56822654E+03</rscale>
<asrwt>0</asrwt>
<pdfrwt beam="1">  1        2 0.10648648E+00 0.70588514E+03</pdfrwt>
<pdfrwt beam="2">  1       -2 0.12461352E+00 0.70588514E+03</pdfrwt>
<totfact> 0.20447847E+01</totfact>
</mgrwt>
</event>
<event>
 4    1  0.8729266E-007  0.6865553E+03  0.7818608E-02  0.1005835E+00
         -2   -1    0    0    0  501 -0.00000000000E+00  0.00000000000E+00  0.53657354890E+03  0.53657354891E+03  0.25500000000E-02 0.  1.
          2   -1    0    0  501    0  0.00000000000E+00 -0.00000000000E+00 -0.13429098477E+04  0.13429098477E+04  0.25500000000E-02 0. -1.
    8880023    1    1    2    0    0  0.16247932141E+03 -0.10558630554E+03  0.29760148072E+03  0.74828126089E+03  0.65864270000E+03 0.  1.
    8880022    1    1    2    0    0 -0.16247932141E+03  0.10558630554E+03 -0.11039377795E+04  0.11312021357E+04  0.15294330000E+03 0.  0.
<mgrwt>
<rscale>  0 0.53164183E+03</rscale>
<asrwt>0</asrwt>
<pdfrwt beam="1">  1        2 0.20660151E+00 0.68655532E+03</pdfrwt>
<pdfrwt beam="2">  1       -2 0.82549777E-01 0.68655532E+03</pdfrwt>
<totfact> 0.20686046E+01</totfact>
</mgrwt>
</event>
<event>
 4    1  0.8645356E-007  0.7280868E+03  0.7818608E-02  0.9896116E-01
         -2   -1    0    0    0  501 -0.00000000000E+00  0.00000000000E+00  0.49680844846E+03  0.49680844847E+03  0.25500000000E-02 0.  1.
          2   -1    0    0  501    0  0.00000000000E+00 -0.00000000000E+00 -0.81258750418E+03  0.81258750419E+03  0.25500000000E-02 0. -1.
    8880023    1    1    2    0    0 -0.79772492611E+02 -0.29989417539E+03  0.13567808404E+03  0.74062062877E+03  0.65864270000E+03 0.  0.
    8880022    1    1    2    0    0  0.79772492611E+02  0.29989417539E+03 -0.45145713976E+03  0.56877532388E+03  0.15294330000E+03 0.  0.
<mgrwt>
<rscale>  0 0.60449877E+03</rscale>
<asrwt>0</asrwt>
<pdfrwt beam="1">  1        2 0.12501346E+00 0.72808679E+03</pdfrwt>
<pdfrwt beam="2">  1       -2 0.76432069E-01 0.72808679E+03</pdfrwt>
<totfact> 0.52447599E+01</totfact>
</mgrwt>
</event>
<event>
 4    1  0.8645356E-007  0.7315070E+03  0.7818608E-02  0.9885415E-01
         -2   -1    0    0    0  501 -0.00000000000E+00  0.00000000000E+00  0.20284025261E+03  0.20284025262E+03  0.25500000000E-02 0.  1.
          2   -1    0    0  501    0  0.00000000000E+00 -0.00000000000E+00 -0.18781575935E+04  0.18781575935E+04  0.25500000000E-02 0. -1.
    8880023    1    1    2    0    0  0.26253232293E+03 -0.17991421371E+03 -0.59032430708E+03  0.93999220139E+03  0.65864270000E+03 0.  0.
    8880022    1    1    2    0    0 -0.26253232293E+03  0.17991421371E+03 -0.10849930338E+04  0.11410056447E+04  0.15294330000E+03 0.  0.
<mgrwt>
<rscale>  0 0.60973373E+03</rscale>
<asrwt>0</asrwt>
<pdfrwt beam="1">  1        2 0.28894731E+00 0.73150704E+03</pdfrwt>
<pdfrwt beam="2">  1       -2 0.31206194E-01 0.73150704E+03</pdfrwt>
<totfact> 0.76392664E+01</totfact>
</mgrwt>
</event>
<event>
 4    1  0.8645356E-007  0.1289171E+04  0.7818608E-02  0.9074968E-01
          2   -1    0    0  501    0  0.00000000000E+00  0.00000000000E+00  0.20457387745E+04  0.20457387745E+04  0.25500000000E-02 0. -1.
         -2   -1    0    0    0  501 -0.00000000000E+00 -0.00000000000E+00 -0.75472534813E+03  0.75472534814E+03  0.25500000000E-02 0.  1.
    8880023    1    1    2    0    0 -0.10633233285E+04  0.31224264639E+03  0.10339682287E+04  0.16525896270E+04  0.65864270000E+03 0.  0.
    8880022    1    1    2    0    0  0.10633233285E+04 -0.31224264639E+03  0.25704519774E+03  0.11478744957E+04  0.15294330000E+03 0.  0.
<mgrwt>
<rscale>  0 0.12442673E+04</rscale>
<asrwt>0</asrwt>
<pdfrwt beam="1">  1        2 0.31472904E+00 0.12891711E+04</pdfrwt>
<pdfrwt beam="2">  1       -2 0.11611159E+00 0.12891711E+04</pdfrwt>
<totfact> 0.35135315E+00</totfact>
</mgrwt>
</event>
<event>
 4    1  0.8645356E-007  0.9248846E+03  0.7818608E-02  0.9487210E-01
          2   -1    0    0  501    0  0.00000000000E+00  0.00000000000E+00  0.14927348585E+04  0.14927348585E+04  0.25500000000E-02 0. -1.
         -2   -1    0    0    0  501 -0.00000000000E+00 -0.00000000000E+00 -0.94367775083E+03  0.94367775084E+03  0.25500000000E-02 0.  1.
    8880023    1    1    2    0    0  0.57833541177E+03  0.29517685634E+03 -0.60375738221E+03  0.11045064092E+04  0.65864270000E+03 0.  0.
    8880022    1    1    2    0    0 -0.57833541177E+03 -0.29517685634E+03  0.11528144899E+04  0.13319062002E+04  0.15294330000E+03 0.  0.
<mgrwt>
<rscale>  0 0.85233393E+03</rscale>
<asrwt>0</asrwt>
<pdfrwt beam="1">  1        2 0.22965151E+00 0.92488455E+03</pdfrwt>
<pdfrwt beam="2">  1       -2 0.14518119E+00 0.92488455E+03</pdfrwt>
<totfact> 0.41923531E+00</totfact>
</mgrwt>
</event>
<event>
 4    1  0.8645356E-007  0.8289668E+03  0.7818608E-02  0.9651346E-01
         -2   -1    0    0    0  501 -0.00000000000E+00  0.00000000000E+00  0.51790764958E+03  0.51790764959E+03  0.25500000000E-02 0.  1.
          2   -1    0    0  501    0  0.00000000000E+00 -0.00000000000E+00 -0.17383552597E+04  0.17383552597E+04  0.25500000000E-02 0. -1.
    8880023    1    1    2    0    0  0.32910509810E+03 -0.38087468706E+03  0.99901235435E+02  0.83496476329E+03  0.65864270000E+03 0.  1.
    8880022    1    1    2    0    0 -0.32910509810E+03  0.38087468706E+03 -0.13203488455E+04  0.14212981460E+04  0.15294330000E+03 0.  0.
<mgrwt>
<rscale>  0 0.73989007E+03</rscale>
<asrwt>0</asrwt>
<pdfrwt beam="1">  1        2 0.26743927E+00 0.82896677E+03</pdfrwt>
<pdfrwt beam="2">  1       -2 0.79678101E-01 0.82896677E+03</pdfrwt>
<totfact> 0.13265298E+01</totfact>
</mgrwt>
</event>
<event>
 4    1  0.8645356E-007  0.8203838E+03  0.7818608E-02  0.9668341E-01
          2   -1    0    0  501    0  0.00000000000E+00  0.00000000000E+00  0.14857797326E+04  0.14857797326E+04  0.25500000000E-02 0. -1.
         -2   -1    0    0    0  501 -0.00000000000E+00 -0.00000000000E+00 -0.32945140765E+03  0.32945140766E+03  0.25500000000E-02 0.  1.
    8880023    1    1    2    0    0  0.11506849191E+03  0.47537201851E+03  0.96892308457E+03  0.12695831851E+04  0.65864270000E+03 0.  0.
    8880022    1    1    2    0    0 -0.11506849191E+03 -0.47537201851E+03  0.18740524034E+03  0.54564795513E+03  0.15294330000E+03 0.  0.
<mgrwt>
<rscale>  0 0.72933474E+03</rscale>
<asrwt>0</asrwt>
<pdfrwt beam="1">  1        2 0.22858149E+00 0.82038376E+03</pdfrwt>
<pdfrwt beam="2">  1       -2 0.50684833E-01 0.82038376E+03</pdfrwt>
<totfact> 0.48279622E+01</totfact>
</mgrwt>
</event>
<event>
 4    1  0.8645356E-007  0.8382848E+03  0.7818608E-02  0.9633423E-01
         -2   -1    0    0    0  501 -0.00000000000E+00  0.00000000000E+00  0.13584628013E+04  0.13584628013E+04  0.25500000000E-02 0.  1.
          2   -1    0    0  501    0  0.00000000000E+00 -0.00000000000E+00 -0.12238164827E+04  0.12238164827E+04  0.25500000000E-02 0. -1.
    8880023    1    1    2    0    0  0.14337624467E+03  0.49835171854E+03  0.11552321605E+04  0.14273341353E+04  0.65864270000E+03 0.  1.
    8880022    1    1    2    0    0 -0.14337624467E+03 -0.49835171854E+03 -0.10205858419E+04  0.11549451487E+04  0.15294330000E+03 0.  0.
<mgrwt>
<rscale>  0 0.75122982E+03</rscale>
<asrwt>0</asrwt>
<pdfrwt beam="1">  1        2 0.18827946E+00 0.83828479E+03</pdfrwt>
<pdfrwt beam="2">  1       -2 0.20899428E+00 0.83828479E+03</pdfrwt>
<totfact> 0.21621265E+00</totfact>
</mgrwt>
</event>
<event>
 4    1  0.1005002E-006  0.7120873E+03  0.7818608E-02  0.9950330E-01
         -2   -1    0    0    0  501 -0.00000000000E+00  0.00000000000E+00  0.63126421026E+03  0.63126421026E+03  0.25500000000E-02 0.  1.
          2   -1    0    0  501    0  0.00000000000E+00 -0.00000000000E+00 -0.17665414775E+04  0.17665414775E+04  0.25500000000E-02 0. -1.
    8880023    1    1    2    0    0 -0.18868885655E+03  0.19404804478E+03  0.40991868123E+03  0.82164570208E+03  0.65864270000E+03 0.  0.
    8880022    1    1    2    0    0  0.18868885655E+03 -0.19404804478E+03 -0.15451959485E+04  0.15761599857E+04  0.15294330000E+03 0. -1.
<mgrwt>
<rscale>  0 0.57882868E+03</rscale>
<asrwt>0</asrwt>
<pdfrwt beam="1">  1        2 0.27177561E+00 0.71208731E+03</pdfrwt>
<pdfrwt beam="2">  1       -2 0.97117572E-01 0.71208731E+03</pdfrwt>
<totfact> 0.82588524E+00</totfact>
</mgrwt>
</event>
<event>
 4    1  0.8645356E-007  0.8324086E+03  0.7818608E-02  0.9644664E-01
          2   -1    0    0  501    0  0.00000000000E+00  0.00000000000E+00  0.27127551239E+04  0.27127551239E+04  0.25500000000E-02 0. -1.
         -2   -1    0    0    0  501 -0.00000000000E+00 -0.00000000000E+00 -0.38776415900E+03  0.38776415900E+03  0.25500000000E-02 0.  1.
    8880023    1    1    2    0    0  0.47869693406E+03 -0.17304055505E+03  0.13049132069E+03  0.84257461355E+03  0.65864270000E+03 0.  1.
    8880022    1    1    2    0    0 -0.47869693406E+03  0.17304055505E+03  0.21944996442E+04  0.22579446693E+04  0.15294330000E+03 0.  0.
<mgrwt>
<rscale>  0 0.74409247E+03</rscale>
<asrwt>0</asrwt>
<pdfrwt beam="1">  1        2 0.41734695E+00 0.83240855E+03</pdfrwt>
<pdfrwt beam="2">  1       -2 0.59656023E-01 0.83240855E+03</pdfrwt>
<totfact> 0.71219689E+00</totfact>
</mgrwt>
</event>
<event>
 4    1  0.8645356E-007  0.1337403E+04  0.7818608E-02  0.9033915E-01
          2   -1    0    0  501    0  0.00000000000E+00  0.00000000000E+00  0.19657136452E+04  0.19657136452E+04  0.25500000000E-02 0. -1.
         -2   -1    0    0    0  501 -0.00000000000E+00 -0.00000000000E+00 -0.83379251927E+03  0.83379251927E+03  0.25500000000E-02 0.  1.
    8880023    1    1    2    0    0  0.19039556868E+03 -0.11482971848E+04  0.87359693437E+03  0.15974413001E+04  0.65864270000E+03 0.  0.
    8880022    1    1    2    0    0 -0.19039556868E+03  0.11482971848E+04  0.25832419160E+03  0.12020648644E+04  0.15294330000E+03 0.  0.
<mgrwt>
<rscale>  0 0.12945294E+04</rscale>
<asrwt>0</asrwt>
<pdfrwt beam="1">  1        2 0.30241748E+00 0.13374031E+04</pdfrwt>
<pdfrwt beam="2">  1       -2 0.12827577E+00 0.13374031E+04</pdfrwt>
<totfact> 0.30166658E+00</totfact>
</mgrwt>
</event>
<event>
 4    1  0.8645356E-007  0.8862643E+03  0.7818608E-02  0.9548451E-01
         -2   -1    0    0    0  501 -0.00000000000E+00  0.00000000000E+00  0.68855346694E+03  0.68855346694E+03  0.25500000000E-02 0.  1.
          2   -1    0    0  501    0  0.00000000000E+00 -0.00000000000E+00 -0.21815425663E+04  0.21815425663E+04  0.25500000000E-02 0. -1.
    8880023    1    1    2    0    0  0.11260232951E+03 -0.58221559761E+03  0.33098812245E+03  0.94605371421E+03  0.65864270000E+03 0.  1.
    8880022    1    1    2    0    0 -0.11260232951E+03  0.58221559761E+03 -0.18239772218E+04  0.19240423190E+04  0.15294330000E+03 0.  0.
<mgrwt>
<rscale>  0 0.80804029E+03</rscale>
<asrwt>0</asrwt>
<pdfrwt beam="1">  1        2 0.33562193E+00 0.88626435E+03</pdfrwt>
<pdfrwt beam="2">  1       -2 0.10593130E+00 0.88626435E+03</pdfrwt>
<totfact> 0.38762695E+00</totfact>
</mgrwt>
</event>
<event>
 4    1  0.8645356E-007  0.7754813E+03  0.7818608E-02  0.9766561E-01
         -2   -1    0    0    0  501 -0.00000000000E+00  0.00000000000E+00  0.10725456207E+04  0.10725456207E+04  0.25500000000E-02 0.  1.
          2   -1    0    0  501    0  0.00000000000E+00 -0.00000000000E+00 -0.67577175837E+03  0.67577175838E+03  0.25500000000E-02 0. -1.
    8880023    1    1    2    0    0 -0.40840411667E+03  0.27696890174E+02 -0.37502114564E+03  0.86140124575E+03  0.65864270000E+03 0.  0.
    8880022    1    1    2    0    0  0.40840411667E+03 -0.27696890174E+02  0.77179500798E+03  0.88691613335E+03  0.15294330000E+03 0.  0.
<mgrwt>
<rscale>  0 0.67188388E+03</rscale>
<asrwt>0</asrwt>
<pdfrwt beam="1">  1        2 0.10396489E+00 0.77548130E+03</pdfrwt>
<pdfrwt beam="2">  1       -2 0.16500702E+00 0.77548130E+03</pdfrwt>
<totfact> 0.10050058E+01</totfact>
</mgrwt>
</event>
<event>
 4    1  0.8645356E-007  0.6740895E+03  0.7818608E-02  0.1012886E+00
          2   -1    0    0  501    0  0.00000000000E+00  0.00000000000E+00  0.11717341592E+04  0.11717341592E+04  0.25500000000E-02 0. -1.
         -2   -1    0    0    0  501 -0.00000000000E+00 -0.00000000000E+00 -0.22305131204E+03  0.22305131206E+03  0.25500000000E-02 0.  1.
    8880023    1    1    2    0    0  0.14338772180E+03  0.51403238165E+01  0.34814322469E+03  0.75868331526E+03  0.65864270000E+03 0. -1.
    8880022    1    1    2    0    0 -0.14338772180E+03 -0.51403238165E+01  0.60053962243E+03  0.63610215596E+03  0.15294330000E+03 0. -1.
<mgrwt>
<rscale>  0 0.50343424E+03</rscale>
<asrwt>0</asrwt>
<pdfrwt beam="1">  1        2 0.18026679E+00 0.67408951E+03</pdfrwt>
<pdfrwt beam="2">  1       -2 0.34315587E-01 0.67408951E+03</pdfrwt>
<totfact> 0.15952229E+02</totfact>
</mgrwt>
</event>
<event>
 4    1  0.8645356E-007  0.1074722E+04  0.7818608E-02  0.9289735E-01
          2   -1    0    0  501    0  0.00000000000E+00  0.00000000000E+00  0.24613815294E+04  0.24613815294E+04  0.25500000000E-02 0. -1.
         -2   -1    0    0    0  501 -0.00000000000E+00 -0.00000000000E+00 -0.67805354770E+03  0.67805354770E+03  0.25500000000E-02 0.  1.
    8880023    1    1    2    0    0 -0.59711505186E+03 -0.60388055469E+03 -0.88421648433E+02  0.10783537006E+04  0.65864270000E+03 0.  0.
    8880022    1    1    2    0    0  0.59711505186E+03  0.60388055469E+03  0.18717496301E+04  0.20610813765E+04  0.15294330000E+03 0.  0.
<mgrwt>
<rscale>  0 0.10173335E+04</rscale>
<asrwt>0</asrwt>
<pdfrwt beam="1">  1        2 0.37867408E+00 0.10747224E+04</pdfrwt>
<pdfrwt beam="2">  1       -2 0.10431593E+00 0.10747224E+04</pdfrwt>
<totfact> 0.27296827E+00</totfact>
</mgrwt>
</event>
<event>
 4    1  0.8645356E-007  0.8590557E+03  0.7818608E-02  0.9595245E-01
          2   -1    0    0  501    0  0.00000000000E+00  0.00000000000E+00  0.13604498119E+04  0.13604498119E+04  0.25500000000E-02 0. -1.
         -2   -1    0    0    0  501 -0.00000000000E+00 -0.00000000000E+00 -0.80728607813E+03  0.80728607813E+03  0.25500000000E-02 0.  1.
    8880023    1    1    2    0    0 -0.16446985419E+03  0.52641818615E+03 -0.48189196527E+03  0.98498553904E+03  0.65864270000E+03 0.  0.
    8880022    1    1    2    0    0  0.16446985419E+03 -0.52641818615E+03  0.10350556990E+04  0.11827503510E+04  0.15294330000E+03 0.  0.
<mgrwt>
<rscale>  0 0.77611669E+03</rscale>
<asrwt>0</asrwt>
<pdfrwt beam="1">  1        2 0.20929997E+00 0.85905567E+03</pdfrwt>
<pdfrwt beam="2">  1       -2 0.12419786E+00 0.85905567E+03</pdfrwt>
<totfact> 0.74933934E+00</totfact>
</mgrwt>
</event>
<event>
 4    1  0.8645356E-007  0.7549794E+03  0.7818608E-02  0.9818283E-01
          2   -1    0    0  501    0  0.00000000000E+00  0.00000000000E+00  0.32006464860E+04  0.32006464860E+04  0.25500000000E-02 0. -1.
         -2   -1    0    0    0  501 -0.00000000000E+00 -0.00000000000E+00 -0.24936765249E+03  0.24936765250E+03  0.25500000000E-02 0.  1.
    8880023    1    1    2    0    0  0.19222043035E+03  0.31501587832E+03  0.37506078067E+03  0.84300918909E+03  0.65864270000E+03 0.  0.
    8880022    1    1    2    0    0 -0.19222043035E+03 -0.31501587832E+03  0.25762180528E+04  0.26070049494E+04  0.15294330000E+03 0.  0.
<mgrwt>
<rscale>  0 0.64390538E+03</rscale>
<asrwt>0</asrwt>
<pdfrwt beam="1">  1        2 0.49240715E+00 0.75497941E+03</pdfrwt>
<pdfrwt beam="2">  1       -2 0.38364254E-01 0.75497941E+03</pdfrwt>
<totfact> 0.88881345E+00</totfact>
</mgrwt>
</event>
<event>
 4    1  0.8645356E-007  0.7090013E+03  0.7818608E-02  0.9961728E-01
         -2   -1    0    0    0  501 -0.00000000000E+00  0.00000000000E+00  0.22415434312E+03  0.22415434313E+03  0.25500000000E-02 0.  1.
          2   -1    0    0  501    0  0.00000000000E+00 -0.00000000000E+00 -0.20916696043E+04  0.20916696043E+04  0.25500000000E-02 0. -1.
    8880023    1    1    2    0    0  0.24516321227E+03  0.93635548625E+02 -0.39358509805E+03  0.81092049690E+03  0.65864270000E+03 0.  0.
    8880022    1    1    2    0    0 -0.24516321227E+03 -0.93635548625E+02 -0.14739301631E+04  0.15049034505E+04  0.15294330000E+03 0.  0.
<mgrwt>
<rscale>  0 0.57360702E+03</rscale>
<asrwt>0</asrwt>
<pdfrwt beam="1">  1        2 0.32179531E+00 0.70900129E+03</pdfrwt>
<pdfrwt beam="2">  1       -2 0.34485285E-01 0.70900129E+03</pdfrwt>
<totfact> 0.48545212E+01</totfact>
</mgrwt>
</event>
<event>
 4    1  0.8645356E-007  0.6652772E+03  0.7818608E-02  0.1019302E+00
         -2   -1    0    0    0  501 -0.00000000000E+00  0.00000000000E+00  0.35088843485E+03  0.35088843486E+03  0.25500000000E-02 0.  1.
          2   -1    0    0  501    0  0.00000000000E+00 -0.00000000000E+00 -0.14462513304E+04  0.14462513304E+04  0.25500000000E-02 0. -1.
    8880023    1    1    2    0    0 -0.88056542582E+02 -0.32087713083E+02  0.21833117197E+02  0.66563538615E+03  0.65864270000E+03 0.  1.
    8880022    1    1    2    0    0  0.88056542582E+02  0.32087713083E+02 -0.11171960127E+04  0.11315043791E+04  0.15294330000E+03 0.  0.
<mgrwt>
<rscale>  0 0.47939356E+03</rscale>
<asrwt>0</asrwt>
<pdfrwt beam="1">  1        2 0.22250020E+00 0.66527722E+03</pdfrwt>
<pdfrwt beam="2">  1       -2 0.53982837E-01 0.66527722E+03</pdfrwt>
<totfact> 0.45373043E+01</totfact>
</mgrwt>
</event>
<event>
 4    1  0.8645356E-007  0.7996163E+03  0.7818608E-02  0.9711626E-01
         -2   -1    0    0    0  501 -0.00000000000E+00  0.00000000000E+00  0.24315873740E+03  0.24315873742E+03  0.25500000000E-02 0.  1.
          2   -1    0    0  501    0  0.00000000000E+00 -0.00000000000E+00 -0.29618594205E+04  0.29618594205E+04  0.25500000000E-02 0. -1.
    8880023    1    1    2    0    0 -0.31690271881E+03  0.32426628716E+03 -0.51763459342E+03  0.95253962477E+03  0.65864270000E+03 0.  1.
    8880022    1    1    2    0    0  0.31690271881E+03 -0.32426628716E+03 -0.22010660897E+04  0.22524785332E+04  0.15294330000E+03 0.  0.
<mgrwt>
<rscale>  0 0.70328762E+03</rscale>
<asrwt>0</asrwt>
<pdfrwt beam="1">  1        2 0.45567066E+00 0.79961626E+03</pdfrwt>
<pdfrwt beam="2">  1       -2 0.37409038E-01 0.79961626E+03</pdfrwt>
<totfact> 0.13037459E+01</totfact>
</mgrwt>
</event>
<event>
 4    1  0.8645356E-007  0.8608227E+03  0.7818608E-02  0.9592102E-01
         -2   -1    0    0    0  501 -0.00000000000E+00  0.00000000000E+00  0.43587650429E+03  0.43587650430E+03  0.25500000000E-02 0.  1.
          2   -1    0    0  501    0  0.00000000000E+00 -0.00000000000E+00 -0.16776614874E+04  0.16776614875E+04  0.25500000000E-02 0. -1.
    8880023    1    1    2    0    0 -0.38883736324E+03  0.39498238863E+03 -0.14191100544E+03  0.87244170127E+03  0.65864270000E+03 0.  0.
    8880022    1    1    2    0    0  0.38883736324E+03 -0.39498238863E+03 -0.10998739777E+04  0.12410962905E+04  0.15294330000E+03 0.  1.
<mgrwt>
<rscale>  0 0.77821160E+03</rscale>
<asrwt>0</asrwt>
<pdfrwt beam="1">  1        2 0.25810176E+00 0.86082274E+03</pdfrwt>
<pdfrwt beam="2">  1       -2 0.67057925E-01 0.86082274E+03</pdfrwt>
<totfact> 0.20882286E+01</totfact>
</mgrwt>
</event>
<event>
 4    1  0.8645356E-007  0.6970603E+03  0.7818608E-02  0.1000962E+00
         -2   -1    0    0    0  501 -0.00000000000E+00  0.00000000000E+00  0.13208259958E+03  0.13208259960E+03  0.25500000000E-02 0.  1.
          2   -1    0    0  501    0  0.00000000000E+00 -0.00000000000E+00 -0.24678025464E+04  0.24678025464E+04  0.25500000000E-02 0. -1.
    8880023    1    1    2    0    0  0.20054800611E+03  0.10891897361E+03 -0.90133810895E+03  0.11394311908E+04  0.65864270000E+03 0.  0.
    8880022    1    1    2    0    0 -0.20054800611E+03 -0.10891897361E+03 -0.14343818379E+04  0.14604539553E+04  0.15294330000E+03 0. -1.
<mgrwt>
<rscale>  0 0.55230349E+03</rscale>
<asrwt>0</asrwt>
<pdfrwt beam="1">  1        2 0.37966189E+00 0.69706029E+03</pdfrwt>
<pdfrwt beam="2">  1       -2 0.20320402E-01 0.69706029E+03</pdfrwt>
<totfact> 0.78809532E+01</totfact>
</mgrwt>
</event>
<event>
 4    1  0.8645356E-007  0.1033033E+04  0.7818608E-02  0.9339562E-01
          2   -1    0    0  501    0  0.00000000000E+00  0.00000000000E+00  0.10352305539E+04  0.10352305539E+04  0.25500000000E-02 0. -1.
         -2   -1    0    0    0  501 -0.00000000000E+00 -0.00000000000E+00 -0.17866166084E+04  0.17866166084E+04  0.25500000000E-02 0.  1.
    8880023    1    1    2    0    0  0.63699241816E+03 -0.47706134744E+03 -0.14305105847E+04  0.17645162536E+04  0.65864270000E+03 0.  1.
    8880022    1    1    2    0    0 -0.63699241816E+03  0.47706134744E+03  0.67912453021E+03  0.10573309087E+04  0.15294330000E+03 0.  0.
<mgrwt>
<rscale>  0 0.97220912E+03</rscale>
<asrwt>0</asrwt>
<pdfrwt beam="1">  1        2 0.15926624E+00 0.10330330E+04</pdfrwt>
<pdfrwt beam="2">  1       -2 0.27486409E+00 0.10330330E+04</pdfrwt>
<totfact> 0.10778502E+00</totfact>
</mgrwt>
</event>
<event>
 4    1  0.8645356E-007  0.6781998E+03  0.7818608E-02  0.1010361E+00
         -2   -1    0    0    0  501 -0.00000000000E+00  0.00000000000E+00  0.27387522232E+03  0.27387522233E+03  0.25500000000E-02 0.  1.
          2   -1    0    0  501    0  0.00000000000E+00 -0.00000000000E+00 -0.20422673957E+04  0.20422673957E+04  0.25500000000E-02 0. -1.
    8880023    1    1    2    0    0  0.58970078977E+02 -0.15055676270E+03 -0.16580427044E+03  0.69817338202E+03  0.65864270000E+03 0.  1.
    8880022    1    1    2    0    0 -0.58970078977E+02  0.15055676270E+03 -0.16025879030E+04  0.16179692361E+04  0.15294330000E+03 0.  0.
<mgrwt>
<rscale>  0 0.51331491E+03</rscale>
<asrwt>0</asrwt>
<pdfrwt beam="1">  1        2 0.31419497E+00 0.67819983E+03</pdfrwt>
<pdfrwt beam="2">  1       -2 0.42134651E-01 0.67819983E+03</pdfrwt>
<totfact> 0.35230362E+01</totfact>
</mgrwt>
</event>
<event>
 4    1  0.8645356E-007  0.8050865E+03  0.7818608E-02  0.9699904E-01
          2   -1    0    0  501    0  0.00000000000E+00  0.00000000000E+00  0.23642483876E+04  0.23642483876E+04  0.25500000000E-02 0. -1.
         -2   -1    0    0    0  501 -0.00000000000E+00 -0.00000000000E+00 -0.33796283509E+03  0.33796283510E+03  0.25500000000E-02 0.  1.
    8880023    1    1    2    0    0 -0.37648451717E+03 -0.26946895476E+03  0.22476638002E+03  0.83587334034E+03  0.65864270000E+03 0.  0.
    8880022    1    1    2    0    0  0.37648451717E+03  0.26946895476E+03  0.18015191725E+04  0.18663378824E+04  0.15294330000E+03 0.  0.
<mgrwt>
<rscale>  0 0.71022510E+03</rscale>
<asrwt>0</asrwt>
<pdfrwt beam="1">  1        2 0.36373052E+00 0.80508653E+03</pdfrwt>
<pdfrwt beam="2">  1       -2 0.51994282E-01 0.80508653E+03</pdfrwt>
<totfact> 0.15064952E+01</totfact>
</mgrwt>
</event>
<event>
 4    1  0.8645356E-007  0.6824081E+03  0.7818608E-02  0.1007993E+00
          2   -1    0    0  501    0  0.00000000000E+00  0.00000000000E+00  0.18311994675E+04  0.18311994675E+04  0.25500000000E-02 0. -1.
         -2   -1    0    0    0  501 -0.00000000000E+00 -0.00000000000E+00 -0.16090822538E+03  0.16090822540E+03  0.25500000000E-02 0.  1.
    8880023    1    1    2    0    0  0.96514986463E+02  0.15018481229E+03  0.64077937464E+03  0.93609776930E+03  0.65864270000E+03 0.  1.
    8880022    1    1    2    0    0 -0.96514986463E+02 -0.15018481229E+03  0.10295118675E+04  0.10560099236E+04  0.15294330000E+03 0.  0.
<mgrwt>
<rscale>  0 0.52280138E+03</rscale>
<asrwt>0</asrwt>
<pdfrwt beam="1">  1        2 0.28172298E+00 0.68240811E+03</pdfrwt>
<pdfrwt beam="2">  1       -2 0.24755113E-01 0.68240811E+03</pdfrwt>
<totfact> 0.12450380E+02</totfact>
</mgrwt>
</event>
<event>
 4    1  0.8645356E-007  0.8323823E+03  0.7818608E-02  0.9644715E-01
         -2   -1    0    0    0  501 -0.00000000000E+00  0.00000000000E+00  0.47063541738E+03  0.47063541739E+03  0.25500000000E-02 0.  1.
          2   -1    0    0  501    0  0.00000000000E+00 -0.00000000000E+00 -0.10996744559E+04  0.10996744559E+04  0.25500000000E-02 0. -1.
    8880023    1    1    2    0    0  0.20283209402E+03 -0.46680745528E+03 -0.13225479094E+03  0.84282358454E+03  0.65864270000E+03 0.  0.
    8880022    1    1    2    0    0 -0.20283209402E+03  0.46680745528E+03 -0.49678424761E+03  0.72748628878E+03  0.15294330000E+03 0.  0.
<mgrwt>
<rscale>  0 0.74406046E+03</rscale>
<asrwt>0</asrwt>
<pdfrwt beam="1">  1        2 0.16918069E+00 0.83238228E+03</pdfrwt>
<pdfrwt beam="2">  1       -2 0.72405449E-01 0.83238228E+03</pdfrwt>
<totfact> 0.37977391E+01</totfact>
</mgrwt>
</event>
<event>
 4    1  0.8645356E-007  0.7079984E+03  0.7818608E-02  0.9965510E-01
         -2   -1    0    0    0  501 -0.00000000000E+00  0.00000000000E+00  0.13384259540E+04  0.13384259540E+04  0.25500000000E-02 0.  1.
          2   -1    0    0  501    0  0.00000000000E+00 -0.00000000000E+00 -0.16664697698E+04  0.16664697698E+04  0.25500000000E-02 0. -1.
    8880023    1    1    2    0    0 -0.24754238078E+03 -0.78576428058E+02  0.12293264877E+04  0.14186279656E+04  0.65864270000E+03 0.  1.
    8880022    1    1    2    0    0  0.24754238078E+03  0.78576428058E+02 -0.15573703035E+04  0.15862677581E+04  0.15294330000E+03 0.  0.
<mgrwt>
<rscale>  0 0.57188764E+03</rscale>
<asrwt>0</asrwt>
<pdfrwt beam="1">  1        2 0.25637997E+00 0.70799837E+03</pdfrwt>
<pdfrwt beam="2">  1       -2 0.20591168E+00 0.70799837E+03</pdfrwt>
<totfact> 0.13024311E+00</totfact>
</mgrwt>
</event>
<event>
 4    1  0.8645356E-007  0.7027176E+03  0.7818608E-02  0.9986109E-01
          2   -1    0    0  501    0  0.00000000000E+00  0.00000000000E+00  0.10124269582E+04  0.10124269582E+04  0.25500000000E-02 0. -1.
         -2   -1    0    0    0  501 -0.00000000000E+00 -0.00000000000E+00 -0.49545765478E+03  0.49545765478E+03  0.25500000000E-02 0.  1.
    8880023    1    1    2    0    0 -0.24024095551E+03 -0.47813305365E+02 -0.20358726667E+03  0.73161452301E+03  0.65864270000E+03 0.  1.
    8880022    1    1    2    0    0  0.24024095551E+03  0.47813305365E+02  0.72055657012E+03  0.77627009000E+03  0.15294330000E+03 0.  0.
<mgrwt>
<rscale>  0 0.56263551E+03</rscale>
<asrwt>0</asrwt>
<pdfrwt beam="1">  1        2 0.15575799E+00 0.70271761E+03</pdfrwt>
<pdfrwt beam="2">  1       -2 0.76224255E-01 0.70271761E+03</pdfrwt>
<totfact> 0.38876759E+01</totfact>
</mgrwt>
</event>
<event>
 4    1  0.8645356E-007  0.8492928E+03  0.7818608E-02  0.9612901E-01
         -2   -1    0    0    0  501 -0.00000000000E+00  0.00000000000E+00  0.12547498716E+04  0.12547498716E+04  0.25500000000E-02 0.  1.
          2   -1    0    0  501    0  0.00000000000E+00 -0.00000000000E+00 -0.13210331797E+04  0.13210331797E+04  0.25500000000E-02 0. -1.
    8880023    1    1    2    0    0 -0.34510740030E+03 -0.41035214703E+03  0.10365293832E+04  0.13400340931E+04  0.65864270000E+03 0.  1.
    8880022    1    1    2    0    0  0.34510740030E+03  0.41035214703E+03 -0.11028126914E+04  0.12357489581E+04  0.15294330000E+03 0.  0.
<mgrwt>
<rscale>  0 0.76448172E+03</rscale>
<asrwt>0</asrwt>
<pdfrwt beam="1">  1        2 0.20323587E+00 0.84929277E+03</pdfrwt>
<pdfrwt beam="2">  1       -2 0.19303844E+00 0.84929277E+03</pdfrwt>
<totfact> 0.24063584E+00</totfact>
</mgrwt>
</event>
<event>
 4    1  0.8645356E-007  0.6926611E+03  0.7818608E-02  0.1002913E+00
          2   -1    0    0  501    0  0.00000000000E+00  0.00000000000E+00  0.33110980628E+03  0.33110980629E+03  0.25500000000E-02 0. -1.
         -2   -1    0    0    0  501 -0.00000000000E+00 -0.00000000000E+00 -0.91975996190E+03  0.91975996191E+03  0.25500000000E-02 0.  1.
    8880023    1    1    2    0    0  0.36999840843E+02 -0.21118750338E+03 -0.10556551163E+03  0.70065928476E+03  0.65864270000E+03 0. -1.
    8880022    1    1    2    0    0 -0.36999840843E+02  0.21118750338E+03 -0.48308464399E+03  0.55021048344E+03  0.15294330000E+03 0.  0.
<mgrwt>
<rscale>  0 0.54391351E+03</rscale>
<asrwt>0</asrwt>
<pdfrwt beam="1">  1        2 0.50939971E-01 0.69266107E+03</pdfrwt>
<pdfrwt beam="2">  1       -2 0.14150153E+00 0.69266107E+03</pdfrwt>
<totfact> 0.34889182E+01</totfact>
</mgrwt>
</event>
<event>
 4    1  0.8645356E-007  0.7270048E+03  0.7818608E-02  0.9899560E-01
         -2   -1    0    0    0  501 -0.00000000000E+00  0.00000000000E+00  0.19598243607E+03  0.19598243609E+03  0.25500000000E-02 0.  1.
          2   -1    0    0  501    0  0.00000000000E+00 -0.00000000000E+00 -0.20289988760E+04  0.20289988760E+04  0.25500000000E-02 0. -1.
    8880023    1    1    2    0    0 -0.73463332957E+02 -0.29887947706E+03 -0.59288884735E+03  0.93811150439E+03  0.65864270000E+03 0.  0.
    8880022    1    1    2    0    0  0.73463332957E+02  0.29887947706E+03 -0.12401275926E+04  0.12868698077E+04  0.15294330000E+03 0.  0.
<mgrwt>
<rscale>  0 0.60282635E+03</rscale>
<asrwt>0</asrwt>
<pdfrwt beam="1">  1        2 0.31215366E+00 0.72700482E+03</pdfrwt>
<pdfrwt beam="2">  1       -2 0.30151145E-01 0.72700482E+03</pdfrwt>
<totfact> 0.67436512E+01</totfact>
</mgrwt>
</event>
<event>
 4    1  0.8645356E-007  0.8302572E+03  0.7818608E-02  0.9648832E-01
         -2   -1    0    0    0  501 -0.00000000000E+00  0.00000000000E+00  0.35552593768E+03  0.35552593769E+03  0.25500000000E-02 0.  1.
          2   -1    0    0  501    0  0.00000000000E+00 -0.00000000000E+00 -0.13565051981E+04  0.13565051981E+04  0.25500000000E-02 0. -1.
    8880023    1    1    2    0    0 -0.15634209781E+03 -0.48070156685E+03 -0.43271681388E+03  0.93625364896E+03  0.65864270000E+03 0.  1.
    8880022    1    1    2    0    0  0.15634209781E+03  0.48070156685E+03 -0.56826244654E+03  0.77577748684E+03  0.15294330000E+03 0. -1.
<mgrwt>
<rscale>  0 0.74146766E+03</rscale>
<asrwt>0</asrwt>
<pdfrwt beam="1">  1        2 0.20869311E+00 0.83025722E+03</pdfrwt>
<pdfrwt beam="2">  1       -2 0.54696299E-01 0.83025722E+03</pdfrwt>
<totfact> 0.48788093E+01</totfact>
</mgrwt>
</event>
<event>
 4    1  0.8645356E-007  0.7249046E+03  0.7818608E-02  0.9906327E-01
          2   -1    0    0  501    0  0.00000000000E+00  0.00000000000E+00  0.32441904352E+03  0.32441904353E+03  0.25500000000E-02 0. -1.
         -2   -1    0    0    0  501 -0.00000000000E+00 -0.00000000000E+00 -0.11929075879E+04  0.11929075879E+04  0.25500000000E-02 0.  1.
    8880023    1    1    2    0    0  0.27875757090E+03 -0.11819791752E+03 -0.92313120814E+03  0.11737367527E+04  0.65864270000E+03 0.  1.
    8880022    1    1    2    0    0 -0.27875757090E+03  0.11819791752E+03  0.54642663735E+02  0.34358987871E+03  0.15294330000E+03 0.  0.
<mgrwt>
<rscale>  0 0.59955643E+03</rscale>
<asrwt>0</asrwt>
<pdfrwt beam="1">  1        2 0.49910623E-01 0.72490464E+03</pdfrwt>
<pdfrwt beam="2">  1       -2 0.18352424E+00 0.72490464E+03</pdfrwt>
<totfact> 0.17556412E+01</totfact>
</mgrwt>
</event>
<event>
 4    1  0.8645356E-007  0.1361563E+04  0.7818608E-02  0.9014139E-01
         -2   -1    0    0    0  501 -0.00000000000E+00  0.00000000000E+00  0.12373152672E+04  0.12373152672E+04  0.25500000000E-02 0.  1.
          2   -1    0    0  501    0  0.00000000000E+00 -0.00000000000E+00 -0.22478601634E+04  0.22478601634E+04  0.25500000000E-02 0. -1.
    8880023    1    1    2    0    0  0.11695595669E+04 -0.22841855193E+03  0.58998519224E+03  0.14838926338E+04  0.65864270000E+03 0.  0.
    8880022    1    1    2    0    0 -0.11695595669E+04  0.22841855193E+03 -0.16005300885E+04  0.20012827967E+04  0.15294330000E+03 0.  0.
<mgrwt>
<rscale>  0 0.13196328E+04</rscale>
<asrwt>0</asrwt>
<pdfrwt beam="1">  1        2 0.34582464E+00 0.13615634E+04</pdfrwt>
<pdfrwt beam="2">  1       -2 0.19035619E+00 0.13615634E+04</pdfrwt>
<totfact> 0.71378660E-01</totfact>
</mgrwt>
</event>
<event>
 4    1  0.8645356E-007  0.1247032E+04  0.7818608E-02  0.9112707E-01
         -2   -1    0    0    0  501 -0.00000000000E+00  0.00000000000E+00  0.11858442548E+04  0.11858442548E+04  0.25500000000E-02 0.  1.
          2   -1    0    0  501    0  0.00000000000E+00 -0.00000000000E+00 -0.22296080486E+04  0.22296080486E+04  0.25500000000E-02 0. -1.
    8880023    1    1    2    0    0 -0.68194885371E+03 -0.81007602222E+03  0.65443901397E+03  0.14083245472E+04  0.65864270000E+03 0.  0.
    8880022    1    1    2    0    0  0.68194885371E+03  0.81007602222E+03 -0.16982028077E+04  0.20071277562E+04  0.15294330000E+03 0.  0.
<mgrwt>
<rscale>  0 0.12001708E+04</rscale>
<asrwt>0</asrwt>
<pdfrwt beam="1">  1        2 0.34301662E+00 0.12470315E+04</pdfrwt>
<pdfrwt beam="2">  1       -2 0.18243758E+00 0.12470315E+04</pdfrwt>
<totfact> 0.83870594E-01</totfact>
</mgrwt>
</event>
<event>
 4    1  0.8645356E-007  0.6895804E+03  0.7818608E-02  0.1004353E+00
          2   -1    0    0  501    0  0.00000000000E+00  0.00000000000E+00  0.14661984556E+04  0.14661984556E+04  0.25500000000E-02 0. -1.
         -2   -1    0    0    0  501 -0.00000000000E+00 -0.00000000000E+00 -0.58346897392E+03  0.58346897393E+03  0.25500000000E-02 0.  1.
    8880023    1    1    2    0    0 -0.46179296416E+02 -0.19894316734E+03 -0.36216119031E+03  0.77889784008E+03  0.65864270000E+03 0.  1.
    8880022    1    1    2    0    0  0.46179296416E+02  0.19894316734E+03  0.12448906720E+04  0.12707695894E+04  0.15294330000E+03 0.  0.
<mgrwt>
<rscale>  0 0.53782185E+03</rscale>
<asrwt>0</asrwt>
<pdfrwt beam="1">  1        2 0.22556899E+00 0.68958039E+03</pdfrwt>
<pdfrwt beam="2">  1       -2 0.89764459E-01 0.68958039E+03</pdfrwt>
<totfact> 0.14555754E+01</totfact>
</mgrwt>
</event>
<event>
 4    1  0.8645356E-007  0.1159479E+04  0.7818608E-02  0.9197555E-01
          2   -1    0    0  501    0  0.00000000000E+00  0.00000000000E+00  0.29442350779E+04  0.29442350779E+04  0.25500000000E-02 0. -1.
         -2   -1    0    0    0  501 -0.00000000000E+00 -0.00000000000E+00 -0.58221134156E+03  0.58221134156E+03  0.25500000000E-02 0.  1.
    8880023    1    1    2    0    0 -0.10804106071E+03  0.94810780865E+03  0.22506859059E+03  0.11811212319E+04  0.65864270000E+03 0.  0.
    8880022    1    1    2    0    0  0.10804106071E+03 -0.94810780865E+03  0.21369551458E+04  0.23453251876E+04  0.15294330000E+03 0.  0.
<mgrwt>
<rscale>  0 0.11078704E+04</rscale>
<asrwt>0</asrwt>
<pdfrwt beam="1">  1        2 0.45295923E+00 0.11594790E+04</pdfrwt>
<pdfrwt beam="2">  1       -2 0.89570978E-01 0.11594790E+04</pdfrwt>
<totfact> 0.20083029E+00</totfact>
</mgrwt>
</event>
<event>
 4    1  0.8645356E-007  0.8220810E+03  0.7818608E-02  0.9664941E-01
          2   -1    0    0  501    0  0.00000000000E+00  0.00000000000E+00  0.22844466454E+04  0.22844466454E+04  0.25500000000E-02 0. -1.
         -2   -1    0    0    0  501 -0.00000000000E+00 -0.00000000000E+00 -0.45474622523E+03  0.45474622523E+03  0.25500000000E-02 0.  1.
    8880023    1    1    2    0    0 -0.49193775590E+03  0.20661797747E+01 -0.16719707590E+02  0.82225104418E+03  0.65864270000E+03 0.  1.
    8880022    1    1    2    0    0  0.49193775590E+03 -0.20661797747E+01  0.18464201277E+04  0.19169418264E+04  0.15294330000E+03 0.  0.
<mgrwt>
<rscale>  0 0.73143092E+03</rscale>
<asrwt>0</asrwt>
<pdfrwt beam="1">  1        2 0.35145333E+00 0.82208104E+03</pdfrwt>
<pdfrwt beam="2">  1       -2 0.69960958E-01 0.82208104E+03</pdfrwt>
<totfact> 0.88805578E+00</totfact>
</mgrwt>
</event>
<event>
 4    1  0.8645356E-007  0.9745821E+03  0.7818608E-02  0.9415594E-01
         -2   -1    0    0    0  501 -0.00000000000E+00  0.00000000000E+00  0.53994824403E+03  0.53994824404E+03  0.25500000000E-02 0.  1.
          2   -1    0    0  501    0  0.00000000000E+00 -0.00000000000E+00 -0.15999596160E+04  0.15999596160E+04  0.25500000000E-02 0. -1.
    8880023    1    1    2    0    0 -0.50965717004E+03  0.50621114701E+03 -0.17554189286E+03  0.99026527696E+03  0.65864270000E+03 0.  0.
    8880022    1    1    2    0    0  0.50965717004E+03 -0.50621114701E+03 -0.88446947908E+03  0.11496425831E+04  0.15294330000E+03 0.  0.
<mgrwt>
<rscale>  0 0.90803352E+03</rscale>
<asrwt>0</asrwt>
<pdfrwt beam="1">  1        2 0.24614763E+00 0.97458215E+03</pdfrwt>
<pdfrwt beam="2">  1       -2 0.83068961E-01 0.97458215E+03</pdfrwt>
<totfact> 0.14160304E+01</totfact>
</mgrwt>
</event>
<event>
 4    1  0.8645356E-007  0.7728823E+03  0.7818608E-02  0.9772830E-01
         -2   -1    0    0    0  501 -0.00000000000E+00  0.00000000000E+00  0.48354483133E+03  0.48354483134E+03  0.25500000000E-02 0.  1.
          2   -1    0    0  501    0  0.00000000000E+00 -0.00000000000E+00 -0.89364089312E+03  0.89364089312E+03  0.25500000000E-02 0. -1.
    8880023    1    1    2    0    0  0.40433106757E+03 -0.72920426837E+01  0.11972851501E+02  0.77297499411E+03  0.65864270000E+03 0.  1.
    8880022    1    1    2    0    0 -0.40433106757E+03  0.72920426837E+01 -0.42206891329E+03  0.60421073035E+03  0.15294330000E+03 0.  0.
<mgrwt>
<rscale>  0 0.66841229E+03</rscale>
<asrwt>0</asrwt>
<pdfrwt beam="1">  1        2 0.13748321E+00 0.77288226E+03</pdfrwt>
<pdfrwt beam="2">  1       -2 0.74391513E-01 0.77288226E+03</pdfrwt>
<totfact> 0.48756685E+01</totfact>
</mgrwt>
</event>
<event>
 4    1  0.8732795E-007  0.6893641E+03  0.7818608E-02  0.1004456E+00
          2   -1    0    0  501    0  0.00000000000E+00  0.00000000000E+00  0.10276412145E+04  0.10276412145E+04  0.25500000000E-02 0. -1.
         -2   -1    0    0    0  501 -0.00000000000E+00 -0.00000000000E+00 -0.12441332752E+04  0.12441332752E+04  0.25500000000E-02 0.  1.
    8880023    1    1    2    0    0 -0.15074434342E+03 -0.13670688602E+03 -0.11298799532E+04  0.13235752886E+04  0.65864270000E+03 0.  1.
    8880022    1    1    2    0    0  0.15074434342E+03  0.13670688602E+03  0.91338789254E+03  0.94819920113E+03  0.15294330000E+03 0.  0.
<mgrwt>
<rscale>  0 0.53738675E+03</rscale>
<asrwt>0</asrwt>
<pdfrwt beam="1">  1        2 0.15809865E+00 0.68936408E+03</pdfrwt>
<pdfrwt beam="2">  1       -2 0.19140512E+00 0.68936408E+03</pdfrwt>
<totfact> 0.37881626E+00</totfact>
</mgrwt>
</event>
<event>
 4    1  0.8645356E-007  0.7294210E+03  0.7818608E-02  0.9891909E-01
          2   -1    0    0  501    0  0.00000000000E+00  0.00000000000E+00  0.72377865176E+03  0.72377865176E+03  0.25500000000E-02 0. -1.
         -2   -1    0    0    0  501 -0.00000000000E+00 -0.00000000000E+00 -0.97001852323E+03  0.97001852323E+03  0.25500000000E-02 0.  1.
    8880023    1    1    2    0    0 -0.47220711194E+02  0.30986275283E+03 -0.77250330752E+03  0.10624576639E+04  0.65864270000E+03 0.  1.
    8880022    1    1    2    0    0  0.47220711194E+02 -0.30986275283E+03  0.52626343605E+03  0.63133951111E+03  0.15294330000E+03 0.  0.
<mgrwt>
<rscale>  0 0.60655000E+03</rscale>
<asrwt>0</asrwt>
<pdfrwt beam="1">  1        2 0.11135056E+00 0.72942095E+03</pdfrwt>
<pdfrwt beam="2">  1       -2 0.14923362E+00 0.72942095E+03</pdfrwt>
<totfact> 0.12135462E+01</totfact>
</mgrwt>
</event>
<event>
 4    1  0.8645356E-007  0.1006462E+04  0.7818608E-02  0.9373152E-01
         -2   -1    0    0    0  501 -0.00000000000E+00  0.00000000000E+00  0.63598408500E+03  0.63598408501E+03  0.25500000000E-02 0.  1.
          2   -1    0    0  501    0  0.00000000000E+00 -0.00000000000E+00 -0.15743297846E+04  0.15743297846E+04  0.25500000000E-02 0. -1.
    8880023    1    1    2    0    0  0.75226293698E+03  0.11513124463E+03 -0.18395024267E+02  0.10066296802E+04  0.65864270000E+03 0.  0.
    8880022    1    1    2    0    0 -0.75226293698E+03 -0.11513124463E+03 -0.91995067536E+03  0.12036841895E+04  0.15294330000E+03 0.  0.
<mgrwt>
<rscale>  0 0.94318463E+03</rscale>
<asrwt>0</asrwt>
<pdfrwt beam="1">  1        2 0.24220458E+00 0.10064616E+04</pdfrwt>
<pdfrwt beam="2">  1       -2 0.97843706E-01 0.10064616E+04</pdfrwt>
<totfact> 0.99802852E+00</totfact>
</mgrwt>
</event>
<event>
 4    1  0.8645356E-007  0.9066844E+03  0.7818608E-02  0.9515385E-01
         -2   -1    0    0    0  501 -0.00000000000E+00  0.00000000000E+00  0.29547568932E+04  0.29547568932E+04  0.25500000000E-02 0.  1.
          2   -1    0    0  501    0  0.00000000000E+00 -0.00000000000E+00 -0.21871360209E+03  0.21871360210E+03  0.25500000000E-02 0. -1.
    8880023    1    1    2    0    0 -0.36951296375E+03  0.50172364438E+03  0.20070312558E+04  0.22023285663E+04  0.65864270000E+03 0. -1.
    8880022    1    1    2    0    0  0.36951296375E+03 -0.50172364438E+03  0.72901203530E+03  0.97114192904E+03  0.15294330000E+03 0.  0.
<mgrwt>
<rscale>  0 0.83158989E+03</rscale>
<asrwt>0</asrwt>
<pdfrwt beam="1">  1        2 0.33648248E-01 0.90668443E+03</pdfrwt>
<pdfrwt beam="2">  1       -2 0.45457796E+00 0.90668443E+03</pdfrwt>
<totfact> 0.52514415E-01</totfact>
</mgrwt>
</event>
<event>
 4    1  0.8645356E-007  0.1247365E+04  0.7818608E-02  0.9112401E-01
         -2   -1    0    0    0  501 -0.00000000000E+00  0.00000000000E+00  0.17298807613E+04  0.17298807613E+04  0.25500000000E-02 0.  1.
          2   -1    0    0  501    0  0.00000000000E+00 -0.00000000000E+00 -0.23331813494E+04  0.23331813494E+04  0.25500000000E-02 0. -1.
    8880023    1    1    2    0    0 -0.51111344878E+03 -0.92783151486E+03 -0.19672165360E+04  0.23293474158E+04  0.65864270000E+03 0.  0.
    8880022    1    1    2    0    0  0.51111344878E+03  0.92783151486E+03  0.13639159480E+04  0.17337146950E+04  0.15294330000E+03 0.  0.
<mgrwt>
<rscale>  0 0.12005201E+04</rscale>
<asrwt>0</asrwt>
<pdfrwt beam="1">  1        2 0.35895098E+00 0.12473646E+04</pdfrwt>
<pdfrwt beam="2">  1       -2 0.26613550E+00 0.12473646E+04</pdfrwt>
<totfact> 0.21540701E-01</totfact>
</mgrwt>
</event>
<event>
 4    1  0.8645356E-007  0.9186558E+03  0.7818608E-02  0.9496723E-01
         -2   -1    0    0    0  501 -0.00000000000E+00  0.00000000000E+00  0.68276053696E+03  0.68276053696E+03  0.25500000000E-02 0.  1.
          2   -1    0    0  501    0  0.00000000000E+00 -0.00000000000E+00 -0.17070843810E+04  0.17070843810E+04  0.25500000000E-02 0. -1.
    8880023    1    1    2    0    0 -0.42664692538E+01 -0.64039060435E+03  0.25295975280E+03  0.95284687737E+03  0.65864270000E+03 0.  0.
    8880022    1    1    2    0    0  0.42664692538E+01  0.64039060435E+03 -0.12772835969E+04  0.14369980406E+04  0.15294330000E+03 0.  0.
<mgrwt>
<rscale>  0 0.84525844E+03</rscale>
<asrwt>0</asrwt>
<pdfrwt beam="1">  1        2 0.26262837E+00 0.91865583E+03</pdfrwt>
<pdfrwt beam="2">  1       -2 0.10504008E+00 0.91865583E+03</pdfrwt>
<totfact> 0.71811287E+00</totfact>
</mgrwt>
</event>
<event>
 4    1  0.8645356E-007  0.8573773E+03  0.7818608E-02  0.9598246E-01
         -2   -1    0    0    0  501 -0.00000000000E+00  0.00000000000E+00  0.86172924130E+03  0.86172924130E+03  0.25500000000E-02 0.  1.
          2   -1    0    0  501    0  0.00000000000E+00 -0.00000000000E+00 -0.65140718391E+03  0.65140718391E+03  0.25500000000E-02 0. -1.
    8880023    1    1    2    0    0 -0.84747840787E+02  0.54231308395E+03  0.35064351746E+03  0.92630813456E+03  0.65864270000E+03 0.  1.
    8880022    1    1    2    0    0  0.84747840787E+02 -0.54231308395E+03 -0.14032146007E+03  0.58682829066E+03  0.15294330000E+03 0. -1.
<mgrwt>
<rscale>  0 0.77412393E+03</rscale>
<asrwt>0</asrwt>
<pdfrwt beam="1">  1        2 0.10021649E+00 0.85737733E+03</pdfrwt>
<pdfrwt beam="2">  1       -2 0.13257373E+00 0.85737733E+03</pdfrwt>
<totfact> 0.18609639E+01</totfact>
</mgrwt>
</event>
<event>
 4    1  0.8645356E-007  0.6682077E+03  0.7818608E-02  0.1016982E+00
          2   -1    0    0  501    0  0.00000000000E+00  0.00000000000E+00  0.91203483117E+03  0.91203483117E+03  0.25500000000E-02 0. -1.
         -2   -1    0    0    0  501 -0.00000000000E+00 -0.00000000000E+00 -0.27188658033E+03  0.27188658034E+03  0.25500000000E-02 0.  1.
    8880023    1    1    2    0    0 -0.68283647158E+02 -0.89602644373E+02  0.18901324951E+03  0.69442602565E+03  0.65864270000E+03 0.  1.
    8880022    1    1    2    0    0  0.68283647158E+02  0.89602644373E+02  0.45113500132E+03  0.48949538587E+03  0.15294330000E+03 0.  0.
<mgrwt>
<rscale>  0 0.48791744E+03</rscale>
<asrwt>0</asrwt>
<pdfrwt beam="1">  1        2 0.14031305E+00 0.66820767E+03</pdfrwt>
<pdfrwt beam="2">  1       -2 0.41828704E-01 0.66820767E+03</pdfrwt>
<totfact> 0.15841230E+02</totfact>
</mgrwt>
</event>
<event>
 4    1  0.8645356E-007  0.8508078E+03  0.7818608E-02  0.9610129E-01
         -2   -1    0    0    0  501 -0.00000000000E+00  0.00000000000E+00  0.28219548678E+03  0.28219548679E+03  0.25500000000E-02 0.  1.
          2   -1    0    0  501    0  0.00000000000E+00 -0.00000000000E+00 -0.17649967996E+04  0.17649967996E+04  0.25500000000E-02 0. -1.
    8880023    1    1    2    0    0  0.49701251018E+03 -0.20746613222E+03 -0.86022809008E+03  0.12099033864E+04  0.65864270000E+03 0.  0.
    8880022    1    1    2    0    0 -0.49701251018E+03  0.20746613222E+03 -0.62257322273E+03  0.83728889994E+03  0.15294330000E+03 0. -1.
<mgrwt>
<rscale>  0 0.76629418E+03</rscale>
<asrwt>0</asrwt>
<pdfrwt beam="1">  1        2 0.27153796E+00 0.85080776E+03</pdfrwt>
<pdfrwt beam="2">  1       -2 0.43414692E-01 0.85080776E+03</pdfrwt>
<totfact> 0.46083833E+01</totfact>
</mgrwt>
</event>
<event>
 4    1  0.8645356E-007  0.1215933E+04  0.7818608E-02  0.9141788E-01
         -2   -1    0    0    0  501 -0.00000000000E+00  0.00000000000E+00  0.11103997050E+04  0.11103997050E+04  0.25500000000E-02 0.  1.
          2   -1    0    0  501    0  0.00000000000E+00 -0.00000000000E+00 -0.27312840364E+04  0.27312840364E+04  0.25500000000E-02 0. -1.
    8880023    1    1    2    0    0  0.19114847090E+03 -0.10040643631E+04  0.62665903778E+03  0.13679162032E+04  0.65864270000E+03 0.  0.
    8880022    1    1    2    0    0 -0.19114847090E+03  0.10040643631E+04 -0.22475433692E+04  0.24737675381E+04  0.15294330000E+03 0.  0.
<mgrwt>
<rscale>  0 0.11675015E+04</rscale>
<asrwt>0</asrwt>
<pdfrwt beam="1">  1        2 0.42019754E+00 0.12159331E+04</pdfrwt>
<pdfrwt beam="2">  1       -2 0.17083072E+00 0.12159331E+04</pdfrwt>
<totfact> 0.52263964E-01</totfact>
</mgrwt>
</event>
<event>
 4    1  0.8645356E-007  0.6724108E+03  0.7818608E-02  0.1013990E+00
         -2   -1    0    0    0  501 -0.00000000000E+00  0.00000000000E+00  0.28963789675E+03  0.28963789676E+03  0.25500000000E-02 0.  1.
          2   -1    0    0  501    0  0.00000000000E+00 -0.00000000000E+00 -0.12933776100E+04  0.12933776100E+04  0.25500000000E-02 0. -1.
    8880023    1    1    2    0    0  0.11723605661E+03 -0.67688790037E+02 -0.12890662203E+03  0.68465552560E+03  0.65864270000E+03 0.  1.
    8880022    1    1    2    0    0 -0.11723605661E+03  0.67688790037E+02 -0.87483309126E+03  0.89835998121E+03  0.15294330000E+03 0.  0.
<mgrwt>
<rscale>  0 0.49919023E+03</rscale>
<asrwt>0</asrwt>
<pdfrwt beam="1">  1        2 0.19898117E+00 0.67241079E+03</pdfrwt>
<pdfrwt beam="2">  1       -2 0.44559677E-01 0.67241079E+03</pdfrwt>
<totfact> 0.81608368E+01</totfact>
</mgrwt>
</event>
<event>
 4    1  0.8645356E-007  0.6682958E+03  0.7818608E-02  0.1016915E+00
          2   -1    0    0  501    0  0.00000000000E+00  0.00000000000E+00  0.10647817869E+04  0.10647817869E+04  0.25500000000E-02 0. -1.
         -2   -1    0    0    0  501 -0.00000000000E+00 -0.00000000000E+00 -0.85455222801E+03  0.85455222801E+03  0.25500000000E-02 0.  1.
    8880023    1    1    2    0    0 -0.80586826074E+02  0.79465868259E+02 -0.71268859676E+03  0.97700783158E+03  0.65864270000E+03 0.  1.
    8880022    1    1    2    0    0  0.80586826074E+02 -0.79465868259E+02  0.92291815568E+03  0.94232618336E+03  0.15294330000E+03 0.  0.
<mgrwt>
<rscale>  0 0.48816449E+03</rscale>
<asrwt>0</asrwt>
<pdfrwt beam="1">  1        2 0.16381258E+00 0.66829579E+03</pdfrwt>
<pdfrwt beam="2">  1       -2 0.13146957E+00 0.66829579E+03</pdfrwt>
<totfact> 0.99525133E+00</totfact>
</mgrwt>
</event>
<event>
 4    1  0.8645356E-007  0.8924953E+03  0.7818608E-02  0.9538188E-01
         -2   -1    0    0    0  501 -0.00000000000E+00  0.00000000000E+00  0.18095999627E+04  0.18095999627E+04  0.25500000000E-02 0.  1.
          2   -1    0    0  501    0  0.00000000000E+00 -0.00000000000E+00 -0.11733621454E+04  0.11733621454E+04  0.25500000000E-02 0. -1.
    8880023    1    1    2    0    0 -0.50103054082E+02 -0.60018934941E+03  0.16024230816E+04  0.18342048713E+04  0.65864270000E+03 0.  1.
    8880022    1    1    2    0    0  0.50103054082E+02  0.60018934941E+03 -0.96618526429E+03  0.11487572368E+04  0.15294330000E+03 0.  0.
<mgrwt>
<rscale>  0 0.81525979E+03</rscale>
<asrwt>0</asrwt>
<pdfrwt beam="1">  1        2 0.18051725E+00 0.89249525E+03</pdfrwt>
<pdfrwt beam="2">  1       -2 0.27840000E+00 0.89249525E+03</pdfrwt>
<totfact> 0.86100142E-01</totfact>
</mgrwt>
</event>
<event>
 4    1  0.8645356E-007  0.6620137E+03  0.7818608E-02  0.1022182E+00
         -2   -1    0    0    0  501 -0.00000000000E+00  0.00000000000E+00  0.61386826533E+03  0.61386826533E+03  0.25500000000E-02 0.  1.
          2   -1    0    0  501    0  0.00000000000E+00 -0.00000000000E+00 -0.47395185974E+03  0.47395185975E+03  0.25500000000E-02 0. -1.
    8880023    1    1    2    0    0 -0.29224800751E+02 -0.59981656049E+02  0.40391660312E+03  0.77550674825E+03  0.65864270000E+03 0.  0.
    8880022    1    1    2    0    0  0.29224800751E+02  0.59981656049E+02 -0.26400019753E+03  0.31231337684E+03  0.15294330000E+03 0. -1.
<mgrwt>
<rscale>  0 0.46907337E+03</rscale>
<asrwt>0</asrwt>
<pdfrwt beam="1">  1        2 0.72915671E-01 0.66201367E+03</pdfrwt>
<pdfrwt beam="2">  1       -2 0.94441271E-01 0.66201367E+03</pdfrwt>
<totfact> 0.62977378E+01</totfact>
</mgrwt>
</event>
<event>
 4    1  0.8645356E-007  0.7109078E+03  0.7818608E-02  0.9954645E-01
         -2   -1    0    0    0  501 -0.00000000000E+00  0.00000000000E+00  0.21323713533E+03  0.21323713534E+03  0.25500000000E-02 0.  1.
          2   -1    0    0  501    0  0.00000000000E+00 -0.00000000000E+00 -0.12315687072E+04  0.12315687072E+04  0.25500000000E-02 0. -1.
    8880023    1    1    2    0    0  0.19611015994E+03 -0.18199030116E+03 -0.63728480747E+03  0.95473650639E+03  0.65864270000E+03 0.  0.
    8880022    1    1    2    0    0 -0.19611015994E+03  0.18199030116E+03 -0.38104676438E+03  0.49006933612E+03  0.15294330000E+03 0. -1.
<mgrwt>
<rscale>  0 0.57684483E+03</rscale>
<asrwt>0</asrwt>
<pdfrwt beam="1">  1        2 0.18947210E+00 0.71090778E+03</pdfrwt>
<pdfrwt beam="2">  1       -2 0.32805714E-01 0.71090778E+03</pdfrwt>
<totfact> 0.15965794E+02</totfact>
</mgrwt>
</event>
<event>
 4    1  0.8645356E-007  0.9221012E+03  0.7818608E-02  0.9491445E-01
         -2   -1    0    0    0  501 -0.00000000000E+00  0.00000000000E+00  0.12815098868E+04  0.12815098868E+04  0.25500000000E-02 0.  1.
          2   -1    0    0  501    0  0.00000000000E+00 -0.00000000000E+00 -0.10320034272E+04  0.10320034273E+04  0.25500000000E-02 0. -1.
    8880023    1    1    2    0    0 -0.11006489643E+03  0.63588215186E+03  0.96719092929E+03  0.13363116749E+04  0.65864270000E+03 0.  1.
    8880022    1    1    2    0    0  0.11006489643E+03 -0.63588215186E+03 -0.71768446974E+03  0.97720163917E+03  0.15294330000E+03 0.  0.
<mgrwt>
<rscale>  0 0.84917512E+03</rscale>
<asrwt>0</asrwt>
<pdfrwt beam="1">  1        2 0.15876976E+00 0.92210119E+03</pdfrwt>
<pdfrwt beam="2">  1       -2 0.19715537E+00 0.92210119E+03</pdfrwt>
<totfact> 0.33401235E+00</totfact>
</mgrwt>
</event>
<event>
 4    1  0.8645356E-007  0.7127711E+03  0.7818608E-02  0.9947851E-01
         -2   -1    0    0    0  501 -0.00000000000E+00  0.00000000000E+00  0.26125247429E+03  0.26125247430E+03  0.25500000000E-02 0.  1.
          2   -1    0    0  501    0  0.00000000000E+00 -0.00000000000E+00 -0.25003879733E+04  0.25003879733E+04  0.25500000000E-02 0. -1.
    8880023    1    1    2    0    0  0.21501375454E+03  0.16733646663E+03 -0.26111374544E+03  0.75909353971E+03  0.65864270000E+03 0.  0.
    8880022    1    1    2    0    0 -0.21501375454E+03 -0.16733646663E+03 -0.19780217536E+04  0.20025469079E+04  0.15294330000E+03 0.  0.
<mgrwt>
<rscale>  0 0.57997218E+03</rscale>
<asrwt>0</asrwt>
<pdfrwt beam="1">  1        2 0.38467506E+00 0.71277108E+03</pdfrwt>
<pdfrwt beam="2">  1       -2 0.40192690E-01 0.71277108E+03</pdfrwt>
<totfact> 0.21433174E+01</totfact>
</mgrwt>
</event>
<event>
 4    1  0.8645356E-007  0.8243034E+03  0.7818608E-02  0.9660519E-01
         -2   -1    0    0    0  501 -0.00000000000E+00  0.00000000000E+00  0.51175752050E+03  0.51175752051E+03  0.25500000000E-02 0.  1.
          2   -1    0    0  501    0  0.00000000000E+00 -0.00000000000E+00 -0.10218393689E+04  0.10218393689E+04  0.25500000000E-02 0. -1.
    8880023    1    1    2    0    0  0.25569565678E+03  0.42460062726E+03 -0.26951533718E+02  0.82474393178E+03  0.65864270000E+03 0. -1.
    8880022    1    1    2    0    0 -0.25569565678E+03 -0.42460062726E+03 -0.48313031468E+03  0.70885295763E+03  0.15294330000E+03 0.  0.
<mgrwt>
<rscale>  0 0.73416892E+03</rscale>
<asrwt>0</asrwt>
<pdfrwt beam="1">  1        2 0.15720606E+00 0.82430344E+03</pdfrwt>
<pdfrwt beam="2">  1       -2 0.78731926E-01 0.82430344E+03</pdfrwt>
<totfact> 0.35277050E+01</totfact>
</mgrwt>
</event>
<event>
 4    1  0.8645356E-007  0.8815178E+03  0.7818608E-02  0.9556378E-01
         -2   -1    0    0    0  501 -0.00000000000E+00  0.00000000000E+00  0.56383075047E+03  0.56383075048E+03  0.25500000000E-02 0.  1.
          2   -1    0    0  501    0  0.00000000000E+00 -0.00000000000E+00 -0.11431297599E+04  0.11431297599E+04  0.25500000000E-02 0. -1.
    8880023    1    1    2    0    0  0.20849879789E+03 -0.54753235230E+03 -0.18606136692E+02  0.88171413742E+03  0.65864270000E+03 0.  1.
    8880022    1    1    2    0    0 -0.20849879789E+03  0.54753235230E+03 -0.56069287270E+03  0.82524637294E+03  0.15294330000E+03 0.  0.
<mgrwt>
<rscale>  0 0.80251938E+03</rscale>
<asrwt>0</asrwt>
<pdfrwt beam="1">  1        2 0.17586612E+00 0.88151780E+03</pdfrwt>
<pdfrwt beam="2">  1       -2 0.86743193E-01 0.88151780E+03</pdfrwt>
<totfact> 0.23700478E+01</totfact>
</mgrwt>
</event>
<event>
 4    1  0.8645356E-007  0.8068952E+03  0.7818608E-02  0.9696081E-01
         -2   -1    0    0    0  501 -0.00000000000E+00  0.00000000000E+00  0.48948581300E+03  0.48948581301E+03  0.25500000000E-02 0.  1.
          2   -1    0    0  501    0  0.00000000000E+00 -0.00000000000E+00 -0.19372051514E+04  0.19372051514E+04  0.25500000000E-02 0. -1.
    8880023    1    1    2    0    0  0.23850712540E+03 -0.40047964963E+03  0.90672822554E+02  0.81197374689E+03  0.65864270000E+03 0.  0.
    8880022    1    1    2    0    0 -0.23850712540E+03  0.40047964963E+03 -0.15383921609E+04  0.16147172175E+04  0.15294330000E+03 0.  0.
<mgrwt>
<rscale>  0 0.71250613E+03</rscale>
<asrwt>0</asrwt>
<pdfrwt beam="1">  1        2 0.29803156E+00 0.80689516E+03</pdfrwt>
<pdfrwt beam="2">  1       -2 0.75305510E-01 0.80689516E+03</pdfrwt>
<totfact> 0.11749527E+01</totfact>
</mgrwt>
</event>
<event>
 4    1  0.8645356E-007  0.1066549E+04  0.7818608E-02  0.9299247E-01
          2   -1    0    0  501    0  0.00000000000E+00  0.00000000000E+00  0.20729006213E+04  0.20729006213E+04  0.25500000000E-02 0. -1.
         -2   -1    0    0    0  501 -0.00000000000E+00 -0.00000000000E+00 -0.70692064960E+03  0.70692064961E+03  0.25500000000E-02 0.  1.
    8880023    1    1    2    0    0  0.15401796694E+03  0.82461826842E+03 -0.11311825291E+03  0.10725310103E+04  0.65864270000E+03 0.  0.
    8880022    1    1    2    0    0 -0.15401796694E+03 -0.82461826842E+03  0.14790982246E+04  0.17072902606E+04  0.15294330000E+03 0.  0.
<mgrwt>
<rscale>  0 0.10085224E+04</rscale>
<asrwt>0</asrwt>
<pdfrwt beam="1">  1        2 0.31890779E+00 0.10665491E+04</pdfrwt>
<pdfrwt beam="2">  1       -2 0.10875702E+00 0.10665491E+04</pdfrwt>
<totfact> 0.40791865E+00</totfact>
</mgrwt>
</event>
<event>
 4    1  0.8645356E-007  0.8836328E+03  0.7818608E-02  0.9552834E-01
          2   -1    0    0  501    0  0.00000000000E+00  0.00000000000E+00  0.67847712777E+03  0.67847712778E+03  0.25500000000E-02 0. -1.
         -2   -1    0    0    0  501 -0.00000000000E+00 -0.00000000000E+00 -0.25932282136E+04  0.25932282136E+04  0.25500000000E-02 0.  1.
    8880023    1    1    2    0    0  0.57158094085E+03  0.14244997105E+03 -0.23584439251E+04  0.25185441668E+04  0.65864270000E+03 0.  1.
    8880022    1    1    2    0    0 -0.57158094085E+03 -0.14244997105E+03  0.44369283927E+03  0.75316117454E+03  0.15294330000E+03 0.  0.
<mgrwt>
<rscale>  0 0.80498179E+03</rscale>
<asrwt>0</asrwt>
<pdfrwt beam="1">  1        2 0.10438110E+00 0.88363283E+03</pdfrwt>
<pdfrwt beam="2">  1       -2 0.39895818E+00 0.88363283E+03</pdfrwt>
<totfact> 0.33357323E-01</totfact>
</mgrwt>
</event>
<event>
 4    1  0.8645356E-007  0.8343576E+03  0.7818608E-02  0.9640913E-01
         -2   -1    0    0    0  501 -0.00000000000E+00  0.00000000000E+00  0.67333080021E+03  0.67333080021E+03  0.25500000000E-02 0.  1.
          2   -1    0    0  501    0  0.00000000000E+00 -0.00000000000E+00 -0.10977232869E+04  0.10977232869E+04  0.25500000000E-02 0. -1.
    8880023    1    1    2    0    0  0.13319677061E+03  0.49457158917E+03 -0.76930616121E+03  0.11348940975E+04  0.65864270000E+03 0.  0.
    8880022    1    1    2    0    0 -0.13319677061E+03 -0.49457158917E+03  0.34491367454E+03  0.63615998963E+03  0.15294330000E+03 0.  0.
<mgrwt>
<rscale>  0 0.74646498E+03</rscale>
<asrwt>0</asrwt>
<pdfrwt beam="1">  1        2 0.16888051E+00 0.83435762E+03</pdfrwt>
<pdfrwt beam="2">  1       -2 0.10358935E+00 0.83435762E+03</pdfrwt>
<totfact> 0.16743429E+01</totfact>
</mgrwt>
</event>
<event>
 4    1  0.8645356E-007  0.7928121E+03  0.7818608E-02  0.9726559E-01
         -2   -1    0    0    0  501 -0.00000000000E+00  0.00000000000E+00  0.67766846259E+03  0.67766846259E+03  0.25500000000E-02 0.  1.
          2   -1    0    0  501    0  0.00000000000E+00 -0.00000000000E+00 -0.97643845499E+03  0.97643845500E+03  0.25500000000E-02 0. -1.
    8880023    1    1    2    0    0  0.81041357530E+02 -0.43378925197E+03  0.34013531585E+03  0.86269522782E+03  0.65864270000E+03 0.  1.
    8880022    1    1    2    0    0 -0.81041357530E+02  0.43378925197E+03 -0.63890530826E+03  0.79141168976E+03  0.15294330000E+03 0.  0.
<mgrwt>
<rscale>  0 0.69457275E+03</rscale>
<asrwt>0</asrwt>
<pdfrwt beam="1">  1        2 0.15022130E+00 0.79281210E+03</pdfrwt>
<pdfrwt beam="2">  1       -2 0.10425669E+00 0.79281210E+03</pdfrwt>
<totfact> 0.19739092E+01</totfact>
</mgrwt>
</event>
<event>
 4    1  0.8645356E-007  0.8036365E+03  0.7818608E-02  0.9702988E-01
         -2   -1    0    0    0  501 -0.00000000000E+00  0.00000000000E+00  0.12715246046E+04  0.12715246046E+04  0.25500000000E-02 0.  1.
          2   -1    0    0  501    0  0.00000000000E+00 -0.00000000000E+00 -0.38721320336E+03  0.38721320337E+03  0.25500000000E-02 0. -1.
    8880023    1    1    2    0    0 -0.45676567855E+03  0.58194469294E+02  0.21470301186E+03  0.83182274009E+03  0.65864270000E+03 0.  0.
    8880022    1    1    2    0    0  0.45676567855E+03 -0.58194469294E+02  0.66960838938E+03  0.82691506789E+03  0.15294330000E+03 0.  0.
<mgrwt>
<rscale>  0 0.70839191E+03</rscale>
<asrwt>0</asrwt>
<pdfrwt beam="1">  1        2 0.59571263E-01 0.80363654E+03</pdfrwt>
<pdfrwt beam="2">  1       -2 0.19561917E+00 0.80363654E+03</pdfrwt>
<totfact> 0.11875127E+01</totfact>
</mgrwt>
</event>
<event>
 4    1  0.8645356E-007  0.6957301E+03  0.7818608E-02  0.1001540E+00
          2   -1    0    0  501    0  0.00000000000E+00  0.00000000000E+00  0.20161996939E+04  0.20161996939E+04  0.25500000000E-02 0. -1.
         -2   -1    0    0    0  501 -0.00000000000E+00 -0.00000000000E+00 -0.19158041272E+03  0.19158041274E+03  0.25500000000E-02 0.  1.
    8880023    1    1    2    0    0  0.20231013567E+03  0.96440256137E+02  0.50279768040E+03  0.85839724352E+03  0.65864270000E+03 0.  1.
    8880022    1    1    2    0    0 -0.20231013567E+03 -0.96440256137E+02  0.13218216008E+04  0.13493828631E+04  0.15294330000E+03 0.  0.
<mgrwt>
<rscale>  0 0.54980205E+03</rscale>
<asrwt>0</asrwt>
<pdfrwt beam="1">  1        2 0.31018457E+00 0.69573006E+03</pdfrwt>
<pdfrwt beam="2">  1       -2 0.29473910E-01 0.69573006E+03</pdfrwt>
<totfact> 0.71744584E+01</totfact>
</mgrwt>
</event>
<event>
 4    1  0.8645356E-007  0.7626225E+03  0.7818608E-02  0.9798365E-01
         -2   -1    0    0    0  501 -0.00000000000E+00  0.00000000000E+00  0.32596504561E+03  0.32596504562E+03  0.25500000000E-02 0.  1.
          2   -1    0    0  501    0  0.00000000000E+00 -0.00000000000E+00 -0.14802502323E+04  0.14802502323E+04  0.25500000000E-02 0. -1.
    8880023    1    1    2    0    0 -0.36473997428E+03 -0.12143960474E+03 -0.23482284397E+03  0.79795664090E+03  0.65864270000E+03 0. -1.
    8880022    1    1    2    0    0  0.36473997428E+03  0.12143960474E+03 -0.91946234276E+03  0.10082586371E+04  0.15294330000E+03 0.  0.
<mgrwt>
<rscale>  0 0.65450365E+03</rscale>
<asrwt>0</asrwt>
<pdfrwt beam="1">  1        2 0.22773080E+00 0.76262247E+03</pdfrwt>
<pdfrwt beam="2">  1       -2 0.50148469E-01 0.76262247E+03</pdfrwt>
<totfact> 0.49975873E+01</totfact>
</mgrwt>
</event>
<event>
 4    1  0.8645356E-007  0.9146683E+03  0.7818608E-02  0.9502883E-01
         -2   -1    0    0    0  501 -0.00000000000E+00  0.00000000000E+00  0.35802573755E+03  0.35802573756E+03  0.25500000000E-02 0.  1.
          2   -1    0    0  501    0  0.00000000000E+00 -0.00000000000E+00 -0.18355553250E+04  0.18355553250E+04  0.25500000000E-02 0. -1.
    8880023    1    1    2    0    0  0.34017382645E+03 -0.53580746722E+03 -0.11306763639E+04  0.14543201574E+04  0.65864270000E+03 0.  0.
    8880022    1    1    2    0    0 -0.34017382645E+03  0.53580746722E+03 -0.34685322352E+03  0.73926090510E+03  0.15294330000E+03 0.  0.
<mgrwt>
<rscale>  0 0.84071605E+03</rscale>
<asrwt>0</asrwt>
<pdfrwt beam="1">  1        2 0.28239312E+00 0.91466829E+03</pdfrwt>
<pdfrwt beam="2">  1       -2 0.55080883E-01 0.91466829E+03</pdfrwt>
<totfact> 0.25822166E+01</totfact>
</mgrwt>
</event>
<event>
 4    1  0.8645356E-007  0.7489363E+03  0.7818608E-02  0.9834641E-01
         -2   -1    0    0    0  501 -0.00000000000E+00  0.00000000000E+00  0.42019916283E+03  0.42019916284E+03  0.25500000000E-02 0.  1.
          2   -1    0    0  501    0  0.00000000000E+00 -0.00000000000E+00 -0.16199706447E+04  0.16199706447E+04  0.25500000000E-02 0. -1.
    8880023    1    1    2    0    0  0.31349812761E+03 -0.16974758217E+03  0.31133505176E+02  0.74958309684E+03  0.65864270000E+03 0.  1.
    8880022    1    1    2    0    0 -0.31349812761E+03  0.16974758217E+03 -0.12309049870E+04  0.12905867107E+04  0.15294330000E+03 0.  0.
<mgrwt>
<rscale>  0 0.63536166E+03</rscale>
<asrwt>0</asrwt>
<pdfrwt beam="1">  1        2 0.24922625E+00 0.74893626E+03</pdfrwt>
<pdfrwt beam="2">  1       -2 0.64646026E-01 0.74893626E+03</pdfrwt>
<totfact> 0.24630923E+01</totfact>
</mgrwt>
</event>
<event>
 4    1  0.8645356E-007  0.7463767E+03  0.7818608E-02  0.9841747E-01
         -2   -1    0    0    0  501 -0.00000000000E+00  0.00000000000E+00  0.30493765143E+03  0.30493765144E+03  0.25500000000E-02 0.  1.
          2   -1    0    0  501    0  0.00000000000E+00 -0.00000000000E+00 -0.16892286412E+04  0.16892286412E+04  0.25500000000E-02 0. -1.
    8880023    1    1    2    0    0  0.23284640683E+03 -0.26277470638E+03 -0.23461157032E+03  0.78238148667E+03  0.65864270000E+03 0.  1.
    8880022    1    1    2    0    0 -0.23284640683E+03  0.26277470638E+03 -0.11496794195E+04  0.12117848060E+04  0.15294330000E+03 0. -1.
<mgrwt>
<rscale>  0 0.63169493E+03</rscale>
<asrwt>0</asrwt>
<pdfrwt beam="1">  1        2 0.25988132E+00 0.74637672E+03</pdfrwt>
<pdfrwt beam="2">  1       -2 0.46913486E-01 0.74637672E+03</pdfrwt>
<totfact> 0.43922347E+01</totfact>
</mgrwt>
</event>
<event>
 4    1  0.8645356E-007  0.9254383E+03  0.7818608E-02  0.9486370E-01
          2   -1    0    0  501    0  0.00000000000E+00  0.00000000000E+00  0.53388410079E+03  0.53388410080E+03  0.25500000000E-02 0. -1.
         -2   -1    0    0    0  501 -0.00000000000E+00 -0.00000000000E+00 -0.15376236683E+04  0.15376236683E+04  0.25500000000E-02 0.  1.
    8880023    1    1    2    0    0  0.36392547556E+03 -0.53868734625E+03 -0.76224364059E+02  0.92857211282E+03  0.65864270000E+03 0.  0.
    8880022    1    1    2    0    0 -0.36392547556E+03  0.53868734625E+03 -0.92751520347E+03  0.11429356563E+04  0.15294330000E+03 0.  0.
<mgrwt>
<rscale>  0 0.85296179E+03</rscale>
<asrwt>0</asrwt>
<pdfrwt beam="1">  1        2 0.82136016E-01 0.92543828E+03</pdfrwt>
<pdfrwt beam="2">  1       -2 0.23655749E+00 0.92543828E+03</pdfrwt>
<totfact> 0.44621401E+00</totfact>
</mgrwt>
</event>
<event>
 4    1  0.8645356E-007  0.6792134E+03  0.7818608E-02  0.1009772E+00
         -2   -1    0    0    0  501 -0.00000000000E+00  0.00000000000E+00  0.44327006819E+03  0.44327006819E+03  0.25500000000E-02 0.  1.
          2   -1    0    0  501    0  0.00000000000E+00 -0.00000000000E+00 -0.10933532741E+04  0.10933532741E+04  0.25500000000E-02 0. -1.
    8880023    1    1    2    0    0 -0.12346481969E+03  0.11080170407E+03  0.15823622509E+03  0.69740195620E+03  0.65864270000E+03 0.  1.
    8880022    1    1    2    0    0  0.12346481969E+03 -0.11080170407E+03 -0.80831943099E+03  0.83922138608E+03  0.15294330000E+03 0.  0.
<mgrwt>
<rscale>  0 0.51565286E+03</rscale>
<asrwt>0</asrwt>
<pdfrwt beam="1">  1        2 0.16820819E+00 0.67921336E+03</pdfrwt>
<pdfrwt beam="2">  1       -2 0.68195396E-01 0.67921336E+03</pdfrwt>
<totfact> 0.44308581E+01</totfact>
</mgrwt>
</event>
<event>
 4    1  0.8645356E-007  0.6693481E+03  0.7818608E-02  0.1016135E+00
         -2   -1    0    0    0  501 -0.00000000000E+00  0.00000000000E+00  0.53173697850E+03  0.53173697851E+03  0.25500000000E-02 0.  1.
          2   -1    0    0  501    0  0.00000000000E+00 -0.00000000000E+00 -0.66848289348E+03  0.66848289349E+03  0.25500000000E-02 0. -1.
    8880023    1    1    2    0    0  0.11763107491E+03 -0.19483891058E+02  0.29153243738E+03  0.73008085861E+03  0.65864270000E+03 0.  1.
    8880022    1    1    2    0    0 -0.11763107491E+03  0.19483891058E+02 -0.42827835236E+03  0.47013901339E+03  0.15294330000E+03 0.  0.
<mgrwt>
<rscale>  0 0.49107696E+03</rscale>
<asrwt>0</asrwt>
<pdfrwt beam="1">  1        2 0.10284352E+00 0.66934811E+03</pdfrwt>
<pdfrwt beam="2">  1       -2 0.81805689E-01 0.66934811E+03</pdfrwt>
<totfact> 0.58138931E+01</totfact>
</mgrwt>
</event>
<event>
 4    1  0.8645356E-007  0.7525192E+03  0.7818608E-02  0.9824874E-01
         -2   -1    0    0    0  501 -0.00000000000E+00  0.00000000000E+00  0.10129114704E+04  0.10129114704E+04  0.25500000000E-02 0.  1.
          2   -1    0    0  501    0  0.00000000000E+00 -0.00000000000E+00 -0.77870330965E+03  0.77870330966E+03  0.25500000000E-02 0. -1.
    8880023    1    1    2    0    0 -0.36392761982E+03  0.56237821845E+01  0.80218562374E+03  0.10999031415E+04  0.65864270000E+03 0.  0.
    8880022    1    1    2    0    0  0.36392761982E+03 -0.56237821845E+01 -0.56797746303E+03  0.69171163856E+03  0.15294330000E+03 0.  0.
<mgrwt>
<rscale>  0 0.64044571E+03</rscale>
<asrwt>0</asrwt>
<pdfrwt beam="1">  1        2 0.11980051E+00 0.75251920E+03</pdfrwt>
<pdfrwt beam="2">  1       -2 0.15583253E+00 0.75251920E+03</pdfrwt>
<totfact> 0.98159687E+00</totfact>
</mgrwt>
</event>
<event>
 4    1  0.8645356E-007  0.8378367E+03  0.7818608E-02  0.9634273E-01
          2   -1    0    0  501    0  0.00000000000E+00  0.00000000000E+00  0.15272793553E+04  0.15272793553E+04  0.25500000000E-02 0. -1.
         -2   -1    0    0    0  501 -0.00000000000E+00 -0.00000000000E+00 -0.32146629353E+03  0.32146629354E+03  0.25500000000E-02 0.  1.
    8880023    1    1    2    0    0  0.76286673702E+02 -0.51219188562E+03  0.89394222758E+03  0.12251951260E+04  0.65864270000E+03 0.  1.
    8880022    1    1    2    0    0 -0.76286673702E+02  0.51219188562E+03  0.31187083417E+03  0.62355052281E+03  0.15294330000E+03 0. -1.
<mgrwt>
<rscale>  0 0.75068722E+03</rscale>
<asrwt>0</asrwt>
<pdfrwt beam="1">  1        2 0.23496605E+00 0.83783673E+03</pdfrwt>
<pdfrwt beam="2">  1       -2 0.49456353E-01 0.83783673E+03</pdfrwt>
<totfact> 0.48039116E+01</totfact>
</mgrwt>
</event>
<event>
 4    1  0.8645356E-007  0.7711389E+03  0.7818608E-02  0.9777079E-01
         -2   -1    0    0    0  501 -0.00000000000E+00  0.00000000000E+00  0.75037276107E+03  0.75037276107E+03  0.25500000000E-02 0.  1.
          2   -1    0    0  501    0  0.00000000000E+00 -0.00000000000E+00 -0.20758689334E+04  0.20758689334E+04  0.25500000000E-02 0. -1.
    8880023    1    1    2    0    0  0.22358213892E+03 -0.33295037027E+03  0.52091578355E+03  0.93059571336E+03  0.65864270000E+03 0.  1.
    8880022    1    1    2    0    0 -0.22358213892E+03  0.33295037027E+03 -0.18464119559E+04  0.18956459811E+04  0.15294330000E+03 0.  0.
<mgrwt>
<rscale>  0 0.66607237E+03</rscale>
<asrwt>0</asrwt>
<pdfrwt beam="1">  1        2 0.31936445E+00 0.77113885E+03</pdfrwt>
<pdfrwt beam="2">  1       -2 0.11544196E+00 0.77113885E+03</pdfrwt>
<totfact> 0.36630373E+00</totfact>
</mgrwt>
</event>
<event>
 4    1  0.8645356E-007  0.7774327E+03  0.7818608E-02  0.9761903E-01
          2   -1    0    0  501    0  0.00000000000E+00  0.00000000000E+00  0.53984456252E+03  0.53984456252E+03  0.25500000000E-02 0. -1.
         -2   -1    0    0    0  501 -0.00000000000E+00 -0.00000000000E+00 -0.18328202920E+04  0.18328202920E+04  0.25500000000E-02 0.  1.
    8880023    1    1    2    0    0  0.38563250346E+03 -0.14791533001E+03 -0.16380310878E+04  0.18131595141E+04  0.65864270000E+03 0.  0.
    8880022    1    1    2    0    0 -0.38563250346E+03  0.14791533001E+03  0.34505535838E+03  0.55950534040E+03  0.15294330000E+03 0. -1.
<mgrwt>
<rscale>  0 0.67447765E+03</rscale>
<asrwt>0</asrwt>
<pdfrwt beam="1">  1        2 0.83053011E-01 0.77743268E+03</pdfrwt>
<pdfrwt beam="2">  1       -2 0.28197235E+00 0.77743268E+03</pdfrwt>
<totfact> 0.23814108E+00</totfact>
</mgrwt>
</event>
<event>
 4    1  0.8645356E-007  0.7364152E+03  0.7818608E-02  0.9870515E-01
         -2   -1    0    0    0  501 -0.00000000000E+00  0.00000000000E+00  0.22026372805E+03  0.22026372807E+03  0.25500000000E-02 0.  1.
          2   -1    0    0  501    0  0.00000000000E+00 -0.00000000000E+00 -0.24402234750E+04  0.24402234750E+04  0.25500000000E-02 0. -1.
    8880023    1    1    2    0    0  0.18404488738E+03 -0.27317519046E+03 -0.47085334515E+03  0.87407681822E+03  0.65864270000E+03 0.  1.
    8880022    1    1    2    0    0 -0.18404488738E+03  0.27317519046E+03 -0.17491064018E+04  0.17864103848E+04  0.15294330000E+03 0. -1.
<mgrwt>
<rscale>  0 0.61711783E+03</rscale>
<asrwt>0</asrwt>
<pdfrwt beam="1">  1        2 0.37541898E+00 0.73641524E+03</pdfrwt>
<pdfrwt beam="2">  1       -2 0.33886729E-01 0.73641524E+03</pdfrwt>
<totfact> 0.32055370E+01</totfact>
</mgrwt>
</event>
<event>
 4    1  0.8645356E-007  0.6753910E+03  0.7818608E-02  0.1012061E+00
          2   -1    0    0  501    0  0.00000000000E+00  0.00000000000E+00  0.14033321146E+04  0.14033321146E+04  0.25500000000E-02 0. -1.
         -2   -1    0    0    0  501 -0.00000000000E+00 -0.00000000000E+00 -0.54906732616E+03  0.54906732617E+03  0.25500000000E-02 0.  1.
    8880023    1    1    2    0    0  0.14608066668E+03 -0.31673734669E+02 -0.32808744019E+03  0.75086241171E+03  0.65864270000E+03 0.  1.
    8880022    1    1    2    0    0 -0.14608066668E+03  0.31673734669E+02  0.11823522287E+04  0.12015370291E+04  0.15294330000E+03 0.  0.
<mgrwt>
<rscale>  0 0.50663696E+03</rscale>
<asrwt>0</asrwt>
<pdfrwt beam="1">  1        2 0.21589724E+00 0.67539099E+03</pdfrwt>
<pdfrwt beam="2">  1       -2 0.84471898E-01 0.67539099E+03</pdfrwt>
<totfact> 0.18174327E+01</totfact>
</mgrwt>
</event>
<event>
 4    1  0.8658531E-007  0.7474451E+03  0.7818608E-02  0.9838768E-01
          2   -1    0    0  501    0  0.00000000000E+00  0.00000000000E+00  0.12298183606E+04  0.12298183606E+04  0.25500000000E-02 0. -1.
         -2   -1    0    0    0  501 -0.00000000000E+00 -0.00000000000E+00 -0.88440722169E+03  0.88440722169E+03  0.25500000000E-02 0.  1.
    8880023    1    1    2    0    0  0.29255775850E+03  0.19817660738E+03 -0.68522988196E+03  0.10140089779E+04  0.65864270000E+03 0.  1.
    8880022    1    1    2    0    0 -0.29255775850E+03 -0.19817660738E+03  0.10306410208E+04  0.11002166044E+04  0.15294330000E+03 0.  0.
<mgrwt>
<rscale>  0 0.63322915E+03</rscale>
<asrwt>0</asrwt>
<pdfrwt beam="1">  1        2 0.18920282E+00 0.74744513E+03</pdfrwt>
<pdfrwt beam="2">  1       -2 0.13606265E+00 0.74744513E+03</pdfrwt>
<totfact> 0.71796554E+00</totfact>
</mgrwt>
</event>
<event>
 4    1  0.2886645E-006  0.9568689E+03  0.7818608E-02  0.9440299E-01
         -2   -1    0    0    0  501 -0.00000000000E+00  0.00000000000E+00  0.17278586646E+04  0.17278586646E+04  0.25500000000E-02 0.  1.
          2   -1    0    0  501    0  0.00000000000E+00 -0.00000000000E+00 -0.25163894930E+04  0.25163894930E+04  0.25500000000E-02 0. -1.
    8880023    1    1    2    0    0 -0.54568986025E+03  0.42896443128E+03  0.15381134504E+04  0.18114610400E+04  0.65864270000E+03 0.  1.
    8880022    1    1    2    0    0  0.54568986025E+03 -0.42896443128E+03 -0.23266442788E+04  0.24327871177E+04  0.15294330000E+03 0.  0.
<mgrwt>
<rscale>  0 0.88832126E+03</rscale>
<asrwt>0</asrwt>
<pdfrwt beam="1">  1        2 0.38713684E+00 0.95686891E+03</pdfrwt>
<pdfrwt beam="2">  1       -2 0.26582441E+00 0.95686891E+03</pdfrwt>
<totfact> 0.17901180E-01</totfact>
</mgrwt>
</event>
<event>
 4    1  0.8645356E-007  0.6705667E+03  0.7818608E-02  0.1015260E+00
          2   -1    0    0  501    0  0.00000000000E+00  0.00000000000E+00  0.67945653441E+03  0.67945653442E+03  0.25500000000E-02 0. -1.
         -2   -1    0    0    0  501 -0.00000000000E+00 -0.00000000000E+00 -0.28536375938E+03  0.28536375939E+03  0.25500000000E-02 0.  1.
    8880023    1    1    2    0    0  0.21420866383E+02 -0.12405910473E+03  0.23433370669E+03  0.71033232176E+03  0.65864270000E+03 0.  0.
    8880022    1    1    2    0    0 -0.21420866383E+02  0.12405910473E+03  0.15975906834E+03  0.25448797204E+03  0.15294330000E+03 0.  0.
<mgrwt>
<rscale>  0 0.49436673E+03</rscale>
<asrwt>0</asrwt>
<pdfrwt beam="1">  1        2 0.10453177E+00 0.67056672E+03</pdfrwt>
<pdfrwt beam="2">  1       -2 0.43902118E-01 0.67056672E+03</pdfrwt>
<totfact> 0.21205907E+02</totfact>
</mgrwt>
</event>
<event>
 4    1  0.8645356E-007  0.7886658E+03  0.7818608E-02  0.9735861E-01
          2   -1    0    0  501    0  0.00000000000E+00  0.00000000000E+00  0.17017709792E+04  0.17017709792E+04  0.25500000000E-02 0. -1.
         -2   -1    0    0    0  501 -0.00000000000E+00 -0.00000000000E+00 -0.40559000071E+03  0.40559000072E+03  0.25500000000E-02 0.  1.
    8880023    1    1    2    0    0 -0.15025387760E+03 -0.40694879269E+03  0.62988080204E+02  0.79117713069E+03  0.65864270000E+03 0.  0.
    8880022    1    1    2    0    0  0.15025387760E+03  0.40694879269E+03  0.12331928983E+04  0.13161838492E+04  0.15294330000E+03 0.  0.
<mgrwt>
<rscale>  0 0.68921204E+03</rscale>
<asrwt>0</asrwt>
<pdfrwt beam="1">  1        2 0.26181092E+00 0.78866581E+03</pdfrwt>
<pdfrwt beam="2">  1       -2 0.62398462E-01 0.78866581E+03</pdfrwt>
<totfact> 0.23842105E+01</totfact>
</mgrwt>
</event>
<event>
 4    1  0.8645356E-007  0.6640998E+03  0.7818608E-02  0.1020301E+00
         -2   -1    0    0    0  501 -0.00000000000E+00  0.00000000000E+00  0.14478179703E+03  0.14478179705E+03  0.25500000000E-02 0.  1.
          2   -1    0    0  501    0  0.00000000000E+00 -0.00000000000E+00 -0.21972224712E+04  0.21972224712E+04  0.25500000000E-02 0. -1.
    8880023    1    1    2    0    0  0.63707825551E+02 -0.56211306834E+02 -0.65194950194E+03  0.93062707751E+03  0.65864270000E+03 0.  1.
    8880022    1    1    2    0    0 -0.63707825551E+02  0.56211306834E+02 -0.14004911722E+04  0.14113771907E+04  0.15294330000E+03 0.  0.
<mgrwt>
<rscale>  0 0.47578204E+03</rscale>
<asrwt>0</asrwt>
<pdfrwt beam="1">  1        2 0.33803420E+00 0.66409985E+03</pdfrwt>
<pdfrwt beam="2">  1       -2 0.22274124E-01 0.66409985E+03</pdfrwt>
<totfact> 0.95184191E+01</totfact>
</mgrwt>
</event>
<event>
 4    1  0.8645356E-007  0.7203089E+03  0.7818608E-02  0.9921542E-01
         -2   -1    0    0    0  501 -0.00000000000E+00  0.00000000000E+00  0.23947023641E+03  0.23947023642E+03  0.25500000000E-02 0.  1.
          2   -1    0    0  501    0  0.00000000000E+00 -0.00000000000E+00 -0.24793763182E+04  0.24793763182E+04  0.25500000000E-02 0. -1.
    8880023    1    1    2    0    0  0.28537524995E+03 -0.59964506676E+02 -0.35067712211E+03  0.80113633395E+03  0.65864270000E+03 0.  1.
    8880022    1    1    2    0    0 -0.28537524995E+03  0.59964506676E+02 -0.18892289597E+04  0.19177102207E+04  0.15294330000E+03 0.  0.
<mgrwt>
<rscale>  0 0.59228537E+03</rscale>
<asrwt>0</asrwt>
<pdfrwt beam="1">  1        2 0.38144249E+00 0.72030895E+03</pdfrwt>
<pdfrwt beam="2">  1       -2 0.36841576E-01 0.72030895E+03</pdfrwt>
<totfact> 0.26038718E+01</totfact>
</mgrwt>
</event>
<event>
 4    1  0.8645356E-007  0.1120534E+04  0.7818608E-02  0.9238531E-01
          2   -1    0    0  501    0  0.00000000000E+00  0.00000000000E+00  0.10434172074E+04  0.10434172074E+04  0.25500000000E-02 0. -1.
         -2   -1    0    0    0  501 -0.00000000000E+00 -0.00000000000E+00 -0.17300710322E+04  0.17300710322E+04  0.25500000000E-02 0.  1.
    8880023    1    1    2    0    0 -0.90115281179E+03 -0.98540054733E+02 -0.12630063559E+04  0.16884258331E+04  0.65864270000E+03 0.  0.
    8880022    1    1    2    0    0  0.90115281179E+03  0.98540054733E+02  0.57635253113E+03  0.10850624064E+04  0.15294330000E+03 0.  0.
<mgrwt>
<rscale>  0 0.10664423E+04</rscale>
<asrwt>0</asrwt>
<pdfrwt beam="1">  1        2 0.16052572E+00 0.11205341E+04</pdfrwt>
<pdfrwt beam="2">  1       -2 0.26616477E+00 0.11205341E+04</pdfrwt>
<totfact> 0.11894151E+00</totfact>
</mgrwt>
</event>
<event>
 4    1  0.8645356E-007  0.6661081E+03  0.7818608E-02  0.1018621E+00
          2   -1    0    0  501    0  0.00000000000E+00  0.00000000000E+00  0.11455195610E+04  0.11455195610E+04  0.25500000000E-02 0. -1.
         -2   -1    0    0    0  501 -0.00000000000E+00 -0.00000000000E+00 -0.30317586094E+03  0.30317586096E+03  0.25500000000E-02 0.  1.
    8880023    1    1    2    0    0  0.50500352673E+02  0.85671213664E+02  0.87157116960E+02  0.67178598658E+03  0.65864270000E+03 0.  1.
    8880022    1    1    2    0    0 -0.50500352673E+02 -0.85671213664E+02  0.75518658309E+03  0.77690943537E+03  0.15294330000E+03 0.  0.
<mgrwt>
<rscale>  0 0.48187446E+03</rscale>
<asrwt>0</asrwt>
<pdfrwt beam="1">  1        2 0.17623378E+00 0.66610814E+03</pdfrwt>
<pdfrwt beam="2">  1       -2 0.46642439E-01 0.66610814E+03</pdfrwt>
<totfact> 0.91023224E+01</totfact>
</mgrwt>
</event>
<event>
 4    1  0.8645356E-007  0.7560997E+03  0.7818608E-02  0.9815311E-01
          2   -1    0    0  501    0  0.00000000000E+00  0.00000000000E+00  0.13978725660E+04  0.13978725660E+04  0.25500000000E-02 0. -1.
         -2   -1    0    0    0  501 -0.00000000000E+00 -0.00000000000E+00 -0.30785710343E+03  0.30785710344E+03  0.25500000000E-02 0.  1.
    8880023    1    1    2    0    0 -0.98415846682E+02  0.35803761547E+03  0.28855875179E+03  0.80929164858E+03  0.65864270000E+03 0.  1.
    8880022    1    1    2    0    0  0.98415846682E+02 -0.35803761547E+03  0.80145671073E+03  0.89643802081E+03  0.15294330000E+03 0.  0.
<mgrwt>
<rscale>  0 0.64547278E+03</rscale>
<asrwt>0</asrwt>
<pdfrwt beam="1">  1        2 0.21505732E+00 0.75609974E+03</pdfrwt>
<pdfrwt beam="2">  1       -2 0.47362631E-01 0.75609974E+03</pdfrwt>
<totfact> 0.62462512E+01</totfact>
</mgrwt>
</event>
<event>
 4    1  0.8645356E-007  0.7519785E+03  0.7818608E-02  0.9826335E-01
         -2   -1    0    0    0  501 -0.00000000000E+00  0.00000000000E+00  0.11120133303E+04  0.11120133303E+04  0.25500000000E-02 0.  1.
          2   -1    0    0  501    0  0.00000000000E+00 -0.00000000000E+00 -0.14096799277E+04  0.14096799277E+04  0.25500000000E-02 0. -1.
    8880023    1    1    2    0    0  0.27225331799E+03  0.23987425290E+03  0.95101575144E+03  0.12123954355E+04  0.65864270000E+03 0.  1.
    8880022    1    1    2    0    0 -0.27225331799E+03 -0.23987425290E+03 -0.12486823489E+04  0.13092978224E+04  0.15294330000E+03 0.  0.
<mgrwt>
<rscale>  0 0.63968206E+03</rscale>
<asrwt>0</asrwt>
<pdfrwt beam="1">  1        2 0.21687383E+00 0.75197855E+03</pdfrwt>
<pdfrwt beam="2">  1       -2 0.17107897E+00 0.75197855E+03</pdfrwt>
<totfact> 0.30709320E+00</totfact>
</mgrwt>
</event>
<event>
 4    1  0.8645356E-007  0.8920132E+03  0.7818608E-02  0.9538977E-01
         -2   -1    0    0    0  501 -0.00000000000E+00  0.00000000000E+00  0.38264355056E+03  0.38264355056E+03  0.25500000000E-02 0.  1.
          2   -1    0    0  501    0  0.00000000000E+00 -0.00000000000E+00 -0.25410543302E+04  0.25410543302E+04  0.25500000000E-02 0. -1.
    8880023    1    1    2    0    0  0.14246256883E+03 -0.58444996335E+03 -0.26410024522E+03  0.93028839021E+03  0.65864270000E+03 0. -1.
    8880022    1    1    2    0    0 -0.14246256883E+03  0.58444996335E+03 -0.18943105344E+04  0.19934094906E+04  0.15294330000E+03 0.  0.
<mgrwt>
<rscale>  0 0.81470235E+03</rscale>
<asrwt>0</asrwt>
<pdfrwt beam="1">  1        2 0.39093142E+00 0.89201320E+03</pdfrwt>
<pdfrwt beam="2">  1       -2 0.58868240E-01 0.89201320E+03</pdfrwt>
<totfact> 0.91254021E+00</totfact>
</mgrwt>
</event>
<event>
 4    1  0.8645356E-007  0.8201806E+03  0.7818608E-02  0.9668749E-01
          2   -1    0    0  501    0  0.00000000000E+00  0.00000000000E+00  0.30172529451E+04  0.30172529451E+04  0.25500000000E-02 0. -1.
         -2   -1    0    0    0  501 -0.00000000000E+00 -0.00000000000E+00 -0.24780922081E+03  0.24780922083E+03  0.25500000000E-02 0.  1.
    8880023    1    1    2    0    0  0.37753287554E+03  0.31041094804E+03  0.55053186594E+03  0.98781656721E+03  0.65864270000E+03 0.  1.
    8880022    1    1    2    0    0 -0.37753287554E+03 -0.31041094804E+03  0.22189118584E+04  0.22772455987E+04  0.15294330000E+03 0.  0.
<mgrwt>
<rscale>  0 0.72908354E+03</rscale>
<asrwt>0</asrwt>
<pdfrwt beam="1">  1        2 0.46419277E+00 0.82018061E+03</pdfrwt>
<pdfrwt beam="2">  1       -2 0.38124494E-01 0.82018061E+03</pdfrwt>
<totfact> 0.11586394E+01</totfact>
</mgrwt>
</event>
<event>
 4    1  0.8645356E-007  0.6731863E+03  0.7818608E-02  0.1013475E+00
         -2   -1    0    0    0  501 -0.00000000000E+00  0.00000000000E+00  0.75723523261E+03  0.75723523262E+03  0.25500000000E-02 0.  1.
          2   -1    0    0  501    0  0.00000000000E+00 -0.00000000000E+00 -0.84729073953E+03  0.84729073954E+03  0.25500000000E-02 0. -1.
    8880023    1    1    2    0    0 -0.11538434422E+03 -0.77820215134E+02  0.58912328739E+03  0.89456469122E+03  0.65864270000E+03 0.  1.
    8880022    1    1    2    0    0  0.11538434422E+03  0.77820215134E+02 -0.67917879431E+03  0.70996128093E+03  0.15294330000E+03 0.  0.
<mgrwt>
<rscale>  0 0.50116721E+03</rscale>
<asrwt>0</asrwt>
<pdfrwt beam="1">  1        2 0.13035242E+00 0.67318626E+03</pdfrwt>
<pdfrwt beam="2">  1       -2 0.11649773E+00 0.67318626E+03</pdfrwt>
<totfact> 0.18636661E+01</totfact>
</mgrwt>
</event>
<event>
 4    1  0.8645356E-007  0.6945323E+03  0.7818608E-02  0.1002069E+00
          2   -1    0    0  501    0  0.00000000000E+00  0.00000000000E+00  0.34220783361E+03  0.34220783362E+03  0.25500000000E-02 0. -1.
         -2   -1    0    0    0  501 -0.00000000000E+00 -0.00000000000E+00 -0.69309972989E+03  0.69309972990E+03  0.25500000000E-02 0.  1.
    8880023    1    1    2    0    0 -0.71855592864E+02 -0.20833084485E+03 -0.18080146491E+03  0.71767983330E+03  0.65864270000E+03 0.  0.
    8880022    1    1    2    0    0  0.71855592864E+02  0.20833084485E+03 -0.17009043138E+03  0.31762773022E+03  0.15294330000E+03 0.  1.
<mgrwt>
<rscale>  0 0.54752405E+03</rscale>
<asrwt>0</asrwt>
<pdfrwt beam="1">  1        2 0.52647359E-01 0.69453234E+03</pdfrwt>
<pdfrwt beam="2">  1       -2 0.10663073E+00 0.69453234E+03</pdfrwt>
<totfact> 0.68042175E+01</totfact>
</mgrwt>
</event>
<event>
 4    1  0.8645356E-007  0.6766546E+03  0.7818608E-02  0.1011283E+00
          2   -1    0    0  501    0  0.00000000000E+00  0.00000000000E+00  0.24598093097E+04  0.24598093097E+04  0.25500000000E-02 0. -1.
         -2   -1    0    0    0  501 -0.00000000000E+00 -0.00000000000E+00 -0.12685199357E+03  0.12685199359E+03  0.25500000000E-02 0.  1.
    8880023    1    1    2    0    0  0.47086680730E+02  0.14776362692E+03  0.84352191711E+03  0.10813836858E+04  0.65864270000E+03 0.  1.
    8880022    1    1    2    0    0 -0.47086680730E+02 -0.14776362692E+03  0.14894353990E+04  0.15052776175E+04  0.15294330000E+03 0.  0.
<mgrwt>
<rscale>  0 0.50967893E+03</rscale>
<asrwt>0</asrwt>
<pdfrwt beam="1">  1        2 0.37843215E+00 0.67665460E+03</pdfrwt>
<pdfrwt beam="2">  1       -2 0.19515694E-01 0.67665460E+03</pdfrwt>
<totfact> 0.85687250E+01</totfact>
</mgrwt>
</event>
<event>
 4    1  0.8645356E-007  0.7481247E+03  0.7818608E-02  0.9836883E-01
         -2   -1    0    0    0  501 -0.00000000000E+00  0.00000000000E+00  0.75091251687E+03  0.75091251687E+03  0.25500000000E-02 0.  1.
          2   -1    0    0  501    0  0.00000000000E+00 -0.00000000000E+00 -0.79212358679E+03  0.79212358679E+03  0.25500000000E-02 0. -1.
    8880023    1    1    2    0    0 -0.30472205777E+03  0.18172734247E+03  0.48399114198E+03  0.89103198106E+03  0.65864270000E+03 0.  1.
    8880022    1    1    2    0    0  0.30472205777E+03 -0.18172734247E+03 -0.52520221190E+03  0.65200412261E+03  0.15294330000E+03 0.  0.
<mgrwt>
<rscale>  0 0.63420227E+03</rscale>
<asrwt>0</asrwt>
<pdfrwt beam="1">  1        2 0.12186517E+00 0.74812470E+03</pdfrwt>
<pdfrwt beam="2">  1       -2 0.11552500E+00 0.74812470E+03</pdfrwt>
<totfact> 0.20650774E+01</totfact>
</mgrwt>
</event>
<event>
 4    1  0.8645356E-007  0.1355503E+04  0.7818608E-02  0.9019053E-01
          2   -1    0    0  501    0  0.00000000000E+00  0.00000000000E+00  0.31878845500E+04  0.31878845500E+04  0.25500000000E-02 0. -1.
         -2   -1    0    0    0  501 -0.00000000000E+00 -0.00000000000E+00 -0.64730131672E+03  0.64730131673E+03  0.25500000000E-02 0.  1.
    8880023    1    1    2    0    0  0.12012886831E+03 -0.11786204194E+04  0.45155916878E+03  0.14287382290E+04  0.65864270000E+03 0.  0.
    8880022    1    1    2    0    0 -0.12012886831E+03  0.11786204194E+04  0.20890240645E+04  0.24064476377E+04  0.15294330000E+03 0.  0.
<mgrwt>
<rscale>  0 0.13133397E+04</rscale>
<asrwt>0</asrwt>
<pdfrwt beam="1">  1        2 0.49044377E+00 0.13555026E+04</pdfrwt>
<pdfrwt beam="2">  1       -2 0.99584819E-01 0.13555026E+04</pdfrwt>
<totfact> 0.10733936E+00</totfact>
</mgrwt>
</event>
<event>
 4    1  0.8645356E-007  0.1521850E+04  0.7818608E-02  0.8894359E-01
          2   -1    0    0  501    0  0.00000000000E+00  0.00000000000E+00  0.14120790732E+04  0.14120790732E+04  0.25500000000E-02 0. -1.
         -2   -1    0    0    0  501 -0.00000000000E+00 -0.00000000000E+00 -0.17213677673E+04  0.17213677673E+04  0.25500000000E-02 0.  1.
    8880023    1    1    2    0    0 -0.10199811504E+04 -0.91752758645E+03  0.41102452876E+03  0.15763786945E+04  0.65864270000E+03 0. -1.
    8880022    1    1    2    0    0  0.10199811504E+04  0.91752758645E+03 -0.72031322285E+03  0.15570681459E+04  0.15294330000E+03 0.  0.
<mgrwt>
<rscale>  0 0.14851941E+04</rscale>
<asrwt>0</asrwt>
<pdfrwt beam="1">  1        2 0.21724293E+00 0.15218504E+04</pdfrwt>
<pdfrwt beam="2">  1       -2 0.26482581E+00 0.15218504E+04</pdfrwt>
<totfact> 0.69734504E-01</totfact>
</mgrwt>
</event>
<event>
 4    1  0.8645356E-007  0.6912388E+03  0.7818608E-02  0.1003569E+00
         -2   -1    0    0    0  501 -0.00000000000E+00  0.00000000000E+00  0.25661119051E+03  0.25661119052E+03  0.25500000000E-02 0.  1.
          2   -1    0    0  501    0  0.00000000000E+00 -0.00000000000E+00 -0.11999482110E+04  0.11999482110E+04  0.25500000000E-02 0. -1.
    8880023    1    1    2    0    0 -0.44927685194E+02 -0.20489598592E+03 -0.28282057604E+03  0.74685912088E+03  0.65864270000E+03 0.  1.
    8880022    1    1    2    0    0  0.44927685194E+02  0.20489598592E+03 -0.66051644445E+03  0.70970028064E+03  0.15294330000E+03 0. -1.
<mgrwt>
<rscale>  0 0.54112492E+03</rscale>
<asrwt>0</asrwt>
<pdfrwt beam="1">  1        2 0.18460741E+00 0.69123879E+03</pdfrwt>
<pdfrwt beam="2">  1       -2 0.39478645E-01 0.69123879E+03</pdfrwt>
<totfact> 0.11714469E+02</totfact>
</mgrwt>
</event>
<event>
 4    1  0.8645356E-007  0.6797943E+03  0.7818608E-02  0.1009440E+00
         -2   -1    0    0    0  501 -0.00000000000E+00  0.00000000000E+00  0.20241492207E+03  0.20241492209E+03  0.25500000000E-02 0.  1.
          2   -1    0    0  501    0  0.00000000000E+00 -0.00000000000E+00 -0.10921164368E+04  0.10921164368E+04  0.25500000000E-02 0. -1.
    8880023    1    1    2    0    0 -0.45282068640E+02  0.16204825074E+03 -0.50195278950E+03  0.84503071569E+03  0.65864270000E+03 0.  1.
    8880022    1    1    2    0    0  0.45282068640E+02 -0.16204825074E+03 -0.38774872526E+03  0.44950064323E+03  0.15294330000E+03 0. -1.
<mgrwt>
<rscale>  0 0.51697710E+03</rscale>
<asrwt>0</asrwt>
<pdfrwt beam="1">  1        2 0.16801791E+00 0.67979431E+03</pdfrwt>
<pdfrwt beam="2">  1       -2 0.31140758E-01 0.67979431E+03</pdfrwt>
<totfact> 0.21374092E+02</totfact>
</mgrwt>
</event>
<event>
 4    1  0.8645356E-007  0.8087592E+03  0.7818608E-02  0.9692167E-01
          2   -1    0    0  501    0  0.00000000000E+00  0.00000000000E+00  0.41329909256E+03  0.41329909257E+03  0.25500000000E-02 0. -1.
         -2   -1    0    0    0  501 -0.00000000000E+00 -0.00000000000E+00 -0.13895627065E+04  0.13895627065E+04  0.25500000000E-02 0.  1.
    8880023    1    1    2    0    0 -0.45754474879E+03  0.10456581876E+03 -0.10263353438E+04  0.13066964650E+04  0.65864270000E+03 0.  1.
    8880022    1    1    2    0    0  0.45754474879E+03 -0.10456581876E+03  0.50071729789E+02  0.49616533407E+03  0.15294330000E+03 0.  0.
<mgrwt>
<rscale>  0 0.71485064E+03</rscale>
<asrwt>0</asrwt>
<pdfrwt beam="1">  1        2 0.63584477E-01 0.80875918E+03</pdfrwt>
<pdfrwt beam="2">  1       -2 0.21377888E+00 0.80875918E+03</pdfrwt>
<totfact> 0.84199305E+00</totfact>
</mgrwt>
</event>
<event>
 4    1  0.8645356E-007  0.8394061E+03  0.7818608E-02  0.9631301E-01
          2   -1    0    0  501    0  0.00000000000E+00  0.00000000000E+00  0.35857239185E+04  0.35857239185E+04  0.25500000000E-02 0. -1.
         -2   -1    0    0    0  501 -0.00000000000E+00 -0.00000000000E+00 -0.29333910697E+03  0.29333910699E+03  0.25500000000E-02 0.  1.
    8880023    1    1    2    0    0 -0.51979603360E+03 -0.24585639088E+02  0.38848637400E+03  0.92494553312E+03  0.65864270000E+03 0.  1.
    8880022    1    1    2    0    0  0.51979603360E+03  0.24585639088E+02  0.29038984375E+04  0.29541174923E+04  0.15294330000E+03 0.  0.
<mgrwt>
<rscale>  0 0.75258658E+03</rscale>
<asrwt>0</asrwt>
<pdfrwt beam="1">  1        2 0.55164983E+00 0.83940609E+03</pdfrwt>
<pdfrwt beam="2">  1       -2 0.45129093E-01 0.83940609E+03</pdfrwt>
<totfact> 0.35196324E+00</totfact>
</mgrwt>
</event>
<event>
 4    1  0.8645356E-007  0.1048083E+04  0.7818608E-02  0.9321190E-01
          2   -1    0    0  501    0  0.00000000000E+00  0.00000000000E+00  0.34588265715E+04  0.34588265715E+04  0.25500000000E-02 0. -1.
         -2   -1    0    0    0  501 -0.00000000000E+00 -0.00000000000E+00 -0.38618722223E+03  0.38618722224E+03  0.25500000000E-02 0.  1.
    8880023    1    1    2    0    0  0.48812204356E+03  0.65299610624E+03  0.27706496899E+04  0.29622587589E+04  0.65864270000E+03 0. -1.
    8880022    1    1    2    0    0 -0.48812204356E+03 -0.65299610624E+03  0.30198965935E+03  0.88275503484E+03  0.15294330000E+03 0.  0.
<mgrwt>
<rscale>  0 0.98855272E+03</rscale>
<asrwt>0</asrwt>
<pdfrwt beam="1">  1        2 0.53212717E+00 0.10480827E+04</pdfrwt>
<pdfrwt beam="2">  1       -2 0.59413418E-01 0.10480827E+04</pdfrwt>
<totfact> 0.23600040E+00</totfact>
</mgrwt>
</event>
<event>
 4    1  0.8645356E-007  0.8783318E+03  0.7818608E-02  0.9561752E-01
         -2   -1    0    0    0  501 -0.00000000000E+00  0.00000000000E+00  0.91433058893E+03  0.91433058894E+03  0.25500000000E-02 0.  1.
          2   -1    0    0  501    0  0.00000000000E+00 -0.00000000000E+00 -0.71972252585E+03  0.71972252586E+03  0.25500000000E-02 0. -1.
    8880023    1    1    2    0    0  0.22267102348E+03  0.53672543443E+03 -0.21821444542E+03  0.90503277681E+03  0.65864270000E+03 0.  0.
    8880022    1    1    2    0    0 -0.22267102348E+03 -0.53672543443E+03  0.41282250849E+03  0.72902033798E+03  0.15294330000E+03 0.  0.
<mgrwt>
<rscale>  0 0.79880287E+03</rscale>
<asrwt>0</asrwt>
<pdfrwt beam="1">  1        2 0.11072654E+00 0.87833182E+03</pdfrwt>
<pdfrwt beam="2">  1       -2 0.14066624E+00 0.87833182E+03</pdfrwt>
<totfact> 0.14066098E+01</totfact>
</mgrwt>
</event>
<event>
 4    1  0.8645356E-007  0.8700740E+03  0.7818608E-02  0.9575889E-01
          2   -1    0    0  501    0  0.00000000000E+00  0.00000000000E+00  0.10681062853E+04  0.10681062853E+04  0.25500000000E-02 0. -1.
         -2   -1    0    0    0  501 -0.00000000000E+00 -0.00000000000E+00 -0.65894252465E+03  0.65894252466E+03  0.25500000000E-02 0.  1.
    8880023    1    1    2    0    0 -0.53386344399E+03  0.19546962551E+03 -0.18617375470E+03  0.88976930972E+03  0.65864270000E+03 0.  1.
    8880022    1    1    2    0    0  0.53386344399E+03 -0.19546962551E+03  0.59533751538E+03  0.83727950026E+03  0.15294330000E+03 0.  0.
<mgrwt>
<rscale>  0 0.78912774E+03</rscale>
<asrwt>0</asrwt>
<pdfrwt beam="1">  1        2 0.16432404E+00 0.87007400E+03</pdfrwt>
<pdfrwt beam="2">  1       -2 0.10137577E+00 0.87007400E+03</pdfrwt>
<totfact> 0.18327549E+01</totfact>
</mgrwt>
</event>
<event>
 4    1  0.8645356E-007  0.7826115E+03  0.7818608E-02  0.9749738E-01
         -2   -1    0    0    0  501 -0.00000000000E+00  0.00000000000E+00  0.11152744193E+04  0.11152744193E+04  0.25500000000E-02 0.  1.
          2   -1    0    0  501    0  0.00000000000E+00 -0.00000000000E+00 -0.45112812080E+03  0.45112812081E+03  0.25500000000E-02 0. -1.
    8880023    1    1    2    0    0 -0.38620204792E+03 -0.17180937937E+03  0.77712698663E+03  0.11029084478E+04  0.65864270000E+03 0.  0.
    8880022    1    1    2    0    0  0.38620204792E+03  0.17180937937E+03 -0.11298068815E+03  0.46349409227E+03  0.15294330000E+03 0.  0.
<mgrwt>
<rscale>  0 0.68131079E+03</rscale>
<asrwt>0</asrwt>
<pdfrwt beam="1">  1        2 0.69404327E-01 0.78261146E+03</pdfrwt>
<pdfrwt beam="2">  1       -2 0.17158068E+00 0.78261146E+03</pdfrwt>
<totfact> 0.14579289E+01</totfact>
</mgrwt>
</event>
<event>
 4    1  0.8645356E-007  0.7954942E+03  0.7818608E-02  0.9720624E-01
          2   -1    0    0  501    0  0.00000000000E+00  0.00000000000E+00  0.44863548952E+03  0.44863548953E+03  0.25500000000E-02 0. -1.
         -2   -1    0    0    0  501 -0.00000000000E+00 -0.00000000000E+00 -0.16942422897E+04  0.16942422897E+04  0.25500000000E-02 0.  1.
    8880023    1    1    2    0    0  0.90036614450E+02  0.43691445165E+03 -0.14301239767E+04  0.16364796439E+04  0.65864270000E+03 0.  1.
    8880022    1    1    2    0    0 -0.90036614450E+02 -0.43691445165E+03  0.18451717651E+03  0.50639813531E+03  0.15294330000E+03 0.  0.
<mgrwt>
<rscale>  0 0.69801986E+03</rscale>
<asrwt>0</asrwt>
<pdfrwt beam="1">  1        2 0.69020845E-01 0.79549421E+03</pdfrwt>
<pdfrwt beam="2">  1       -2 0.26065266E+00 0.79549421E+03</pdfrwt>
<totfact> 0.39553823E+00</totfact>
</mgrwt>
</event>
<event>
 4    1  0.8645356E-007  0.1568907E+04  0.7818608E-02  0.8862451E-01
          2   -1    0    0  501    0  0.00000000000E+00  0.00000000000E+00  0.14777012621E+04  0.14777012621E+04  0.25500000000E-02 0. -1.
         -2   -1    0    0    0  501 -0.00000000000E+00 -0.00000000000E+00 -0.20305925112E+04  0.20305925112E+04  0.25500000000E-02 0.  1.
    8880023    1    1    2    0    0 -0.58947017138E+03 -0.12962194622E+04  0.58983187389E+03  0.16761180814E+04  0.65864270000E+03 0.  1.
    8880022    1    1    2    0    0  0.58947017138E+03  0.12962194622E+04 -0.11427231230E+04  0.18321756919E+04  0.15294330000E+03 0.  0.
<mgrwt>
<rscale>  0 0.15335398E+04</rscale>
<asrwt>0</asrwt>
<pdfrwt beam="1">  1        2 0.22733865E+00 0.15689073E+04</pdfrwt>
<pdfrwt beam="2">  1       -2 0.31239885E+00 0.15689073E+04</pdfrwt>
<totfact> 0.32575297E-01</totfact>
</mgrwt>
</event>
<event>
 4    1  0.8645356E-007  0.7180935E+03  0.7818608E-02  0.9929091E-01
          2   -1    0    0  501    0  0.00000000000E+00  0.00000000000E+00  0.35128123381E+03  0.35128123382E+03  0.25500000000E-02 0. -1.
         -2   -1    0    0    0  501 -0.00000000000E+00 -0.00000000000E+00 -0.16988981791E+04  0.16988981791E+04  0.25500000000E-02 0.  1.
    8880023    1    1    2    0    0  0.13002250879E+03  0.25483754494E+03 -0.15212568717E+04  0.16822249264E+04  0.65864270000E+03 0.  1.
    8880022    1    1    2    0    0 -0.13002250879E+03 -0.25483754494E+03  0.17363992639E+03  0.36795448653E+03  0.15294330000E+03 0.  0.
<mgrwt>
<rscale>  0 0.58871916E+03</rscale>
<asrwt>0</asrwt>
<pdfrwt beam="1">  1        2 0.54043268E-01 0.71809347E+03</pdfrwt>
<pdfrwt beam="2">  1       -2 0.26136895E+00 0.71809347E+03</pdfrwt>
<totfact> 0.52113899E+00</totfact>
</mgrwt>
</event>
<event>
 4    1  0.8645356E-007  0.6624417E+03  0.7818608E-02  0.1021784E+00
         -2   -1    0    0    0  501 -0.00000000000E+00  0.00000000000E+00  0.34957773873E+03  0.34957773874E+03  0.25500000000E-02 0.  1.
          2   -1    0    0  501    0  0.00000000000E+00 -0.00000000000E+00 -0.13354168395E+04  0.13354168395E+04  0.25500000000E-02 0. -1.
    8880023    1    1    2    0    0  0.56252705776E+02  0.43062632491E+02  0.22344280700E+02  0.66281839924E+03  0.65864270000E+03 0.  1.
    8880022    1    1    2    0    0 -0.56252705776E+02 -0.43062632491E+02 -0.10081833815E+04  0.10221761790E+04  0.15294330000E+03 0.  0.
<mgrwt>
<rscale>  0 0.47048461E+03</rscale>
<asrwt>0</asrwt>
<pdfrwt beam="1">  1        2 0.20544874E+00 0.66244167E+03</pdfrwt>
<pdfrwt beam="2">  1       -2 0.53781191E-01 0.66244167E+03</pdfrwt>
<totfact> 0.52820374E+01</totfact>
</mgrwt>
</event>
<event>
 4    1  0.8645356E-007  0.8569524E+03  0.7818608E-02  0.9599008E-01
         -2   -1    0    0    0  501 -0.00000000000E+00  0.00000000000E+00  0.44175727673E+03  0.44175727673E+03  0.25500000000E-02 0.  1.
          2   -1    0    0  501    0  0.00000000000E+00 -0.00000000000E+00 -0.13418545714E+04  0.13418545714E+04  0.25500000000E-02 0. -1.
    8880023    1    1    2    0    0 -0.50212484109E+03 -0.22006333139E+03 -0.19752294238E+03  0.87942182421E+03  0.65864270000E+03 0.  0.
    8880022    1    1    2    0    0  0.50212484109E+03  0.22006333139E+03 -0.70257435229E+03  0.90419002393E+03  0.15294330000E+03 0.  0.
<mgrwt>
<rscale>  0 0.77361893E+03</rscale>
<asrwt>0</asrwt>
<pdfrwt beam="1">  1        2 0.20643916E+00 0.85695241E+03</pdfrwt>
<pdfrwt beam="2">  1       -2 0.67962659E-01 0.85695241E+03</pdfrwt>
<totfact> 0.31288201E+01</totfact>
</mgrwt>
</event>
<event>
 4    1  0.8645356E-007  0.7070745E+03  0.7818608E-02  0.9969029E-01
         -2   -1    0    0    0  501 -0.00000000000E+00  0.00000000000E+00  0.60856873445E+03  0.60856873445E+03  0.25500000000E-02 0.  1.
          2   -1    0    0  501    0  0.00000000000E+00 -0.00000000000E+00 -0.14035471671E+04  0.14035471672E+04  0.25500000000E-02 0. -1.
    8880023    1    1    2    0    0  0.25065746257E+03  0.57576041943E+02  0.37786179650E+03  0.80170687141E+03  0.65864270000E+03 0.  0.
    8880022    1    1    2    0    0 -0.25065746257E+03 -0.57576041943E+02 -0.11728402292E+04  0.12104090302E+04  0.15294330000E+03 0. -1.
<mgrwt>
<rscale>  0 0.57029359E+03</rscale>
<asrwt>0</asrwt>
<pdfrwt beam="1">  1        2 0.21593033E+00 0.70707452E+03</pdfrwt>
<pdfrwt beam="2">  1       -2 0.93625960E-01 0.70707452E+03</pdfrwt>
<totfact> 0.14281681E+01</totfact>
</mgrwt>
</event>
<event>
 4    1  0.8645356E-007  0.9466862E+03  0.7818608E-02  0.9454898E-01
         -2   -1    0    0    0  501 -0.00000000000E+00  0.00000000000E+00  0.47855176196E+03  0.47855176197E+03  0.25500000000E-02 0.  1.
          2   -1    0    0  501    0  0.00000000000E+00 -0.00000000000E+00 -0.14948484024E+04  0.14948484024E+04  0.25500000000E-02 0. -1.
    8880023    1    1    2    0    0 -0.91834272063E+02  0.67377364993E+03 -0.35042990594E+03  0.10094631197E+04  0.65864270000E+03 0.  1.
    8880022    1    1    2    0    0  0.91834272063E+02 -0.67377364993E+03 -0.66586673446E+03  0.96393704459E+03  0.15294330000E+03 0. -1.
<mgrwt>
<rscale>  0 0.87692262E+03</rscale>
<asrwt>0</asrwt>
<pdfrwt beam="1">  1        2 0.22997667E+00 0.94668615E+03</pdfrwt>
<pdfrwt beam="2">  1       -2 0.73623349E-01 0.94668615E+03</pdfrwt>
<totfact> 0.21314481E+01</totfact>
</mgrwt>
</event>
<event>
 4    1  0.8645356E-007  0.7665442E+03  0.7818608E-02  0.9788451E-01
          2   -1    0    0  501    0  0.00000000000E+00  0.00000000000E+00  0.58307725077E+03  0.58307725078E+03  0.25500000000E-02 0. -1.
         -2   -1    0    0    0  501 -0.00000000000E+00 -0.00000000000E+00 -0.20330886390E+04  0.20330886390E+04  0.25500000000E-02 0.  1.
    8880023    1    1    2    0    0 -0.38954653672E+03 -0.45091710755E+02 -0.18703328314E+04  0.20213200818E+04  0.65864270000E+03 0.  1.
    8880022    1    1    2    0    0  0.38954653672E+03  0.45091710755E+02  0.42032144317E+03  0.59484580797E+03  0.15294330000E+03 0.  0.
<mgrwt>
<rscale>  0 0.65986045E+03</rscale>
<asrwt>0</asrwt>
<pdfrwt beam="1">  1        2 0.89704193E-01 0.76654418E+03</pdfrwt>
<pdfrwt beam="2">  1       -2 0.31278287E+00 0.76654418E+03</pdfrwt>
<totfact> 0.14199481E+00</totfact>
</mgrwt>
</event>
<event>
 4    1  0.8645356E-007  0.9616907E+03  0.7818608E-02  0.9433489E-01
          2   -1    0    0  501    0  0.00000000000E+00  0.00000000000E+00  0.14196238754E+04  0.14196238754E+04  0.25500000000E-02 0. -1.
         -2   -1    0    0    0  501 -0.00000000000E+00 -0.00000000000E+00 -0.56044248708E+03  0.56044248709E+03  0.25500000000E-02 0.  1.
    8880023    1    1    2    0    0  0.67878171114E+03 -0.17405249506E+03  0.15347607362E+03  0.97386035645E+03  0.65864270000E+03 0.  0.
    8880022    1    1    2    0    0 -0.67878171114E+03  0.17405249506E+03  0.70570531472E+03  0.10062060061E+04  0.15294330000E+03 0.  0.
<mgrwt>
<rscale>  0 0.89370136E+03</rscale>
<asrwt>0</asrwt>
<pdfrwt beam="1">  1        2 0.21840367E+00 0.96169074E+03</pdfrwt>
<pdfrwt beam="2">  1       -2 0.86221922E-01 0.96169074E+03</pdfrwt>
<totfact> 0.16440759E+01</totfact>
</mgrwt>
</event>
<event>
 4    1  0.8645356E-007  0.7195675E+03  0.7818608E-02  0.9924052E-01
          2   -1    0    0  501    0  0.00000000000E+00  0.00000000000E+00  0.10862404582E+04  0.10862404582E+04  0.25500000000E-02 0. -1.
         -2   -1    0    0    0  501 -0.00000000000E+00 -0.00000000000E+00 -0.30351169222E+03  0.30351169223E+03  0.25500000000E-02 0.  1.
    8880023    1    1    2    0    0 -0.12794781399E+03  0.25999336442E+03  0.24513591948E+03  0.76017696488E+03  0.65864270000E+03 0.  1.
    8880022    1    1    2    0    0  0.12794781399E+03 -0.25999336442E+03  0.53759284648E+03  0.62957518554E+03  0.15294330000E+03 0. -1.
<mgrwt>
<rscale>  0 0.59109650E+03</rscale>
<asrwt>0</asrwt>
<pdfrwt beam="1">  1        2 0.16711392E+00 0.71956751E+03</pdfrwt>
<pdfrwt beam="2">  1       -2 0.46694106E-01 0.71956751E+03</pdfrwt>
<totfact> 0.98214365E+01</totfact>
</mgrwt>
</event>
<event>
 4    1  0.8645356E-007  0.6626748E+03  0.7818608E-02  0.1021569E+00
         -2   -1    0    0    0  501 -0.00000000000E+00  0.00000000000E+00  0.10056912591E+03  0.10056912594E+03  0.25500000000E-02 0.  1.
          2   -1    0    0  501    0  0.00000000000E+00 -0.00000000000E+00 -0.22840241370E+04  0.22840241370E+04  0.25500000000E-02 0. -1.
    8880023    1    1    2    0    0  0.60564549802E+02  0.40738294693E+02 -0.10719539360E+04  0.12602472458E+04  0.65864270000E+03 0.  1.
    8880022    1    1    2    0    0 -0.60564549802E+02 -0.40738294693E+02 -0.11115010751E+04  0.11243460172E+04  0.15294330000E+03 0.  0.
<mgrwt>
<rscale>  0 0.47124539E+03</rscale>
<asrwt>0</asrwt>
<pdfrwt beam="1">  1        2 0.35138829E+00 0.66267479E+03</pdfrwt>
<pdfrwt beam="2">  1       -2 0.15472175E-01 0.66267479E+03</pdfrwt>
<totfact> 0.16022880E+02</totfact>
</mgrwt>
</event>
<event>
 4    1  0.8645356E-007  0.7466821E+03  0.7818608E-02  0.9840893E-01
         -2   -1    0    0    0  501 -0.00000000000E+00  0.00000000000E+00  0.53466732202E+03  0.53466732203E+03  0.25500000000E-02 0.  1.
          2   -1    0    0  501    0  0.00000000000E+00 -0.00000000000E+00 -0.10400935678E+04  0.10400935678E+04  0.25500000000E-02 0. -1.
    8880023    1    1    2    0    0  0.35165801923E+03 -0.77870276202E+01  0.19894352513E+03  0.77273069872E+03  0.65864270000E+03 0.  1.
    8880022    1    1    2    0    0 -0.35165801923E+03  0.77870276202E+01 -0.70436977093E+03  0.80203019114E+03  0.15294330000E+03 0.  0.
<mgrwt>
<rscale>  0 0.63213404E+03</rscale>
<asrwt>0</asrwt>
<pdfrwt beam="1">  1        2 0.16001440E+00 0.74668213E+03</pdfrwt>
<pdfrwt beam="2">  1       -2 0.82256511E-01 0.74668213E+03</pdfrwt>
<totfact> 0.31348686E+01</totfact>
</mgrwt>
</event>
<event>
 4    1  0.8645356E-007  0.1046244E+04  0.7818608E-02  0.9323410E-01
          2   -1    0    0  501    0  0.00000000000E+00  0.00000000000E+00  0.15539526452E+04  0.15539526452E+04  0.25500000000E-02 0. -1.
         -2   -1    0    0    0  501 -0.00000000000E+00 -0.00000000000E+00 -0.64047589360E+03  0.64047589361E+03  0.25500000000E-02 0.  1.
    8880023    1    1    2    0    0  0.46642704390E+03 -0.66577956860E+03  0.12854711847E+03  0.10541115639E+04  0.65864270000E+03 0.  0.
    8880022    1    1    2    0    0 -0.46642704390E+03  0.66577956860E+03  0.78492963310E+03  0.11403169749E+04  0.15294330000E+03 0.  0.
<mgrwt>
<rscale>  0 0.98655959E+03</rscale>
<asrwt>0</asrwt>
<pdfrwt beam="1">  1        2 0.23906964E+00 0.10462442E+04</pdfrwt>
<pdfrwt beam="2">  1       -2 0.98534752E-01 0.10462442E+04</pdfrwt>
<totfact> 0.10036263E+01</totfact>
</mgrwt>
</event>
<event>
 4    1  0.8645356E-007  0.6906376E+03  0.7818608E-02  0.1003851E+00
          2   -1    0    0  501    0  0.00000000000E+00  0.00000000000E+00  0.12484662189E+04  0.12484662189E+04  0.25500000000E-02 0. -1.
         -2   -1    0    0    0  501 -0.00000000000E+00 -0.00000000000E+00 -0.18610833849E+03  0.18610833851E+03  0.25500000000E-02 0.  1.
    8880023    1    1    2    0    0 -0.58507890074E+02 -0.19936642741E+03  0.65155492288E+03  0.94947573396E+03  0.65864270000E+03 0.  0.
    8880022    1    1    2    0    0  0.58507890074E+02  0.19936642741E+03  0.41080295749E+03  0.48509882342E+03  0.15294330000E+03 0. -1.
<mgrwt>
<rscale>  0 0.53993417E+03</rscale>
<asrwt>0</asrwt>
<pdfrwt beam="1">  1        2 0.19207172E+00 0.69063764E+03</pdfrwt>
<pdfrwt beam="2">  1       -2 0.28632053E-01 0.69063764E+03</pdfrwt>
<totfact> 0.20134549E+02</totfact>
</mgrwt>
</event>
<event>
 4    1  0.8645356E-007  0.8022587E+03  0.7818608E-02  0.9705933E-01
          2   -1    0    0  501    0  0.00000000000E+00  0.00000000000E+00  0.18553444682E+04  0.18553444682E+04  0.25500000000E-02 0. -1.
         -2   -1    0    0    0  501 -0.00000000000E+00 -0.00000000000E+00 -0.57906929040E+03  0.57906929041E+03  0.25500000000E-02 0.  1.
    8880023    1    1    2    0    0  0.29215763258E+03  0.35277862222E+03 -0.24459560593E+03  0.83871691009E+03  0.65864270000E+03 0.  1.
    8880022    1    1    2    0    0 -0.29215763258E+03 -0.35277862222E+03  0.15208707838E+04  0.15956968486E+04  0.15294330000E+03 0.  0.
<mgrwt>
<rscale>  0 0.70664618E+03</rscale>
<asrwt>0</asrwt>
<pdfrwt beam="1">  1        2 0.28543761E+00 0.80225871E+03</pdfrwt>
<pdfrwt beam="2">  1       -2 0.89087583E-01 0.80225871E+03</pdfrwt>
<totfact> 0.89104028E+00</totfact>
</mgrwt>
</event>
<event>
 4    1  0.8645356E-007  0.6818453E+03  0.7818608E-02  0.1008299E+00
         -2   -1    0    0    0  501 -0.00000000000E+00  0.00000000000E+00  0.48903695965E+03  0.48903695965E+03  0.25500000000E-02 0.  1.
          2   -1    0    0  501    0  0.00000000000E+00 -0.00000000000E+00 -0.17167755570E+04  0.17167755570E+04  0.25500000000E-02 0. -1.
    8880023    1    1    2    0    0  0.14836321255E+03  0.95347667842E+02  0.23755336041E+03  0.72204198348E+03  0.65864270000E+03 0.  0.
    8880022    1    1    2    0    0 -0.14836321255E+03 -0.95347667842E+02 -0.14652919578E+04  0.14837705332E+04  0.15294330000E+03 0.  0.
<mgrwt>
<rscale>  0 0.52156501E+03</rscale>
<asrwt>0</asrwt>
<pdfrwt beam="1">  1        2 0.26411931E+00 0.68184531E+03</pdfrwt>
<pdfrwt beam="2">  1       -2 0.75236456E-01 0.68184531E+03</pdfrwt>
<totfact> 0.15804473E+01</totfact>
</mgrwt>
</event>
<event>
 4    1  0.8645356E-007  0.7252687E+03  0.7818608E-02  0.9905145E-01
          2   -1    0    0  501    0  0.00000000000E+00  0.00000000000E+00  0.10098257034E+04  0.10098257034E+04  0.25500000000E-02 0. -1.
         -2   -1    0    0    0  501 -0.00000000000E+00 -0.00000000000E+00 -0.30448812472E+03  0.30448812473E+03  0.25500000000E-02 0.  1.
    8880023    1    1    2    0    0 -0.24688901668E+03  0.17677773124E+03  0.29896869383E+03  0.78447245903E+03  0.65864270000E+03 0.  1.
    8880022    1    1    2    0    0  0.24688901668E+03 -0.17677773124E+03  0.40636888482E+03  0.52984136908E+03  0.15294330000E+03 0. -1.
<mgrwt>
<rscale>  0 0.60012562E+03</rscale>
<asrwt>0</asrwt>
<pdfrwt beam="1">  1        2 0.15535780E+00 0.72526875E+03</pdfrwt>
<pdfrwt beam="2">  1       -2 0.46844328E-01 0.72526875E+03</pdfrwt>
<totfact> 0.10885998E+02</totfact>
</mgrwt>
</event>
<event>
 4    1  0.8645356E-007  0.8284504E+03  0.7818608E-02  0.9652355E-01
          2   -1    0    0  501    0  0.00000000000E+00  0.00000000000E+00  0.23761263309E+04  0.23761263309E+04  0.25500000000E-02 0. -1.
         -2   -1    0    0    0  501 -0.00000000000E+00 -0.00000000000E+00 -0.24313376576E+03  0.24313376577E+03  0.25500000000E-02 0.  1.
    8880023    1    1    2    0    0  0.44122414508E+03 -0.24050171812E+03  0.67206492240E+03  0.10667714323E+04  0.65864270000E+03 0.  0.
    8880022    1    1    2    0    0 -0.44122414508E+03  0.24050171812E+03  0.14609276427E+04  0.15524886643E+04  0.15294330000E+03 0.  0.
<mgrwt>
<rscale>  0 0.73925811E+03</rscale>
<asrwt>0</asrwt>
<pdfrwt beam="1">  1        2 0.36555790E+00 0.82845038E+03</pdfrwt>
<pdfrwt beam="2">  1       -2 0.37405195E-01 0.82845038E+03</pdfrwt>
<totfact> 0.28478336E+01</totfact>
</mgrwt>
</event>
<event>
 4    1  0.8645356E-007  0.1157361E+04  0.7818608E-02  0.9199728E-01
         -2   -1    0    0    0  501 -0.00000000000E+00  0.00000000000E+00  0.11038551557E+04  0.11038551557E+04  0.25500000000E-02 0.  1.
          2   -1    0    0  501    0  0.00000000000E+00 -0.00000000000E+00 -0.19392330700E+04  0.19392330700E+04  0.25500000000E-02 0. -1.
    8880023    1    1    2    0    0 -0.76862727088E+03  0.56114653296E+03  0.60808982336E+03  0.13073854644E+04  0.65864270000E+03 0.  1.
    8880022    1    1    2    0    0  0.76862727088E+03 -0.56114653296E+03 -0.14434677376E+04  0.17357027613E+04  0.15294330000E+03 0.  0.
<mgrwt>
<rscale>  0 0.11056235E+04</rscale>
<asrwt>0</asrwt>
<pdfrwt beam="1">  1        2 0.29834355E+00 0.11573606E+04</pdfrwt>
<pdfrwt beam="2">  1       -2 0.16982387E+00 0.11573606E+04</pdfrwt>
<totfact> 0.15076903E+00</totfact>
</mgrwt>
</event>
<event>
 4    1  0.8645356E-007  0.1359630E+04  0.7818608E-02  0.9015704E-01
          2   -1    0    0  501    0  0.00000000000E+00  0.00000000000E+00  0.10768501870E+04  0.10768501870E+04  0.25500000000E-02 0. -1.
         -2   -1    0    0    0  501 -0.00000000000E+00 -0.00000000000E+00 -0.16967057722E+04  0.16967057722E+04  0.25500000000E-02 0.  1.
    8880023    1    1    2    0    0 -0.31929929639E+03  0.11457882134E+04  0.11925187878E+03  0.13648494011E+04  0.65864270000E+03 0.  0.
    8880022    1    1    2    0    0  0.31929929639E+03 -0.11457882134E+04 -0.73910746390E+03  0.14087065581E+04  0.15294330000E+03 0.  0.
<mgrwt>
<rscale>  0 0.13176253E+04</rscale>
<asrwt>0</asrwt>
<pdfrwt beam="1">  1        2 0.16566926E+00 0.13596297E+04</pdfrwt>
<pdfrwt beam="2">  1       -2 0.26103166E+00 0.13596297E+04</pdfrwt>
<totfact> 0.11866974E+00</totfact>
</mgrwt>
</event>
<event>
 4    1  0.8645356E-007  0.6937112E+03  0.7818608E-02  0.1002436E+00
          2   -1    0    0  501    0  0.00000000000E+00  0.00000000000E+00  0.59133869265E+03  0.59133869266E+03  0.25500000000E-02 0. -1.
         -2   -1    0    0    0  501 -0.00000000000E+00 -0.00000000000E+00 -0.43852754592E+03  0.43852754593E+03  0.25500000000E-02 0.  1.
    8880023    1    1    2    0    0  0.19015093346E+03  0.10614941435E+03 -0.49656799775E+02  0.69548621819E+03  0.65864270000E+03 0.  1.
    8880022    1    1    2    0    0 -0.19015093346E+03 -0.10614941435E+03  0.20246794650E+03  0.33438002040E+03  0.15294330000E+03 0.  0.
<mgrwt>
<rscale>  0 0.54594769E+03</rscale>
<asrwt>0</asrwt>
<pdfrwt beam="1">  1        2 0.90975182E-01 0.69371124E+03</pdfrwt>
<pdfrwt beam="2">  1       -2 0.67465777E-01 0.69371124E+03</pdfrwt>
<totfact> 0.10317320E+02</totfact>
</mgrwt>
</event>
<event>
 4    1  0.8645356E-007  0.6743331E+03  0.7818608E-02  0.1012730E+00
          2   -1    0    0  501    0  0.00000000000E+00  0.00000000000E+00  0.70998598005E+03  0.70998598006E+03  0.25500000000E-02 0. -1.
         -2   -1    0    0    0  501 -0.00000000000E+00 -0.00000000000E+00 -0.41707545913E+03  0.41707545914E+03  0.25500000000E-02 0.  1.
    8880023    1    1    2    0    0  0.45782325694E+02  0.13718185924E+03 -0.99623236280E+02  0.68165231557E+03  0.65864270000E+03 0.  1.
    8880022    1    1    2    0    0 -0.45782325694E+02 -0.13718185924E+03  0.39253375720E+03  0.44540912363E+03  0.15294330000E+03 0.  0.
<mgrwt>
<rscale>  0 0.50403921E+03</rscale>
<asrwt>0</asrwt>
<pdfrwt beam="1">  1        2 0.10922861E+00 0.67433307E+03</pdfrwt>
<pdfrwt beam="2">  1       -2 0.64165456E-01 0.67433307E+03</pdfrwt>
<totfact> 0.91887397E+01</totfact>
</mgrwt>
</event>
<event>
 4    1  0.8645356E-007  0.9108426E+03  0.7818608E-02  0.9508845E-01
          2   -1    0    0  501    0  0.00000000000E+00  0.00000000000E+00  0.19319071079E+04  0.19319071079E+04  0.25500000000E-02 0. -1.
         -2   -1    0    0    0  501 -0.00000000000E+00 -0.00000000000E+00 -0.41277800139E+03  0.41277800140E+03  0.25500000000E-02 0.  1.
    8880023    1    1    2    0    0 -0.51152704286E+03  0.36628425835E+03  0.14238245056E+04  0.16902397766E+04  0.65864270000E+03 0. -1.
    8880022    1    1    2    0    0  0.51152704286E+03 -0.36628425835E+03  0.95304600902E+02  0.65444533267E+03  0.15294330000E+03 0.  0.
<mgrwt>
<rscale>  0 0.83634835E+03</rscale>
<asrwt>0</asrwt>
<pdfrwt beam="1">  1        2 0.29721648E+00 0.91084262E+03</pdfrwt>
<pdfrwt beam="2">  1       -2 0.63504308E-01 0.91084262E+03</pdfrwt>
<totfact> 0.16935725E+01</totfact>
</mgrwt>
</event>
<event>
 4    1  0.8645356E-007  0.6695816E+03  0.7818608E-02  0.1015965E+00
         -2   -1    0    0    0  501 -0.00000000000E+00  0.00000000000E+00  0.24506766606E+03  0.24506766607E+03  0.25500000000E-02 0.  1.
          2   -1    0    0  501    0  0.00000000000E+00 -0.00000000000E+00 -0.12380455826E+04  0.12380455826E+04  0.25500000000E-02 0. -1.
    8880023    1    1    2    0    0 -0.93584887306E+02  0.75968713200E+02 -0.24949970481E+03  0.71455558600E+03  0.65864270000E+03 0.  1.
    8880022    1    1    2    0    0  0.93584887306E+02 -0.75968713200E+02 -0.74347821171E+03  0.76855766265E+03  0.15294330000E+03 0.  0.
<mgrwt>
<rscale>  0 0.49171411E+03</rscale>
<asrwt>0</asrwt>
<pdfrwt beam="1">  1        2 0.19046855E+00 0.66958165E+03</pdfrwt>
<pdfrwt beam="2">  1       -2 0.37702719E-01 0.66958165E+03</pdfrwt>
<totfact> 0.12185445E+02</totfact>
</mgrwt>
</event>
<event>
 4    1  0.8645356E-007  0.1006573E+04  0.7818608E-02  0.9373008E-01
          2   -1    0    0  501    0  0.00000000000E+00  0.00000000000E+00  0.66057147797E+03  0.66057147798E+03  0.25500000000E-02 0. -1.
         -2   -1    0    0    0  501 -0.00000000000E+00 -0.00000000000E+00 -0.15900550138E+04  0.15900550138E+04  0.25500000000E-02 0.  1.
    8880023    1    1    2    0    0  0.45629228233E+03 -0.60924226869E+03 -0.10617634982E+04  0.14630552694E+04  0.65864270000E+03 0.  1.
    8880022    1    1    2    0    0 -0.45629228233E+03  0.60924226869E+03  0.13227996238E+03  0.78757122239E+03  0.15294330000E+03 0.  0.
<mgrwt>
<rscale>  0 0.94330670E+03</rscale>
<asrwt>0</asrwt>
<pdfrwt beam="1">  1        2 0.10162638E+00 0.10065729E+04</pdfrwt>
<pdfrwt beam="2">  1       -2 0.24462385E+00 0.10065729E+04</pdfrwt>
<totfact> 0.30477327E+00</totfact>
</mgrwt>
</event>
<event>
 4    1  0.8645356E-007  0.9650122E+03  0.7818608E-02  0.9428836E-01
         -2   -1    0    0    0  501 -0.00000000000E+00  0.00000000000E+00  0.77747421705E+03  0.77747421705E+03  0.25500000000E-02 0.  1.
          2   -1    0    0  501    0  0.00000000000E+00 -0.00000000000E+00 -0.31589247476E+04  0.31589247476E+04  0.25500000000E-02 0. -1.
    8880023    1    1    2    0    0 -0.41473661166E+03 -0.57046629080E+03  0.41343145040E+03  0.10498447583E+04  0.65864270000E+03 0.  1.
    8880022    1    1    2    0    0  0.41473661166E+03  0.57046629080E+03 -0.27948819810E+04  0.28865542064E+04  0.15294330000E+03 0.  0.
<mgrwt>
<rscale>  0 0.89740105E+03</rscale>
<asrwt>0</asrwt>
<pdfrwt beam="1">  1        2 0.48598841E+00 0.96501215E+03</pdfrwt>
<pdfrwt beam="2">  1       -2 0.11961142E+00 0.96501215E+03</pdfrwt>
<totfact> 0.75922128E-01</totfact>
</mgrwt>
</event>
<event>
 4    1  0.8645356E-007  0.8893669E+03  0.7818608E-02  0.9543321E-01
         -2   -1    0    0    0  501 -0.00000000000E+00  0.00000000000E+00  0.80916961818E+03  0.80916961819E+03  0.25500000000E-02 0.  1.
          2   -1    0    0  501    0  0.00000000000E+00 -0.00000000000E+00 -0.78768860493E+03  0.78768860493E+03  0.25500000000E-02 0. -1.
    8880023    1    1    2    0    0 -0.21331798357E+03 -0.55826407282E+03  0.27350415400E+03  0.93047195855E+03  0.65864270000E+03 0.  0.
    8880022    1    1    2    0    0  0.21331798357E+03  0.55826407282E+03 -0.25202314075E+03  0.66638626457E+03  0.15294330000E+03 0.  0.
<mgrwt>
<rscale>  0 0.81163901E+03</rscale>
<asrwt>0</asrwt>
<pdfrwt beam="1">  1        2 0.12118286E+00 0.88936693E+03</pdfrwt>
<pdfrwt beam="2">  1       -2 0.12448763E+00 0.88936693E+03</pdfrwt>
<totfact> 0.17066108E+01</totfact>
</mgrwt>
</event>
<event>
 4    1  0.8645356E-007  0.7041393E+03  0.7818608E-02  0.9980444E-01
          2   -1    0    0  501    0  0.00000000000E+00  0.00000000000E+00  0.18235502069E+04  0.18235502069E+04  0.25500000000E-02 0. -1.
         -2   -1    0    0    0  501 -0.00000000000E+00 -0.00000000000E+00 -0.19859618513E+03  0.19859618515E+03  0.25500000000E-02 0.  1.
    8880023    1    1    2    0    0  0.23967390590E+03 -0.67515772727E+02  0.50973328678E+03  0.86927567011E+03  0.65864270000E+03 0.  0.
    8880022    1    1    2    0    0 -0.23967390590E+03  0.67515772727E+02  0.11152207350E+04  0.11528707220E+04  0.15294330000E+03 0.  0.
<mgrwt>
<rscale>  0 0.56516091E+03</rscale>
<asrwt>0</asrwt>
<pdfrwt beam="1">  1        2 0.28054619E+00 0.70413931E+03</pdfrwt>
<pdfrwt beam="2">  1       -2 0.30553259E-01 0.70413931E+03</pdfrwt>
<totfact> 0.85348209E+01</totfact>
</mgrwt>
</event>
<event>
 4    1  0.8645356E-007  0.7052390E+03  0.7818608E-02  0.9976124E-01
          2   -1    0    0  501    0  0.00000000000E+00  0.00000000000E+00  0.21583782632E+04  0.21583782632E+04  0.25500000000E-02 0. -1.
         -2   -1    0    0    0  501 -0.00000000000E+00 -0.00000000000E+00 -0.14742733719E+03  0.14742733722E+03  0.25500000000E-02 0.  1.
    8880023    1    1    2    0    0  0.14204527658E+03  0.20826668916E+03  0.83267966485E+03  0.10912000298E+04  0.65864270000E+03 0.  1.
    8880022    1    1    2    0    0 -0.14204527658E+03 -0.20826668916E+03  0.11782712612E+04  0.12146055707E+04  0.15294330000E+03 0.  0.
<mgrwt>
<rscale>  0 0.56709642E+03</rscale>
<asrwt>0</asrwt>
<pdfrwt beam="1">  1        2 0.33205814E+00 0.70523902E+03</pdfrwt>
<pdfrwt beam="2">  1       -2 0.22681132E-01 0.70523902E+03</pdfrwt>
<totfact> 0.96325959E+01</totfact>
</mgrwt>
</event>
<event>
 4    1  0.8645356E-007  0.6837172E+03  0.7818608E-02  0.1007295E+00
          2   -1    0    0  501    0  0.00000000000E+00  0.00000000000E+00  0.13321138414E+04  0.13321138414E+04  0.25500000000E-02 0. -1.
         -2   -1    0    0    0  501 -0.00000000000E+00 -0.00000000000E+00 -0.36671849337E+03  0.36671849338E+03  0.25500000000E-02 0.  1.
    8880023    1    1    2    0    0  0.38699993411E+02 -0.17933577499E+03 -0.20890795472E+02  0.68403628652E+03  0.65864270000E+03 0.  1.
    8880022    1    1    2    0    0 -0.38699993411E+02  0.17933577499E+03  0.98628614346E+03  0.10147960482E+04  0.15294330000E+03 0.  0.
<mgrwt>
<rscale>  0 0.52564189E+03</rscale>
<asrwt>0</asrwt>
<pdfrwt beam="1">  1        2 0.20494059E+00 0.68371720E+03</pdfrwt>
<pdfrwt beam="2">  1       -2 0.56418230E-01 0.68371720E+03</pdfrwt>
<totfact> 0.47926583E+01</totfact>
</mgrwt>
</event>
<event>
 4    1  0.8645356E-007  0.1132387E+04  0.7818608E-02  0.9225826E-01
          2   -1    0    0  501    0  0.00000000000E+00  0.00000000000E+00  0.20399987970E+04  0.20399987970E+04  0.25500000000E-02 0. -1.
         -2   -1    0    0    0  501 -0.00000000000E+00 -0.00000000000E+00 -0.71272155971E+03  0.71272155972E+03  0.25500000000E-02 0.  1.
    8880023    1    1    2    0    0 -0.91081173104E+03  0.13751944597E+03  0.30467569228E+01  0.11323908762E+04  0.65864270000E+03 0.  1.
    8880022    1    1    2    0    0  0.91081173104E+03 -0.13751944597E+03  0.13242304804E+04  0.16203294806E+04  0.15294330000E+03 0.  0.
<mgrwt>
<rscale>  0 0.10790790E+04</rscale>
<asrwt>0</asrwt>
<pdfrwt beam="1">  1        2 0.31384597E+00 0.11323868E+04</pdfrwt>
<pdfrwt beam="2">  1       -2 0.10964947E+00 0.11323868E+04</pdfrwt>
<totfact> 0.41392745E+00</totfact>
</mgrwt>
</event>
<event>
 4    1  0.8645356E-007  0.1034445E+04  0.7818608E-02  0.9337819E-01
         -2   -1    0    0    0  501 -0.00000000000E+00  0.00000000000E+00  0.82483434614E+03  0.82483434615E+03  0.25500000000E-02 0.  1.
          2   -1    0    0  501    0  0.00000000000E+00 -0.00000000000E+00 -0.17489360809E+04  0.17489360809E+04  0.25500000000E-02 0. -1.
    8880023    1    1    2    0    0  0.76259693710E+03  0.23390635712E+03  0.32459175625E+03  0.10841753949E+04  0.65864270000E+03 0.  0.
    8880022    1    1    2    0    0 -0.76259693710E+03 -0.23390635712E+03 -0.12486934910E+04  0.14895950322E+04  0.15294330000E+03 0.  0.
<mgrwt>
<rscale>  0 0.97374537E+03</rscale>
<asrwt>0</asrwt>
<pdfrwt beam="1">  1        2 0.26906709E+00 0.10344450E+04</pdfrwt>
<pdfrwt beam="2">  1       -2 0.12689759E+00 0.10344450E+04</pdfrwt>
<totfact> 0.42168952E+00</totfact>
</mgrwt>
</event>
<event>
 4    1  0.8645356E-007  0.8850405E+03  0.7818608E-02  0.9550486E-01
          2   -1    0    0  501    0  0.00000000000E+00  0.00000000000E+00  0.34130660028E+04  0.34130660028E+04  0.25500000000E-02 0. -1.
         -2   -1    0    0    0  501 -0.00000000000E+00 -0.00000000000E+00 -0.28909024164E+03  0.28909024165E+03  0.25500000000E-02 0.  1.
    8880023    1    1    2    0    0  0.72625489616E+02  0.58669587140E+03  0.51776961258E+03  0.10253692434E+04  0.65864270000E+03 0.  1.
    8880022    1    1    2    0    0 -0.72625489616E+02 -0.58669587140E+03  0.26062061486E+04  0.26767870011E+04  0.15294330000E+03 0.  0.
<mgrwt>
<rscale>  0 0.80661860E+03</rscale>
<asrwt>0</asrwt>
<pdfrwt beam="1">  1        2 0.52508706E+00 0.88504052E+03</pdfrwt>
<pdfrwt beam="2">  1       -2 0.44475423E-01 0.88504052E+03</pdfrwt>
<totfact> 0.47184230E+00</totfact>
</mgrwt>
</event>
<event>
 4    1  0.8645356E-007  0.6999061E+03  0.7818608E-02  0.9997591E-01
         -2   -1    0    0    0  501 -0.00000000000E+00  0.00000000000E+00  0.11334936155E+04  0.11334936155E+04  0.25500000000E-02 0.  1.
          2   -1    0    0  501    0  0.00000000000E+00 -0.00000000000E+00 -0.51277446837E+03  0.51277446837E+03  0.25500000000E-02 0. -1.
    8880023    1    1    2    0    0  0.17553955700E+03 -0.15888413509E+03  0.97081288060E+03  0.11968066510E+04  0.65864270000E+03 0.  1.
    8880022    1    1    2    0    0 -0.17553955700E+03  0.15888413509E+03 -0.35009373344E+03  0.44946143291E+03  0.15294330000E+03 0.  0.
<mgrwt>
<rscale>  0 0.55755990E+03</rscale>
<asrwt>0</asrwt>
<pdfrwt beam="1">  1        2 0.78888380E-01 0.69990607E+03</pdfrwt>
<pdfrwt beam="2">  1       -2 0.17438363E+00 0.69990607E+03</pdfrwt>
<totfact> 0.12118448E+01</totfact>
</mgrwt>
</event>
<event>
 4    1  0.8645356E-007  0.8102140E+03  0.7818608E-02  0.9689131E-01
         -2   -1    0    0    0  501 -0.00000000000E+00  0.00000000000E+00  0.21014130162E+03  0.21014130163E+03  0.25500000000E-02 0.  1.
          2   -1    0    0  501    0  0.00000000000E+00 -0.00000000000E+00 -0.24579007473E+04  0.24579007473E+04  0.25500000000E-02 0. -1.
    8880023    1    1    2    0    0  0.40737608694E+03  0.23807821193E+03 -0.80389894000E+03  0.11413589371E+04  0.65864270000E+03 0.  1.
    8880022    1    1    2    0    0 -0.40737608694E+03 -0.23807821193E+03 -0.14438605057E+04  0.15266831119E+04  0.15294330000E+03 0.  0.
<mgrwt>
<rscale>  0 0.71667608E+03</rscale>
<asrwt>0</asrwt>
<pdfrwt beam="1">  1        2 0.37813856E+00 0.81021399E+03</pdfrwt>
<pdfrwt beam="2">  1       -2 0.32329433E-01 0.81021399E+03</pdfrwt>
<totfact> 0.33894647E+01</totfact>
</mgrwt>
</event>
<event>
 4    1  0.8645356E-007  0.6968261E+03  0.7818608E-02  0.1001063E+00
          2   -1    0    0  501    0  0.00000000000E+00  0.00000000000E+00  0.90580216107E+03  0.90580216107E+03  0.25500000000E-02 0. -1.
         -2   -1    0    0    0  501 -0.00000000000E+00 -0.00000000000E+00 -0.28933017074E+03  0.28933017076E+03  0.25500000000E-02 0.  1.
    8880023    1    1    2    0    0  0.16900889412E+03 -0.15229062059E+03  0.25621542276E+03  0.74243719501E+03  0.65864270000E+03 0.  1.
    8880022    1    1    2    0    0 -0.16900889412E+03  0.15229062059E+03  0.36025656756E+03  0.45269513681E+03  0.15294330000E+03 0. -1.
<mgrwt>
<rscale>  0 0.55186527E+03</rscale>
<asrwt>0</asrwt>
<pdfrwt beam="1">  1        2 0.13935418E+00 0.69682612E+03</pdfrwt>
<pdfrwt beam="2">  1       -2 0.44512335E-01 0.69682612E+03</pdfrwt>
<totfact> 0.14117649E+02</totfact>
</mgrwt>
</event>
<event>
 4    1  0.8645356E-007  0.6831058E+03  0.7818608E-02  0.1007619E+00
         -2   -1    0    0    0  501 -0.00000000000E+00  0.00000000000E+00  0.18634974142E+03  0.18634974144E+03  0.25500000000E-02 0.  1.
          2   -1    0    0  501    0  0.00000000000E+00 -0.00000000000E+00 -0.15728190081E+04  0.15728190081E+04  0.25500000000E-02 0. -1.
    8880023    1    1    2    0    0 -0.76558445006E+02  0.16420155397E+03 -0.13583070032E+04  0.15204050339E+04  0.65864270000E+03 0. -1.
    8880022    1    1    2    0    0  0.76558445006E+02 -0.16420155397E+03 -0.28162263492E+02  0.23876371568E+03  0.15294330000E+03 0.  0.
<mgrwt>
<rscale>  0 0.52432131E+03</rscale>
<asrwt>0</asrwt>
<pdfrwt beam="1">  1        2 0.24197215E+00 0.68310581E+03</pdfrwt>
<pdfrwt beam="2">  1       -2 0.28669192E-01 0.68310581E+03</pdfrwt>
<totfact> 0.13191127E+02</totfact>
</mgrwt>
</event>
<event>
 4    1  0.8645356E-007  0.8336675E+03  0.7818608E-02  0.9642238E-01
          2   -1    0    0  501    0  0.00000000000E+00  0.00000000000E+00  0.38307887405E+04  0.38307887405E+04  0.25500000000E-02 0. -1.
         -2   -1    0    0    0  501 -0.00000000000E+00 -0.00000000000E+00 -0.27460796596E+03  0.27460796597E+03  0.25500000000E-02 0.  1.
    8880023    1    1    2    0    0 -0.23886047320E+03  0.45181526868E+03  0.43764012879E+03  0.94155746041E+03  0.65864270000E+03 0.  0.
    8880022    1    1    2    0    0  0.23886047320E+03 -0.45181526868E+03  0.31185406458E+04  0.31638392461E+04  0.15294330000E+03 0.  0.
<mgrwt>
<rscale>  0 0.74562557E+03</rscale>
<asrwt>0</asrwt>
<pdfrwt beam="1">  1        2 0.58935211E+00 0.83366754E+03</pdfrwt>
<pdfrwt beam="2">  1       -2 0.42247379E-01 0.83366754E+03</pdfrwt>
<totfact> 0.26702484E+00</totfact>
</mgrwt>
</event>
<event>
 4    1  0.8645356E-007  0.8534902E+03  0.7818608E-02  0.9605250E-01
         -2   -1    0    0    0  501 -0.00000000000E+00  0.00000000000E+00  0.25967484221E+03  0.25967484222E+03  0.25500000000E-02 0.  1.
          2   -1    0    0  501    0  0.00000000000E+00 -0.00000000000E+00 -0.21546541849E+04  0.21546541849E+04  0.25500000000E-02 0. -1.
    8880023    1    1    2    0    0  0.26726522801E+03  0.47244526986E+03 -0.74245527073E+03  0.11312317492E+04  0.65864270000E+03 0.  1.
    8880022    1    1    2    0    0 -0.26726522801E+03 -0.47244526986E+03 -0.11525240720E+04  0.12830972779E+04  0.15294330000E+03 0.  0.
<mgrwt>
<rscale>  0 0.76949689E+03</rscale>
<asrwt>0</asrwt>
<pdfrwt beam="1">  1        2 0.33148525E+00 0.85349015E+03</pdfrwt>
<pdfrwt beam="2">  1       -2 0.39949977E-01 0.85349015E+03</pdfrwt>
<totfact> 0.33177597E+01</totfact>
</mgrwt>
</event>
<event>
 4    1  0.8645356E-007  0.1736874E+04  0.7818608E-02  0.8758283E-01
          2   -1    0    0  501    0  0.00000000000E+00  0.00000000000E+00  0.13070636991E+04  0.13070636991E+04  0.25500000000E-02 0. -1.
         -2   -1    0    0    0  501 -0.00000000000E+00 -0.00000000000E+00 -0.35250617445E+04  0.35250617445E+04  0.25500000000E-02 0.  1.
    8880023    1    1    2    0    0  0.15731312365E+04  0.32890769310E+03 -0.26430822578E+04  0.31626912884E+04  0.65864270000E+03 0.  0.
    8880022    1    1    2    0    0 -0.15731312365E+04 -0.32890769310E+03  0.42508421245E+03  0.16694341552E+04  0.15294330000E+03 0.  0.
<mgrwt>
<rscale>  0 0.17054132E+04</rscale>
<asrwt>0</asrwt>
<pdfrwt beam="1">  1        2 0.20108672E+00 0.17368743E+04</pdfrwt>
<pdfrwt beam="2">  1       -2 0.54231719E+00 0.17368743E+04</pdfrwt>
<totfact> 0.13826811E-02</totfact>
</mgrwt>
</event>
<event>
 4    1  0.8645356E-007  0.7657059E+03  0.7818608E-02  0.9790553E-01
          2   -1    0    0  501    0  0.00000000000E+00  0.00000000000E+00  0.60365176317E+03  0.60365176317E+03  0.25500000000E-02 0. -1.
         -2   -1    0    0    0  501 -0.00000000000E+00 -0.00000000000E+00 -0.90306657028E+03  0.90306657029E+03  0.25500000000E-02 0.  1.
    8880023    1    1    2    0    0 -0.36464248368E+03  0.13975412238E+03 -0.61479654720E+03  0.98197777793E+03  0.65864270000E+03 0.  1.
    8880022    1    1    2    0    0  0.36464248368E+03 -0.13975412238E+03  0.31538174008E+03  0.52474055554E+03  0.15294330000E+03 0.  0.
<mgrwt>
<rscale>  0 0.65871981E+03</rscale>
<asrwt>0</asrwt>
<pdfrwt beam="1">  1        2 0.92869502E-01 0.76570592E+03</pdfrwt>
<pdfrwt beam="2">  1       -2 0.13893332E+00 0.76570592E+03</pdfrwt>
<totfact> 0.18259117E+01</totfact>
</mgrwt>
</event>
<event>
 4    1  0.8645356E-007  0.7640202E+03  0.7818608E-02  0.9794809E-01
         -2   -1    0    0    0  501 -0.00000000000E+00  0.00000000000E+00  0.19221266640E+03  0.19221266642E+03  0.25500000000E-02 0.  1.
          2   -1    0    0  501    0  0.00000000000E+00 -0.00000000000E+00 -0.19119837200E+04  0.19119837200E+04  0.25500000000E-02 0. -1.
    8880023    1    1    2    0    0 -0.26523545902E+03  0.28207584123E+03 -0.86948162052E+03  0.11574649557E+04  0.65864270000E+03 0.  1.
    8880022    1    1    2    0    0  0.26523545902E+03 -0.28207584123E+03 -0.85028943303E+03  0.94673143069E+03  0.15294330000E+03 0. -1.
<mgrwt>
<rscale>  0 0.65641884E+03</rscale>
<asrwt>0</asrwt>
<pdfrwt beam="1">  1        2 0.29415133E+00 0.76402018E+03</pdfrwt>
<pdfrwt beam="2">  1       -2 0.29571181E-01 0.76402018E+03</pdfrwt>
<totfact> 0.80645592E+01</totfact>
</mgrwt>
</event>
<event>
 4    1  0.8645356E-007  0.1129365E+04  0.7818608E-02  0.9229045E-01
          2   -1    0    0  501    0  0.00000000000E+00  0.00000000000E+00  0.28370478452E+04  0.28370478453E+04  0.25500000000E-02 0. -1.
         -2   -1    0    0    0  501 -0.00000000000E+00 -0.00000000000E+00 -0.48734844138E+03  0.48734844139E+03  0.25500000000E-02 0.  1.
    8880023    1    1    2    0    0  0.34568073999E+03 -0.84980059108E+03  0.20616786053E+04  0.23507413930E+04  0.65864270000E+03 0.  0.
    8880022    1    1    2    0    0 -0.34568073999E+03  0.84980059108E+03  0.28802079853E+03  0.97365489369E+03  0.15294330000E+03 0.  0.
<mgrwt>
<rscale>  0 0.10758604E+04</rscale>
<asrwt>0</asrwt>
<pdfrwt beam="1">  1        2 0.43646889E+00 0.11293655E+04</pdfrwt>
<pdfrwt beam="2">  1       -2 0.74976685E-01 0.11293655E+04</pdfrwt>
<totfact> 0.35092779E+00</totfact>
</mgrwt>
</event>
<event>
 4    1  0.8645356E-007  0.9300663E+03  0.7818608E-02  0.9479394E-01
         -2   -1    0    0    0  501 -0.00000000000E+00  0.00000000000E+00  0.11355766042E+04  0.11355766042E+04  0.25500000000E-02 0.  1.
          2   -1    0    0  501    0  0.00000000000E+00 -0.00000000000E+00 -0.88929001006E+03  0.88929001006E+03  0.25500000000E-02 0. -1.
    8880023    1    1    2    0    0  0.22711530635E+03 -0.61614262652E+03  0.74053580285E+03  0.11888719780E+04  0.65864270000E+03 0.  1.
    8880022    1    1    2    0    0 -0.22711530635E+03  0.61614262652E+03 -0.49424920867E+03  0.83599463627E+03  0.15294330000E+03 0.  0.
<mgrwt>
<rscale>  0 0.85820230E+03</rscale>
<asrwt>0</asrwt>
<pdfrwt beam="1">  1        2 0.13681385E+00 0.93006629E+03</pdfrwt>
<pdfrwt beam="2">  1       -2 0.17470409E+00 0.93006629E+03</pdfrwt>
<totfact> 0.58774661E+00</totfact>
</mgrwt>
</event>
<event>
 4    1  0.8645356E-007  0.7070555E+03  0.7818608E-02  0.9969102E-01
          2   -1    0    0  501    0  0.00000000000E+00  0.00000000000E+00  0.25250296356E+03  0.25250296357E+03  0.25500000000E-02 0. -1.
         -2   -1    0    0    0  501 -0.00000000000E+00 -0.00000000000E+00 -0.21594702273E+04  0.21594702273E+04  0.25500000000E-02 0.  1.
    8880023    1    1    2    0    0  0.23960130390E+03 -0.93319314723E+02 -0.19813127298E+04  0.21036938035E+04  0.65864270000E+03 0.  1.
    8880022    1    1    2    0    0 -0.23960130390E+03  0.93319314723E+02  0.74345466079E+02  0.30827938736E+03  0.15294330000E+03 0.  0.
<mgrwt>
<rscale>  0 0.57026068E+03</rscale>
<asrwt>0</asrwt>
<pdfrwt beam="1">  1        2 0.38846611E-01 0.70705550E+03</pdfrwt>
<pdfrwt beam="2">  1       -2 0.33222618E+00 0.70705550E+03</pdfrwt>
<totfact> 0.28200076E+00</totfact>
</mgrwt>
</event>
<event>
 4    1  0.8645356E-007  0.8714320E+03  0.7818608E-02  0.9573543E-01
          2   -1    0    0  501    0  0.00000000000E+00  0.00000000000E+00  0.57099490932E+03  0.57099490933E+03  0.25500000000E-02 0. -1.
         -2   -1    0    0    0  501 -0.00000000000E+00 -0.00000000000E+00 -0.31591519548E+04  0.31591519548E+04  0.25500000000E-02 0.  1.
    8880023    1    1    2    0    0  0.47086077035E+03 -0.32229427998E+03 -0.29236697106E+04  0.30507766635E+04  0.65864270000E+03 0.  1.
    8880022    1    1    2    0    0 -0.47086077035E+03  0.32229427998E+03  0.33551266512E+03  0.67937020058E+03  0.15294330000E+03 0.  0.
<mgrwt>
<rscale>  0 0.79072310E+03</rscale>
<asrwt>0</asrwt>
<pdfrwt beam="1">  1        2 0.87845372E-01 0.87143197E+03</pdfrwt>
<pdfrwt beam="2">  1       -2 0.48602337E+00 0.87143197E+03</pdfrwt>
<totfact> 0.11033372E-01</totfact>
</mgrwt>
</event>
<event>
 4    1  0.8645356E-007  0.7181669E+03  0.7818608E-02  0.9928838E-01
         -2   -1    0    0    0  501 -0.00000000000E+00  0.00000000000E+00  0.37029014319E+03  0.37029014320E+03  0.25500000000E-02 0.  1.
          2   -1    0    0  501    0  0.00000000000E+00 -0.00000000000E+00 -0.86873140267E+03  0.86873140267E+03  0.25500000000E-02 0. -1.
    8880023    1    1    2    0    0 -0.14874697100E+03  0.24459736803E+03 -0.99970732974E+02  0.72509164079E+03  0.65864270000E+03 0.  0.
    8880022    1    1    2    0    0  0.14874697100E+03 -0.24459736803E+03 -0.39847052651E+03  0.51392990508E+03  0.15294330000E+03 0.  0.
<mgrwt>
<rscale>  0 0.58883808E+03</rscale>
<asrwt>0</asrwt>
<pdfrwt beam="1">  1        2 0.13365098E+00 0.71816693E+03</pdfrwt>
<pdfrwt beam="2">  1       -2 0.56967714E-01 0.71816693E+03</pdfrwt>
<totfact> 0.90347392E+01</totfact>
</mgrwt>
</event>
<event>
 4    1  0.8645356E-007  0.7675229E+03  0.7818608E-02  0.9786007E-01
         -2   -1    0    0    0  501 -0.00000000000E+00  0.00000000000E+00  0.15811655280E+04  0.15811655280E+04  0.25500000000E-02 0.  1.
          2   -1    0    0  501    0  0.00000000000E+00 -0.00000000000E+00 -0.32238633893E+03  0.32238633894E+03  0.25500000000E-02 0. -1.
    8880023    1    1    2    0    0 -0.33847406705E+03  0.20178333095E+03  0.12663485494E+04  0.14807869737E+04  0.65864270000E+03 0.  1.
    8880022    1    1    2    0    0  0.33847406705E+03 -0.20178333095E+03 -0.75693603257E+01  0.42276489323E+03  0.15294330000E+03 0.  0.
<mgrwt>
<rscale>  0 0.66118932E+03</rscale>
<asrwt>0</asrwt>
<pdfrwt beam="1">  1        2 0.49597898E-01 0.76752291E+03</pdfrwt>
<pdfrwt beam="2">  1       -2 0.24325624E+00 0.76752291E+03</pdfrwt>
<totfact> 0.73368259E+00</totfact>
</mgrwt>
</event>
<event>
 4    1  0.8645356E-007  0.6985443E+03  0.7818608E-02  0.1000329E+00
          2   -1    0    0  501    0  0.00000000000E+00  0.00000000000E+00  0.22869415625E+04  0.22869415625E+04  0.25500000000E-02 0. -1.
         -2   -1    0    0    0  501 -0.00000000000E+00 -0.00000000000E+00 -0.13905493381E+03  0.13905493384E+03  0.25500000000E-02 0.  1.
    8880023    1    1    2    0    0  0.13903796543E+03 -0.18660767691E+03  0.85805037810E+03  0.11064423340E+04  0.65864270000E+03 0.  1.
    8880022    1    1    2    0    0 -0.13903796543E+03  0.18660767691E+03  0.12898362505E+04  0.13195541623E+04  0.15294330000E+03 0.  0.
<mgrwt>
<rscale>  0 0.55506028E+03</rscale>
<asrwt>0</asrwt>
<pdfrwt beam="1">  1        2 0.35183716E+00 0.69854433E+03</pdfrwt>
<pdfrwt beam="2">  1       -2 0.21393067E-01 0.69854433E+03</pdfrwt>
<totfact> 0.90827272E+01</totfact>
</mgrwt>
</event>
<event>
 4    1  0.8645356E-007  0.8942293E+03  0.7818608E-02  0.9535360E-01
          2   -1    0    0  501    0  0.00000000000E+00  0.00000000000E+00  0.14701279233E+04  0.14701279233E+04  0.25500000000E-02 0. -1.
         -2   -1    0    0    0  501 -0.00000000000E+00 -0.00000000000E+00 -0.57462276272E+03  0.57462276272E+03  0.25500000000E-02 0.  1.
    8880023    1    1    2    0    0 -0.39306096289E+02 -0.60356519002E+03 -0.68093076783E+02  0.89681814276E+03  0.65864270000E+03 0.  0.
    8880022    1    1    2    0    0  0.39306096289E+02  0.60356519002E+03  0.96359823735E+03  0.11479325432E+04  0.15294330000E+03 0.  0.
<mgrwt>
<rscale>  0 0.81726356E+03</rscale>
<asrwt>0</asrwt>
<pdfrwt beam="1">  1        2 0.22617352E+00 0.89422934E+03</pdfrwt>
<pdfrwt beam="2">  1       -2 0.88403503E-01 0.89422934E+03</pdfrwt>
<totfact> 0.14634000E+01</totfact>
</mgrwt>
</event>
<event>
 4    1  0.8645356E-007  0.7148965E+03  0.7818608E-02  0.9940248E-01
          2   -1    0    0  501    0  0.00000000000E+00  0.00000000000E+00  0.52355732301E+03  0.52355732301E+03  0.25500000000E-02 0. -1.
         -2   -1    0    0    0  501 -0.00000000000E+00 -0.00000000000E+00 -0.75873372000E+03  0.75873372001E+03  0.25500000000E-02 0.  1.
    8880023    1    1    2    0    0 -0.12766943549E+03  0.24691571023E+03 -0.49721374516E+03  0.87080340339E+03  0.65864270000E+03 0.  1.
    8880022    1    1    2    0    0  0.12766943549E+03 -0.24691571023E+03  0.26203734817E+03  0.41148763963E+03  0.15294330000E+03 0.  1.
<mgrwt>
<rscale>  0 0.58349710E+03</rscale>
<asrwt>0</asrwt>
<pdfrwt beam="1">  1        2 0.80547280E-01 0.71489654E+03</pdfrwt>
<pdfrwt beam="2">  1       -2 0.11672826E+00 0.71489654E+03</pdfrwt>
<totfact> 0.33670828E+01</totfact>
</mgrwt>
</event>
<event>
 4    1  0.8645356E-007  0.6741576E+03  0.7818608E-02  0.1012843E+00
          2   -1    0    0  501    0  0.00000000000E+00  0.00000000000E+00  0.10668058101E+04  0.10668058101E+04  0.25500000000E-02 0. -1.
         -2   -1    0    0    0  501 -0.00000000000E+00 -0.00000000000E+00 -0.96848697862E+03  0.96848697862E+03  0.25500000000E-02 0.  1.
    8880023    1    1    2    0    0  0.10741806525E+03  0.95601498854E+02 -0.83812187741E+03  0.10756099549E+04  0.65864270000E+03 0.  1.
    8880022    1    1    2    0    0 -0.10741806525E+03 -0.95601498854E+02  0.93644070887E+03  0.95968283384E+03  0.15294330000E+03 0.  0.
<mgrwt>
<rscale>  0 0.50360368E+03</rscale>
<asrwt>0</asrwt>
<pdfrwt beam="1">  1        2 0.16412397E+00 0.67415762E+03</pdfrwt>
<pdfrwt beam="2">  1       -2 0.14899800E+00 0.67415762E+03</pdfrwt>
<totfact> 0.71764715E+00</totfact>
</mgrwt>
</event>
<event>
 4    1  0.8645356E-007  0.7373037E+03  0.7818608E-02  0.9867872E-01
         -2   -1    0    0    0  501 -0.00000000000E+00  0.00000000000E+00  0.31932871361E+03  0.31932871362E+03  0.25500000000E-02 0.  1.
          2   -1    0    0  501    0  0.00000000000E+00 -0.00000000000E+00 -0.13045694355E+04  0.13045694355E+04  0.25500000000E-02 0. -1.
    8880023    1    1    2    0    0 -0.11051188720E+01  0.33136880609E+03 -0.20933671112E+03  0.76644541347E+03  0.65864270000E+03 0.  1.
    8880022    1    1    2    0    0  0.11051188720E+01 -0.33136880609E+03 -0.77590401076E+03  0.85745273565E+03  0.15294330000E+03 0.  0.
<mgrwt>
<rscale>  0 0.61843930E+03</rscale>
<asrwt>0</asrwt>
<pdfrwt beam="1">  1        2 0.20070299E+00 0.73730368E+03</pdfrwt>
<pdfrwt beam="2">  1       -2 0.49127495E-01 0.73730368E+03</pdfrwt>
<totfact> 0.65691668E+01</totfact>
</mgrwt>
</event>
<event>
 4    1  0.8645356E-007  0.7643418E+03  0.7818608E-02  0.9793994E-01
          2   -1    0    0  501    0  0.00000000000E+00  0.00000000000E+00  0.57030849560E+03  0.57030849561E+03  0.25500000000E-02 0. -1.
         -2   -1    0    0    0  501 -0.00000000000E+00 -0.00000000000E+00 -0.13317350166E+04  0.13317350166E+04  0.25500000000E-02 0.  1.
    8880023    1    1    2    0    0  0.37697130266E+03  0.91109105123E+02 -0.11174266611E+04  0.13538318881E+04  0.65864270000E+03 0.  1.
    8880022    1    1    2    0    0 -0.37697130266E+03 -0.91109105123E+02  0.35600014009E+03  0.54821162412E+03  0.15294330000E+03 0.  0.
<mgrwt>
<rscale>  0 0.65685863E+03</rscale>
<asrwt>0</asrwt>
<pdfrwt beam="1">  1        2 0.87739769E-01 0.76434183E+03</pdfrwt>
<pdfrwt beam="2">  1       -2 0.20488231E+00 0.76434183E+03</pdfrwt>
<totfact> 0.66390449E+00</totfact>
</mgrwt>
</event>
<event>
 4    1  0.8645356E-007  0.6914166E+03  0.7818608E-02  0.1003486E+00
         -2   -1    0    0    0  501 -0.00000000000E+00  0.00000000000E+00  0.33280257958E+03  0.33280257959E+03  0.25500000000E-02 0.  1.
          2   -1    0    0  501    0  0.00000000000E+00 -0.00000000000E+00 -0.10763293293E+04  0.10763293293E+04  0.25500000000E-02 0. -1.
    8880023    1    1    2    0    0  0.66089041250E+02  0.19969705424E+03 -0.87702652651E+03  0.11167955987E+04  0.65864270000E+03 0. -1.
    8880022    1    1    2    0    0 -0.66089041250E+02 -0.19969705424E+03  0.13349977678E+03  0.29233631020E+03  0.15294330000E+03 0.  0.
<mgrwt>
<rscale>  0 0.54147567E+03</rscale>
<asrwt>0</asrwt>
<pdfrwt beam="1">  1        2 0.16558913E+00 0.69141658E+03</pdfrwt>
<pdfrwt beam="2">  1       -2 0.51200397E-01 0.69141658E+03</pdfrwt>
<totfact> 0.82847495E+01</totfact>
</mgrwt>
</event>
<event>
 4    1  0.8645356E-007  0.9591872E+03  0.7818608E-02  0.9437017E-01
         -2   -1    0    0    0  501 -0.00000000000E+00  0.00000000000E+00  0.89581147782E+03  0.89581147783E+03  0.25500000000E-02 0.  1.
          2   -1    0    0  501    0  0.00000000000E+00 -0.00000000000E+00 -0.10527961915E+04  0.10527961915E+04  0.25500000000E-02 0. -1.
    8880023    1    1    2    0    0  0.65181620361E+03 -0.24772068865E+03 -0.57795250514E+03  0.11198523150E+04  0.65864270000E+03 0. -1.
    8880022    1    1    2    0    0 -0.65181620361E+03  0.24772068865E+03  0.42096779149E+03  0.82875535434E+03  0.15294330000E+03 0.  0.
<mgrwt>
<rscale>  0 0.89090933E+03</rscale>
<asrwt>0</asrwt>
<pdfrwt beam="1">  1        2 0.16196865E+00 0.95918721E+03</pdfrwt>
<pdfrwt beam="2">  1       -2 0.13781715E+00 0.95918721E+03</pdfrwt>
<totfact> 0.86821657E+00</totfact>
</mgrwt>
</event>
<event>
 4    1  0.8645356E-007  0.9818788E+03  0.7818608E-02  0.9405659E-01
         -2   -1    0    0    0  501 -0.00000000000E+00  0.00000000000E+00  0.28927285479E+03  0.28927285480E+03  0.25500000000E-02 0.  1.
          2   -1    0    0  501    0  0.00000000000E+00 -0.00000000000E+00 -0.39106038889E+04  0.39106038889E+04  0.25500000000E-02 0. -1.
    8880023    1    1    2    0    0 -0.59230638261E+03  0.42361412750E+03 -0.75514876959E+03  0.12386830306E+04  0.65864270000E+03 0.  1.
    8880022    1    1    2    0    0  0.59230638261E+03 -0.42361412750E+03 -0.28661822645E+04  0.29611937131E+04  0.15294330000E+03 0.  0.
<mgrwt>
<rscale>  0 0.91611403E+03</rscale>
<asrwt>0</asrwt>
<pdfrwt beam="1">  1        2 0.60163133E+00 0.98187880E+03</pdfrwt>
<pdfrwt beam="2">  1       -2 0.44503519E-01 0.98187880E+03</pdfrwt>
<totfact> 0.20365976E+00</totfact>
</mgrwt>
</event>
<event>
 4    1  0.8645356E-007  0.1013037E+04  0.7818608E-02  0.9364696E-01
          2   -1    0    0  501    0  0.00000000000E+00  0.00000000000E+00  0.68007712691E+03  0.68007712692E+03  0.25500000000E-02 0. -1.
         -2   -1    0    0    0  501 -0.00000000000E+00 -0.00000000000E+00 -0.14153496082E+04  0.14153496082E+04  0.25500000000E-02 0.  1.
    8880023    1    1    2    0    0 -0.71347674061E+02  0.76638360690E+03 -0.82378461452E+03  0.13057050283E+04  0.65864270000E+03 0.  1.
    8880022    1    1    2    0    0  0.71347674061E+02 -0.76638360690E+03  0.88512133223E+02  0.78972170684E+03  0.15294330000E+03 0. -1.
<mgrwt>
<rscale>  0 0.95038883E+03</rscale>
<asrwt>0</asrwt>
<pdfrwt beam="1">  1        2 0.10462725E+00 0.10130373E+04</pdfrwt>
<pdfrwt beam="2">  1       -2 0.21774609E+00 0.10130373E+04</pdfrwt>
<totfact> 0.43131008E+00</totfact>
</mgrwt>
</event>
<event>
 4    1  0.8645356E-007  0.7134258E+03  0.7818608E-02  0.9945493E-01
          2   -1    0    0  501    0  0.00000000000E+00  0.00000000000E+00  0.27816955108E+04  0.27816955108E+04  0.25500000000E-02 0. -1.
         -2   -1    0    0    0  501 -0.00000000000E+00 -0.00000000000E+00 -0.10377973784E+03  0.10377973787E+03  0.25500000000E-02 0.  1.
    8880023    1    1    2    0    0  0.20858448679E+03  0.17792880211E+03  0.14221848581E+04  0.15910958876E+04  0.65864270000E+03 0.  1.
    8880022    1    1    2    0    0 -0.20858448679E+03 -0.17792880211E+03  0.12557309149E+04  0.12943793611E+04  0.15294330000E+03 0. -1.
<mgrwt>
<rscale>  0 0.58106267E+03</rscale>
<asrwt>0</asrwt>
<pdfrwt beam="1">  1        2 0.42795316E+00 0.71342579E+03</pdfrwt>
<pdfrwt beam="2">  1       -2 0.15966113E-01 0.71342579E+03</pdfrwt>
<totfact> 0.78662914E+01</totfact>
</mgrwt>
</event>
<event>
 4    1  0.8645356E-007  0.8144466E+03  0.7818608E-02  0.9680388E-01
          2   -1    0    0  501    0  0.00000000000E+00  0.00000000000E+00  0.12291923615E+04  0.12291923615E+04  0.25500000000E-02 0. -1.
         -2   -1    0    0    0  501 -0.00000000000E+00 -0.00000000000E+00 -0.43721077123E+03  0.43721077124E+03  0.25500000000E-02 0.  1.
    8880023    1    1    2    0    0  0.12709562833E+03 -0.46190887710E+03  0.11417784831E+03  0.82241102667E+03  0.65864270000E+03 0.  0.
    8880022    1    1    2    0    0 -0.12709562833E+03  0.46190887710E+03  0.67780374197E+03  0.84399210608E+03  0.15294330000E+03 0.  0.
<mgrwt>
<rscale>  0 0.72196576E+03</rscale>
<asrwt>0</asrwt>
<pdfrwt beam="1">  1        2 0.18910652E+00 0.81444663E+03</pdfrwt>
<pdfrwt beam="2">  1       -2 0.67263195E-01 0.81444663E+03</pdfrwt>
<totfact> 0.37352403E+01</totfact>
</mgrwt>
</event>
<event>
 4    1  0.8645356E-007  0.9752625E+03  0.7818608E-02  0.9414662E-01
         -2   -1    0    0    0  501 -0.00000000000E+00  0.00000000000E+00  0.39793587436E+03  0.39793587437E+03  0.25500000000E-02 0.  1.
          2   -1    0    0  501    0  0.00000000000E+00 -0.00000000000E+00 -0.21362036354E+04  0.21362036354E+04  0.25500000000E-02 0. -1.
    8880023    1    1    2    0    0  0.69558271520E+03 -0.18300664506E+03 -0.14431652311E+04  0.17417987359E+04  0.65864270000E+03 0.  0.
    8880022    1    1    2    0    0 -0.69558271520E+03  0.18300664506E+03 -0.29510253001E+03  0.79234077395E+03  0.15294330000E+03 0.  0.
<mgrwt>
<rscale>  0 0.90878791E+03</rscale>
<asrwt>0</asrwt>
<pdfrwt beam="1">  1        2 0.32864671E+00 0.97526250E+03</pdfrwt>
<pdfrwt beam="2">  1       -2 0.61220905E-01 0.97526250E+03</pdfrwt>
<totfact> 0.14031744E+01</totfact>
</mgrwt>
</event>
<event>
 4    1  0.8645356E-007  0.6592009E+03  0.7818608E-02  0.1024990E+00
          2   -1    0    0  501    0  0.00000000000E+00  0.00000000000E+00  0.21436964431E+04  0.21436964431E+04  0.25500000000E-02 0. -1.
         -2   -1    0    0    0  501 -0.00000000000E+00 -0.00000000000E+00 -0.10071956150E+03  0.10071956153E+03  0.25500000000E-02 0.  1.
    8880023    1    1    2    0    0  0.22034094153E+02  0.15813273067E+02  0.10529347022E+04  0.12422629569E+04  0.65864270000E+03 0.  1.
    8880022    1    1    2    0    0 -0.22034094153E+02 -0.15813273067E+02  0.99004217940E+03  0.10021530477E+04  0.15294330000E+03 0.  0.
<mgrwt>
<rscale>  0 0.45927914E+03</rscale>
<asrwt>0</asrwt>
<pdfrwt beam="1">  1        2 0.32979945E+00 0.65920085E+03</pdfrwt>
<pdfrwt beam="2">  1       -2 0.15495317E-01 0.65920085E+03</pdfrwt>
<totfact> 0.19095562E+02</totfact>
</mgrwt>
</event>
<event>
 4    1  0.8645356E-007  0.1723675E+04  0.7818608E-02  0.8765975E-01
         -2   -1    0    0    0  501 -0.00000000000E+00  0.00000000000E+00  0.20851538193E+04  0.20851538193E+04  0.25500000000E-02 0.  1.
          2   -1    0    0  501    0  0.00000000000E+00 -0.00000000000E+00 -0.16560252825E+04  0.16560252825E+04  0.25500000000E-02 0. -1.
    8880023    1    1    2    0    0  0.15555455522E+04 -0.34281544295E+03  0.10572854162E+04  0.20221046092E+04  0.65864270000E+03 0.  1.
    8880022    1    1    2    0    0 -0.15555455522E+04  0.34281544295E+03 -0.62815687946E+03  0.17190744926E+04  0.15294330000E+03 0.  0.
<mgrwt>
<rscale>  0 0.16919400E+04</rscale>
<asrwt>0</asrwt>
<pdfrwt beam="1">  1        2 0.25477312E+00 0.17236747E+04</pdfrwt>
<pdfrwt beam="2">  1       -2 0.32079290E+00 0.17236747E+04</pdfrwt>
<totfact> 0.22549356E-01</totfact>
</mgrwt>
</event>
<event>
 4    1  0.1050698E-006  0.7048616E+03  0.7818608E-02  0.9977601E-01
         -2   -1    0    0    0  501 -0.00000000000E+00  0.00000000000E+00  0.75983158617E+03  0.75983158618E+03  0.25500000000E-02 0.  1.
          2   -1    0    0  501    0  0.00000000000E+00 -0.00000000000E+00 -0.16771691122E+04  0.16771691122E+04  0.25500000000E-02 0. -1.
    8880023    1    1    2    0    0  0.24623025060E+03  0.48890401994E+02  0.57892765892E+03  0.91213324040E+03  0.65864270000E+03 0.  0.
    8880022    1    1    2    0    0 -0.24623025060E+03 -0.48890401994E+02 -0.14962651850E+04  0.15248674580E+04  0.15294330000E+03 0.  0.
<mgrwt>
<rscale>  0 0.56643380E+03</rscale>
<asrwt>0</asrwt>
<pdfrwt beam="1">  1        2 0.25802602E+00 0.70486156E+03</pdfrwt>
<pdfrwt beam="2">  1       -2 0.11689717E+00 0.70486156E+03</pdfrwt>
<totfact> 0.59265149E+00</totfact>
</mgrwt>
</event>
<event>
 4    1  0.8645356E-007  0.7814542E+03  0.7818608E-02  0.9752432E-01
         -2   -1    0    0    0  501 -0.00000000000E+00  0.00000000000E+00  0.19995775370E+03  0.19995775371E+03  0.25500000000E-02 0.  1.
          2   -1    0    0  501    0  0.00000000000E+00 -0.00000000000E+00 -0.25486117153E+04  0.25486117153E+04  0.25500000000E-02 0. -1.
    8880023    1    1    2    0    0  0.28174336694E+03  0.31221958649E+03 -0.73064706702E+03  0.10698204232E+04  0.65864270000E+03 0.  0.
    8880022    1    1    2    0    0 -0.28174336694E+03 -0.31221958649E+03 -0.16180068946E+04  0.16787490458E+04  0.15294330000E+03 0.  0.
<mgrwt>
<rscale>  0 0.67978997E+03</rscale>
<asrwt>0</asrwt>
<pdfrwt beam="1">  1        2 0.39209408E+00 0.78145416E+03</pdfrwt>
<pdfrwt beam="2">  1       -2 0.30762733E-01 0.78145416E+03</pdfrwt>
<totfact> 0.33163417E+01</totfact>
</mgrwt>
</event>
<event>
 4    1  0.8645356E-007  0.6652672E+03  0.7818608E-02  0.1019310E+00
         -2   -1    0    0    0  501 -0.00000000000E+00  0.00000000000E+00  0.27122883773E+03  0.27122883774E+03  0.25500000000E-02 0.  1.
          2   -1    0    0  501    0  0.00000000000E+00 -0.00000000000E+00 -0.93122090005E+03  0.93122090005E+03  0.25500000000E-02 0. -1.
    8880023    1    1    2    0    0  0.79596123117E+02  0.49343208826E+02 -0.17872759638E+03  0.68885706431E+03  0.65864270000E+03 0.  1.
    8880022    1    1    2    0    0 -0.79596123117E+02 -0.49343208826E+02 -0.48126446593E+03  0.51359267349E+03  0.15294330000E+03 0.  0.
<mgrwt>
<rscale>  0 0.47936343E+03</rscale>
<asrwt>0</asrwt>
<pdfrwt beam="1">  1        2 0.14326475E+00 0.66526724E+03</pdfrwt>
<pdfrwt beam="2">  1       -2 0.41727514E-01 0.66526724E+03</pdfrwt>
<totfact> 0.15461150E+02</totfact>
</mgrwt>
</event>
<event>
 4    1  0.8645356E-007  0.6674374E+03  0.7818608E-02  0.1017571E+00
         -2   -1    0    0    0  501 -0.00000000000E+00  0.00000000000E+00  0.25649572688E+03  0.25649572689E+03  0.25500000000E-02 0.  1.
          2   -1    0    0  501    0  0.00000000000E+00 -0.00000000000E+00 -0.29765923482E+04  0.29765923482E+04  0.25500000000E-02 0. -1.
    8880023    1    1    2    0    0  0.65046940943E+02  0.86205057962E+02 -0.18707876723E+03  0.69316021810E+03  0.65864270000E+03 0.  1.
    8880022    1    1    2    0    0 -0.65046940943E+02 -0.86205057962E+02 -0.25330178541E+04  0.25399278570E+04  0.15294330000E+03 0.  0.
<mgrwt>
<rscale>  0 0.48573588E+03</rscale>
<asrwt>0</asrwt>
<pdfrwt beam="1">  1        2 0.45793726E+00 0.66743735E+03</pdfrwt>
<pdfrwt beam="2">  1       -2 0.39460883E-01 0.66743735E+03</pdfrwt>
<totfact> 0.11793672E+01</totfact>
</mgrwt>
</event>
<event>
 4    1  0.8645356E-007  0.7619308E+03  0.7818608E-02  0.9800134E-01
          2   -1    0    0  501    0  0.00000000000E+00  0.00000000000E+00  0.23156688943E+04  0.23156688943E+04  0.25500000000E-02 0. -1.
         -2   -1    0    0    0  501 -0.00000000000E+00 -0.00000000000E+00 -0.38205666212E+03  0.38205666213E+03  0.25500000000E-02 0.  1.
    8880023    1    1    2    0    0 -0.70002878080E+01 -0.38298739197E+03  0.43540739871E+02  0.76317386534E+03  0.65864270000E+03 0.  1.
    8880022    1    1    2    0    0  0.70002878080E+01  0.38298739197E+03  0.18900714923E+04  0.19345516911E+04  0.15294330000E+03 0.  0.
<mgrwt>
<rscale>  0 0.65355339E+03</rscale>
<asrwt>0</asrwt>
<pdfrwt beam="1">  1        2 0.35625675E+00 0.76193081E+03</pdfrwt>
<pdfrwt beam="2">  1       -2 0.58777949E-01 0.76193081E+03</pdfrwt>
<totfact> 0.12507367E+01</totfact>
</mgrwt>
</event>
<event>
 4    1  0.8645356E-007  0.7040857E+03  0.7818608E-02  0.9980656E-01
         -2   -1    0    0    0  501 -0.00000000000E+00  0.00000000000E+00  0.12140928148E+03  0.12140928151E+03  0.25500000000E-02 0.  1.
          2   -1    0    0  501    0  0.00000000000E+00 -0.00000000000E+00 -0.29063207615E+04  0.29063207615E+04  0.25500000000E-02 0. -1.
    8880023    1    1    2    0    0 -0.24597380154E+03  0.37726817877E+02 -0.10236699753E+04  0.12424318285E+04  0.65864270000E+03 0.  1.
    8880022    1    1    2    0    0  0.24597380154E+03 -0.37726817877E+02 -0.17612415047E+04  0.17852982145E+04  0.15294330000E+03 0.  0.
<mgrwt>
<rscale>  0 0.56506611E+03</rscale>
<asrwt>0</asrwt>
<pdfrwt beam="1">  1        2 0.44712622E+00 0.70408567E+03</pdfrwt>
<pdfrwt beam="2">  1       -2 0.18678353E-01 0.70408567E+03</pdfrwt>
<totfact> 0.50734878E+01</totfact>
</mgrwt>
</event>
<event>
 4    1  0.8645356E-007  0.7634987E+03  0.7818608E-02  0.9796133E-01
          2   -1    0    0  501    0  0.00000000000E+00  0.00000000000E+00  0.38713485061E+03  0.38713485062E+03  0.25500000000E-02 0. -1.
         -2   -1    0    0    0  501 -0.00000000000E+00 -0.00000000000E+00 -0.91745361368E+03  0.91745361369E+03  0.25500000000E-02 0.  1.
    8880023    1    1    2    0    0  0.20998369977E+03  0.32407851412E+03 -0.43397099337E+03  0.87821470430E+03  0.65864270000E+03 0.  1.
    8880022    1    1    2    0    0 -0.20998369977E+03 -0.32407851412E+03 -0.96347769694E+02  0.42637376001E+03  0.15294330000E+03 0. -1.
<mgrwt>
<rscale>  0 0.65570506E+03</rscale>
<asrwt>0</asrwt>
<pdfrwt beam="1">  1        2 0.59559208E-01 0.76349869E+03</pdfrwt>
<pdfrwt beam="2">  1       -2 0.14114671E+00 0.76349869E+03</pdfrwt>
<totfact> 0.29334677E+01</totfact>
</mgrwt>
</event>
<event>
 4    1  0.8645356E-007  0.9923714E+03  0.7818608E-02  0.9391607E-01
         -2   -1    0    0    0  501 -0.00000000000E+00  0.00000000000E+00  0.79948341162E+03  0.79948341163E+03  0.25500000000E-02 0.  1.
          2   -1    0    0  501    0  0.00000000000E+00 -0.00000000000E+00 -0.17572877386E+04  0.17572877386E+04  0.25500000000E-02 0. -1.
    8880023    1    1    2    0    0  0.17403209078E+03  0.72159796182E+03  0.34410262202E+03  0.10503369021E+04  0.65864270000E+03 0.  1.
    8880022    1    1    2    0    0 -0.17403209078E+03 -0.72159796182E+03 -0.13019069490E+04  0.15064342481E+04  0.15294330000E+03 0.  0.
<mgrwt>
<rscale>  0 0.92769630E+03</rscale>
<asrwt>0</asrwt>
<pdfrwt beam="1">  1        2 0.27035196E+00 0.99237140E+03</pdfrwt>
<pdfrwt beam="2">  1       -2 0.12299745E+00 0.99237140E+03</pdfrwt>
<totfact> 0.45361967E+00</totfact>
</mgrwt>
</event>
<event>
 4    1  0.8645356E-007  0.8192177E+03  0.7818608E-02  0.9670687E-01
          2   -1    0    0  501    0  0.00000000000E+00  0.00000000000E+00  0.33991822959E+04  0.33991822959E+04  0.25500000000E-02 0. -1.
         -2   -1    0    0    0  501 -0.00000000000E+00 -0.00000000000E+00 -0.20069482164E+03  0.20069482166E+03  0.25500000000E-02 0.  1.
    8880023    1    1    2    0    0  0.30949060085E+03  0.37619545280E+03  0.79074944762E+03  0.11385966564E+04  0.65864270000E+03 0.  1.
    8880022    1    1    2    0    0 -0.30949060085E+03 -0.37619545280E+03  0.24077380266E+04  0.24612804612E+04  0.15294330000E+03 0.  0.
<mgrwt>
<rscale>  0 0.72789199E+03</rscale>
<asrwt>0</asrwt>
<pdfrwt beam="1">  1        2 0.52295113E+00 0.81921771E+03</pdfrwt>
<pdfrwt beam="2">  1       -2 0.30876126E-01 0.81921771E+03</pdfrwt>
<totfact> 0.98561548E+00</totfact>
</mgrwt>
</event>
<event>
 4    1  0.8645356E-007  0.6606772E+03  0.7818608E-02  0.1023473E+00
         -2   -1    0    0    0  501 -0.00000000000E+00  0.00000000000E+00  0.16609292598E+03  0.16609292600E+03  0.25500000000E-02 0.  1.
          2   -1    0    0  501    0  0.00000000000E+00 -0.00000000000E+00 -0.11953619007E+04  0.11953619007E+04  0.25500000000E-02 0. -1.
    8880023    1    1    2    0    0 -0.16902238812E+02 -0.48973544385E+02 -0.56302454780E+03  0.86803855987E+03  0.65864270000E+03 0.  1.
    8880022    1    1    2    0    0  0.16902238812E+02  0.48973544385E+02 -0.46624442690E+03  0.49341626682E+03  0.15294330000E+03 0.  0.
<mgrwt>
<rscale>  0 0.46453834E+03</rscale>
<asrwt>0</asrwt>
<pdfrwt beam="1">  1        2 0.18390182E+00 0.66067715E+03</pdfrwt>
<pdfrwt beam="2">  1       -2 0.25552759E-01 0.66067715E+03</pdfrwt>
<totfact> 0.26672103E+02</totfact>
</mgrwt>
</event>
<event>
 4    1  0.8645356E-007  0.1426637E+04  0.7818608E-02  0.8963257E-01
          2   -1    0    0  501    0  0.00000000000E+00  0.00000000000E+00  0.13861679098E+04  0.13861679098E+04  0.25500000000E-02 0. -1.
         -2   -1    0    0    0  501 -0.00000000000E+00 -0.00000000000E+00 -0.20098019512E+04  0.20098019512E+04  0.25500000000E-02 0.  1.
    8880023    1    1    2    0    0 -0.97534020077E+03 -0.80634617582E+03 -0.13198498569E+04  0.19435268235E+04  0.65864270000E+03 0.  0.
    8880022    1    1    2    0    0  0.97534020077E+03  0.80634617582E+03  0.69621581545E+03  0.14524430375E+04  0.15294330000E+03 0.  0.
<mgrwt>
<rscale>  0 0.13870355E+04</rscale>
<asrwt>0</asrwt>
<pdfrwt beam="1">  1        2 0.21325660E+00 0.14266369E+04</pdfrwt>
<pdfrwt beam="2">  1       -2 0.30920030E+00 0.14266369E+04</pdfrwt>
<totfact> 0.39072276E-01</totfact>
</mgrwt>
</event>
<event>
 4    1  0.8645356E-007  0.1053978E+04  0.7818608E-02  0.9314114E-01
          2   -1    0    0  501    0  0.00000000000E+00  0.00000000000E+00  0.21495908025E+04  0.21495908025E+04  0.25500000000E-02 0. -1.
         -2   -1    0    0    0  501 -0.00000000000E+00 -0.00000000000E+00 -0.43559141742E+03  0.43559141743E+03  0.25500000000E-02 0.  1.
    8880023    1    1    2    0    0 -0.79025954456E+03  0.22923692887E+03  0.67739192530E+03  0.12528885601E+04  0.65864270000E+03 0.  1.
    8880022    1    1    2    0    0  0.79025954456E+03 -0.22923692887E+03  0.10366074597E+04  0.13322936598E+04  0.15294330000E+03 0. -1.
<mgrwt>
<rscale>  0 0.99493785E+03</rscale>
<asrwt>0</asrwt>
<pdfrwt beam="1">  1        2 0.33070628E+00 0.10539781E+04</pdfrwt>
<pdfrwt beam="2">  1       -2 0.67014063E-01 0.10539781E+04</pdfrwt>
<totfact> 0.11257889E+01</totfact>
</mgrwt>
</event>
<event>
 4    1  0.8645356E-007  0.7825344E+03  0.7818608E-02  0.9749917E-01
         -2   -1    0    0    0  501 -0.00000000000E+00  0.00000000000E+00  0.75696058029E+03  0.75696058029E+03  0.25500000000E-02 0.  1.
          2   -1    0    0  501    0  0.00000000000E+00 -0.00000000000E+00 -0.72227348966E+03  0.72227348966E+03  0.25500000000E-02 0. -1.
    8880023    1    1    2    0    0  0.41091473034E+03  0.98483271163E+02  0.41925216796E+03  0.88776824505E+03  0.65864270000E+03 0.  1.
    8880022    1    1    2    0    0 -0.41091473034E+03 -0.98483271163E+02 -0.38456507733E+03  0.59146582490E+03  0.15294330000E+03 0.  0.
<mgrwt>
<rscale>  0 0.68120963E+03</rscale>
<asrwt>0</asrwt>
<pdfrwt beam="1">  1        2 0.11111900E+00 0.78253439E+03</pdfrwt>
<pdfrwt beam="2">  1       -2 0.11645547E+00 0.78253439E+03</pdfrwt>
<totfact> 0.22755273E+01</totfact>
</mgrwt>
</event>
<event>
 4    1  0.8645356E-007  0.9270372E+03  0.7818608E-02  0.9483952E-01
          2   -1    0    0  501    0  0.00000000000E+00  0.00000000000E+00  0.31772256006E+04  0.31772256006E+04  0.25500000000E-02 0. -1.
         -2   -1    0    0    0  501 -0.00000000000E+00 -0.00000000000E+00 -0.23314778154E+03  0.23314778156E+03  0.25500000000E-02 0.  1.
    8880023    1    1    2    0    0  0.65207703427E+03 -0.19579958177E+02  0.10469595560E+04  0.13983999255E+04  0.65864270000E+03 0.  0.
    8880022    1    1    2    0    0 -0.65207703427E+03  0.19579958177E+02  0.18971182631E+04  0.20119734567E+04  0.15294330000E+03 0.  0.
<mgrwt>
<rscale>  0 0.85477379E+03</rscale>
<asrwt>0</asrwt>
<pdfrwt beam="1">  1        2 0.48880393E+00 0.92703724E+03</pdfrwt>
<pdfrwt beam="2">  1       -2 0.35868890E-01 0.92703724E+03</pdfrwt>
<totfact> 0.10179522E+01</totfact>
</mgrwt>
</event>
<event>
 4    1  0.8645356E-007  0.9952939E+03  0.7818608E-02  0.9387741E-01
         -2   -1    0    0    0  501 -0.00000000000E+00  0.00000000000E+00  0.10278422223E+04  0.10278422223E+04  0.25500000000E-02 0.  1.
          2   -1    0    0  501    0  0.00000000000E+00 -0.00000000000E+00 -0.26763022407E+04  0.26763022407E+04  0.25500000000E-02 0. -1.
    8880023    1    1    2    0    0 -0.58966783370E+03 -0.45726523408E+03  0.71205449778E+03  0.12237775380E+04  0.65864270000E+03 0.  0.
    8880022    1    1    2    0    0  0.58966783370E+03  0.45726523408E+03 -0.23605145162E+04  0.24803669250E+04  0.15294330000E+03 0.  0.
<mgrwt>
<rscale>  0 0.93091471E+03</rscale>
<asrwt>0</asrwt>
<pdfrwt beam="1">  1        2 0.41173880E+00 0.99529385E+03</pdfrwt>
<pdfrwt beam="2">  1       -2 0.15812957E+00 0.99529385E+03</pdfrwt>
<totfact> 0.72057113E-01</totfact>
</mgrwt>
</event>
<event>
 4    1  0.8645356E-007  0.1167877E+04  0.7818608E-02  0.9188998E-01
         -2   -1    0    0    0  501 -0.00000000000E+00  0.00000000000E+00  0.66801375974E+03  0.66801375975E+03  0.25500000000E-02 0.  1.
          2   -1    0    0  501    0  0.00000000000E+00 -0.00000000000E+00 -0.27399671756E+04  0.27399671756E+04  0.25500000000E-02 0. -1.
    8880023    1    1    2    0    0  0.90069157335E+03 -0.34479307419E+03 -0.57451198193E+02  0.11692897078E+04  0.65864270000E+03 0.  0.
    8880022    1    1    2    0    0 -0.90069157335E+03  0.34479307419E+03 -0.20145022177E+04  0.22386912275E+04  0.15294330000E+03 0.  0.
<mgrwt>
<rscale>  0 0.11167710E+04</rscale>
<asrwt>0</asrwt>
<pdfrwt beam="1">  1        2 0.42153341E+00 0.11678775E+04</pdfrwt>
<pdfrwt beam="2">  1       -2 0.10277135E+00 0.11678775E+04</pdfrwt>
<totfact> 0.19257696E+00</totfact>
</mgrwt>
</event>
<event>
 4    1  0.8645356E-007  0.1135105E+04  0.7818608E-02  0.9222942E-01
          2   -1    0    0  501    0  0.00000000000E+00  0.00000000000E+00  0.24029035244E+04  0.24029035244E+04  0.25500000000E-02 0. -1.
         -2   -1    0    0    0  501 -0.00000000000E+00 -0.00000000000E+00 -0.62783702700E+03  0.62783702701E+03  0.25500000000E-02 0.  1.
    8880023    1    1    2    0    0  0.91961491731E+03 -0.94661137011E+02  0.13665785423E+03  0.11433013174E+04  0.65864270000E+03 0. -1.
    8880022    1    1    2    0    0 -0.91961491731E+03  0.94661137011E+02  0.16384086431E+04  0.18874392340E+04  0.15294330000E+03 0.  0.
<mgrwt>
<rscale>  0 0.10819731E+04</rscale>
<asrwt>0</asrwt>
<pdfrwt beam="1">  1        2 0.36967747E+00 0.11351046E+04</pdfrwt>
<pdfrwt beam="2">  1       -2 0.96590311E-01 0.11351046E+04</pdfrwt>
<totfact> 0.35150211E+00</totfact>
</mgrwt>
</event>
<event>
 4    1  0.8645356E-007  0.7072603E+03  0.7818608E-02  0.9968319E-01
         -2   -1    0    0    0  501 -0.00000000000E+00  0.00000000000E+00  0.23701405143E+03  0.23701405145E+03  0.25500000000E-02 0.  1.
          2   -1    0    0  501    0  0.00000000000E+00 -0.00000000000E+00 -0.20436855834E+04  0.20436855834E+04  0.25500000000E-02 0. -1.
    8880023    1    1    2    0    0 -0.53466774715E+02 -0.25208761682E+03 -0.34185526920E+03  0.78554572998E+03  0.65864270000E+03 0.  0.
    8880022    1    1    2    0    0  0.53466774715E+02  0.25208761682E+03 -0.14648162627E+04  0.14951539048E+04  0.15294330000E+03 0.  0.
<mgrwt>
<rscale>  0 0.57061487E+03</rscale>
<asrwt>0</asrwt>
<pdfrwt beam="1">  1        2 0.31441315E+00 0.70726026E+03</pdfrwt>
<pdfrwt beam="2">  1       -2 0.36463702E-01 0.70726026E+03</pdfrwt>
<totfact> 0.46371628E+01</totfact>
</mgrwt>
</event>
<event>
 4    1  0.8645356E-007  0.6675629E+03  0.7818608E-02  0.1017474E+00
          2   -1    0    0  501    0  0.00000000000E+00  0.00000000000E+00  0.37246545078E+03  0.37246545079E+03  0.25500000000E-02 0. -1.
         -2   -1    0    0    0  501 -0.00000000000E+00 -0.00000000000E+00 -0.57447232531E+03  0.57447232532E+03  0.25500000000E-02 0.  1.
    8880023    1    1    2    0    0  0.10688807388E+03 -0.20123668005E+02 -0.30379384410E+03  0.73343774673E+03  0.65864270000E+03 0.  0.
    8880022    1    1    2    0    0 -0.10688807388E+03  0.20123668005E+02  0.10178696957E+03  0.21350002937E+03  0.15294330000E+03 0.  0.
<mgrwt>
<rscale>  0 0.48609415E+03</rscale>
<asrwt>0</asrwt>
<pdfrwt beam="1">  1        2 0.57302377E-01 0.66756290E+03</pdfrwt>
<pdfrwt beam="2">  1       -2 0.88380358E-01 0.66756290E+03</pdfrwt>
<totfact> 0.96349436E+01</totfact>
</mgrwt>
</event>
<event>
 4    1  0.8645356E-007  0.8600646E+03  0.7818608E-02  0.9593449E-01
          2   -1    0    0  501    0  0.00000000000E+00  0.00000000000E+00  0.74117736401E+03  0.74117736401E+03  0.25500000000E-02 0. -1.
         -2   -1    0    0    0  501 -0.00000000000E+00 -0.00000000000E+00 -0.12194612993E+04  0.12194612993E+04  0.25500000000E-02 0.  1.
    8880023    1    1    2    0    0  0.11598587545E+03  0.54078477360E+03 -0.90275581812E+03  0.12468677428E+04  0.65864270000E+03 0.  1.
    8880022    1    1    2    0    0 -0.11598587545E+03 -0.54078477360E+03  0.42447188281E+03  0.71377092052E+03  0.15294330000E+03 0.  0.
<mgrwt>
<rscale>  0 0.77731319E+03</rscale>
<asrwt>0</asrwt>
<pdfrwt beam="1">  1        2 0.11402729E+00 0.86006459E+03</pdfrwt>
<pdfrwt beam="2">  1       -2 0.18760943E+00 0.86006459E+03</pdfrwt>
<totfact> 0.61657646E+00</totfact>
</mgrwt>
</event>
<event>
 4    1  0.8645356E-007  0.7339992E+03  0.7818608E-02  0.9877785E-01
          2   -1    0    0  501    0  0.00000000000E+00  0.00000000000E+00  0.73295918618E+03  0.73295918618E+03  0.25500000000E-02 0. -1.
         -2   -1    0    0    0  501 -0.00000000000E+00 -0.00000000000E+00 -0.13213193219E+04  0.13213193219E+04  0.25500000000E-02 0.  1.
    8880023    1    1    2    0    0  0.20295981382E+03 -0.25249147096E+03 -0.11640995110E+04  0.13761840381E+04  0.65864270000E+03 0.  1.
    8880022    1    1    2    0    0 -0.20295981382E+03  0.25249147096E+03  0.57573937529E+03  0.67809446998E+03  0.15294330000E+03 0.  0.
<mgrwt>
<rscale>  0 0.61350114E+03</rscale>
<asrwt>0</asrwt>
<pdfrwt beam="1">  1        2 0.11276295E+00 0.73399921E+03</pdfrwt>
<pdfrwt beam="2">  1       -2 0.20327990E+00 0.73399921E+03</pdfrwt>
<totfact> 0.50072825E+00</totfact>
</mgrwt>
</event>
<event>
 4    1  0.8645356E-007  0.6787512E+03  0.7818608E-02  0.1010039E+00
         -2   -1    0    0    0  501 -0.00000000000E+00  0.00000000000E+00  0.12453673742E+04  0.12453673742E+04  0.25500000000E-02 0.  1.
          2   -1    0    0  501    0  0.00000000000E+00 -0.00000000000E+00 -0.23498382139E+03  0.23498382140E+03  0.25500000000E-02 0. -1.
    8880023    1    1    2    0    0  0.70363576819E+02 -0.14812822072E+03  0.10523111099E+04  0.12522227761E+04  0.65864270000E+03 0.  1.
    8880022    1    1    2    0    0 -0.70363576819E+02  0.14812822072E+03 -0.41927557102E+02  0.22812841948E+03  0.15294330000E+03 0.  0.
<mgrwt>
<rscale>  0 0.51459125E+03</rscale>
<asrwt>0</asrwt>
<pdfrwt beam="1">  1        2 0.36151357E-01 0.67875121E+03</pdfrwt>
<pdfrwt beam="2">  1       -2 0.19159498E+00 0.67875121E+03</pdfrwt>
<totfact> 0.22280497E+01</totfact>
</mgrwt>
</event>
<event>
 4    1  0.8645356E-007  0.7232511E+03  0.7818608E-02  0.9911735E-01
         -2   -1    0    0    0  501 -0.00000000000E+00  0.00000000000E+00  0.15558809121E+03  0.15558809123E+03  0.25500000000E-02 0.  1.
          2   -1    0    0  501    0  0.00000000000E+00 -0.00000000000E+00 -0.25176339638E+04  0.25176339638E+04  0.25500000000E-02 0. -1.
    8880023    1    1    2    0    0  0.42325529555E+02 -0.29578800499E+03 -0.81265736747E+03  0.10878897911E+04  0.65864270000E+03 0.  1.
    8880022    1    1    2    0    0 -0.42325529555E+02  0.29578800499E+03 -0.15493885051E+04  0.15853322640E+04  0.15294330000E+03 0.  0.
<mgrwt>
<rscale>  0 0.59695918E+03</rscale>
<asrwt>0</asrwt>
<pdfrwt beam="1">  1        2 0.38732827E+00 0.72325113E+03</pdfrwt>
<pdfrwt beam="2">  1       -2 0.23936631E-01 0.72325113E+03</pdfrwt>
<totfact> 0.55061646E+01</totfact>
</mgrwt>
</event>
<event>
 4    1  0.8645356E-007  0.1202827E+04  0.7818608E-02  0.9154379E-01
         -2   -1    0    0    0  501 -0.00000000000E+00  0.00000000000E+00  0.18508377230E+04  0.18508377230E+04  0.25500000000E-02 0.  1.
          2   -1    0    0  501    0  0.00000000000E+00 -0.00000000000E+00 -0.95772349692E+03  0.95772349693E+03  0.25500000000E-02 0. -1.
    8880023    1    1    2    0    0 -0.10063465055E+04 -0.15815618443E+02  0.12452904775E+04  0.17313410994E+04  0.65864270000E+03 0.  0.
    8880022    1    1    2    0    0  0.10063465055E+04  0.15815618443E+02 -0.35217625146E+03  0.10772201205E+04  0.15294330000E+03 0.  0.
<mgrwt>
<rscale>  0 0.11536979E+04</rscale>
<asrwt>0</asrwt>
<pdfrwt beam="1">  1        2 0.14734208E+00 0.12028273E+04</pdfrwt>
<pdfrwt beam="2">  1       -2 0.28474426E+00 0.12028273E+04</pdfrwt>
<totfact> 0.10328121E+00</totfact>
</mgrwt>
</event>
<event>
 4    1  0.8645356E-007  0.7590809E+03  0.7818608E-02  0.9807493E-01
          2   -1    0    0  501    0  0.00000000000E+00  0.00000000000E+00  0.19025007647E+04  0.19025007647E+04  0.25500000000E-02 0. -1.
         -2   -1    0    0    0  501 -0.00000000000E+00 -0.00000000000E+00 -0.22821367558E+03  0.22821367560E+03  0.25500000000E-02 0.  1.
    8880023    1    1    2    0    0  0.15759815414E+03 -0.34286506653E+03  0.55690741926E+03  0.94146147660E+03  0.65864270000E+03 0.  0.
    8880022    1    1    2    0    0 -0.15759815414E+03  0.34286506653E+03  0.11173796699E+04  0.11892529637E+04  0.15294330000E+03 0.  0.
<mgrwt>
<rscale>  0 0.64961987E+03</rscale>
<asrwt>0</asrwt>
<pdfrwt beam="1">  1        2 0.29269243E+00 0.75908092E+03</pdfrwt>
<pdfrwt beam="2">  1       -2 0.35109795E-01 0.75908092E+03</pdfrwt>
<totfact> 0.59143893E+01</totfact>
</mgrwt>
</event>
<event>
 4    1  0.8645356E-007  0.7378649E+03  0.7818608E-02  0.9866211E-01
          2   -1    0    0  501    0  0.00000000000E+00  0.00000000000E+00  0.95553796091E+03  0.95553796091E+03  0.25500000000E-02 0. -1.
         -2   -1    0    0    0  501 -0.00000000000E+00 -0.00000000000E+00 -0.13380237855E+04  0.13380237855E+04  0.25500000000E-02 0.  1.
    8880023    1    1    2    0    0  0.10072919665E+03  0.31699844637E+03 -0.11938273738E+04  0.14034487489E+04  0.65864270000E+03 0.  1.
    8880022    1    1    2    0    0 -0.10072919665E+03 -0.31699844637E+03  0.81134154915E+03  0.89011299758E+03  0.15294330000E+03 0.  0.
<mgrwt>
<rscale>  0 0.61927177E+03</rscale>
<asrwt>0</asrwt>
<pdfrwt beam="1">  1        2 0.14700584E+00 0.73786489E+03</pdfrwt>
<pdfrwt beam="2">  1       -2 0.20584981E+00 0.73786489E+03</pdfrwt>
<totfact> 0.33659264E+00</totfact>
</mgrwt>
</event>
<event>
 4    1  0.8645356E-007  0.6968883E+03  0.7818608E-02  0.1001036E+00
         -2   -1    0    0    0  501 -0.00000000000E+00  0.00000000000E+00  0.32888733882E+03  0.32888733883E+03  0.25500000000E-02 0.  1.
          2   -1    0    0  501    0  0.00000000000E+00 -0.00000000000E+00 -0.78826938084E+03  0.78826938084E+03  0.25500000000E-02 0. -1.
    8880023    1    1    2    0    0 -0.22752949933E+03 -0.85649057786E+01 -0.16773341728E+03  0.71678988289E+03  0.65864270000E+03 0.  0.
    8880022    1    1    2    0    0  0.22752949933E+03  0.85649057786E+01 -0.29164862474E+03  0.40036683679E+03  0.15294330000E+03 0.  0.
<mgrwt>
<rscale>  0 0.55198162E+03</rscale>
<asrwt>0</asrwt>
<pdfrwt beam="1">  1        2 0.12127221E+00 0.69688825E+03</pdfrwt>
<pdfrwt beam="2">  1       -2 0.50598052E-01 0.69688825E+03</pdfrwt>
<totfact> 0.13165380E+02</totfact>
</mgrwt>
</event>
<event>
 4    1  0.8645356E-007  0.8971003E+03  0.7818608E-02  0.9530703E-01
         -2   -1    0    0    0  501 -0.00000000000E+00  0.00000000000E+00  0.42702363460E+03  0.42702363461E+03  0.25500000000E-02 0.  1.
          2   -1    0    0  501    0  0.00000000000E+00 -0.00000000000E+00 -0.16279400160E+04  0.16279400160E+04  0.25500000000E-02 0. -1.
    8880023    1    1    2    0    0 -0.55482408435E+03  0.25129468425E+03 -0.27900437257E+03  0.93948519365E+03  0.65864270000E+03 0.  1.
    8880022    1    1    2    0    0  0.55482408435E+03 -0.25129468425E+03 -0.92191200881E+03  0.11154784569E+04  0.15294330000E+03 0.  0.
<mgrwt>
<rscale>  0 0.82057599E+03</rscale>
<asrwt>0</asrwt>
<pdfrwt beam="1">  1        2 0.25045231E+00 0.89710032E+03</pdfrwt>
<pdfrwt beam="2">  1       -2 0.65695945E-01 0.89710032E+03</pdfrwt>
<totfact> 0.23164405E+01</totfact>
</mgrwt>
</event>
<event>
 4    1  0.8645356E-007  0.9549142E+03  0.7818608E-02  0.9443079E-01
          2   -1    0    0  501    0  0.00000000000E+00  0.00000000000E+00  0.21303676125E+04  0.21303676125E+04  0.25500000000E-02 0. -1.
         -2   -1    0    0    0  501 -0.00000000000E+00 -0.00000000000E+00 -0.95806946462E+03  0.95806946462E+03  0.25500000000E-02 0.  1.
    8880023    1    1    2    0    0  0.13111666403E+03  0.67886616744E+03 -0.63539789178E+03  0.11469923888E+04  0.65864270000E+03 0.  0.
    8880022    1    1    2    0    0 -0.13111666403E+03 -0.67886616744E+03  0.18076960397E+04  0.19414446883E+04  0.15294330000E+03 0.  0.
<mgrwt>
<rscale>  0 0.88613705E+03</rscale>
<asrwt>0</asrwt>
<pdfrwt beam="1">  1        2 0.32774886E+00 0.95491416E+03</pdfrwt>
<pdfrwt beam="2">  1       -2 0.14739530E+00 0.95491416E+03</pdfrwt>
<totfact> 0.17841995E+00</totfact>
</mgrwt>
</event>
<event>
 4    1  0.8645356E-007  0.9926205E+03  0.7818608E-02  0.9391277E-01
         -2   -1    0    0    0  501 -0.00000000000E+00  0.00000000000E+00  0.60737059375E+03  0.60737059376E+03  0.25500000000E-02 0.  1.
          2   -1    0    0  501    0  0.00000000000E+00 -0.00000000000E+00 -0.34180922586E+04  0.34180922586E+04  0.25500000000E-02 0. -1.
    8880023    1    1    2    0    0 -0.73732103165E+03 -0.88560295962E+02  0.11853243263E+03  0.99967263321E+03  0.65864270000E+03 0.  1.
    8880022    1    1    2    0    0  0.73732103165E+03  0.88560295962E+02 -0.29292540975E+04  0.30257902191E+04  0.15294330000E+03 0.  0.
<mgrwt>
<rscale>  0 0.92797074E+03</rscale>
<asrwt>0</asrwt>
<pdfrwt beam="1">  1        2 0.52586034E+00 0.99262049E+03</pdfrwt>
<pdfrwt beam="2">  1       -2 0.93441632E-01 0.99262049E+03</pdfrwt>
<totfact> 0.92709538E-01</totfact>
</mgrwt>
</event>
<event>
 4    1  0.8645356E-007  0.7500055E+03  0.7818608E-02  0.9831705E-01
          2   -1    0    0  501    0  0.00000000000E+00  0.00000000000E+00  0.27697965526E+04  0.27697965526E+04  0.25500000000E-02 0. -1.
         -2   -1    0    0    0  501 -0.00000000000E+00 -0.00000000000E+00 -0.11889847478E+03  0.11889847481E+03  0.25500000000E-02 0.  1.
    8880023    1    1    2    0    0  0.23563520222E+02  0.35797044777E+03  0.15793627709E+04  0.17483978522E+04  0.65864270000E+03 0.  0.
    8880022    1    1    2    0    0 -0.23563520222E+02 -0.35797044777E+03  0.10715353069E+04  0.11402971753E+04  0.15294330000E+03 0. -1.
<mgrwt>
<rscale>  0 0.63688473E+03</rscale>
<asrwt>0</asrwt>
<pdfrwt beam="1">  1        2 0.42612250E+00 0.75000552E+03</pdfrwt>
<pdfrwt beam="2">  1       -2 0.18292075E-01 0.75000552E+03</pdfrwt>
<totfact> 0.62995630E+01</totfact>
</mgrwt>
</event>
<event>
 4    1  0.8645356E-007  0.1254778E+04  0.7818608E-02  0.9105630E-01
         -2   -1    0    0    0  501 -0.00000000000E+00  0.00000000000E+00  0.16766090021E+04  0.16766090021E+04  0.25500000000E-02 0.  1.
          2   -1    0    0  501    0  0.00000000000E+00 -0.00000000000E+00 -0.11557287527E+04  0.11557287527E+04  0.25500000000E-02 0. -1.
    8880023    1    1    2    0    0 -0.61927626895E+03  0.87014686525E+03  0.10449235606E+04  0.16328913369E+04  0.65864270000E+03 0.  0.
    8880022    1    1    2    0    0  0.61927626895E+03 -0.87014686525E+03 -0.52404331123E+03  0.11994464179E+04  0.15294330000E+03 0.  0.
<mgrwt>
<rscale>  0 0.12082916E+04</rscale>
<asrwt>0</asrwt>
<pdfrwt beam="1">  1        2 0.17780442E+00 0.12547784E+04</pdfrwt>
<pdfrwt beam="2">  1       -2 0.25793984E+00 0.12547784E+04</pdfrwt>
<totfact> 0.11193195E+00</totfact>
</mgrwt>
</event>
<event>
 4    1  0.8645356E-007  0.1083483E+04  0.7818608E-02  0.9279672E-01
         -2   -1    0    0    0  501 -0.00000000000E+00  0.00000000000E+00  0.10726546424E+04  0.10726546424E+04  0.25500000000E-02 0.  1.
          2   -1    0    0  501    0  0.00000000000E+00 -0.00000000000E+00 -0.16782470259E+04  0.16782470259E+04  0.25500000000E-02 0. -1.
    8880023    1    1    2    0    0  0.61990169341E+03 -0.59652996586E+03  0.61799941599E+03  0.12473410095E+04  0.65864270000E+03 0.  0.
    8880022    1    1    2    0    0 -0.61990169341E+03  0.59652996586E+03 -0.12235917995E+04  0.15035606587E+04  0.15294330000E+03 0.  0.
<mgrwt>
<rscale>  0 0.10267604E+04</rscale>
<asrwt>0</asrwt>
<pdfrwt beam="1">  1        2 0.25819185E+00 0.10834834E+04</pdfrwt>
<pdfrwt beam="2">  1       -2 0.16502379E+00 0.10834834E+04</pdfrwt>
<totfact> 0.22960288E+00</totfact>
</mgrwt>
</event>
<event>
 4    1  0.8645356E-007  0.7781680E+03  0.7818608E-02  0.9760158E-01
          2   -1    0    0  501    0  0.00000000000E+00  0.00000000000E+00  0.24968359341E+04  0.24968359341E+04  0.25500000000E-02 0. -1.
         -2   -1    0    0    0  501 -0.00000000000E+00 -0.00000000000E+00 -0.21873394914E+03  0.21873394915E+03  0.25500000000E-02 0.  1.
    8880023    1    1    2    0    0 -0.89692218127E+02 -0.40458684817E+03  0.60654715942E+03  0.98663310028E+03  0.65864270000E+03 0.  1.
    8880022    1    1    2    0    0  0.89692218127E+02  0.40458684817E+03  0.16715548255E+04  0.17289367829E+04  0.15294330000E+03 0.  0.
<mgrwt>
<rscale>  0 0.67545225E+03</rscale>
<asrwt>0</asrwt>
<pdfrwt beam="1">  1        2 0.38412859E+00 0.77816799E+03</pdfrwt>
<pdfrwt beam="2">  1       -2 0.33651378E-01 0.77816799E+03</pdfrwt>
<totfact> 0.29998311E+01</totfact>
</mgrwt>
</event>
<event>
 4    1  0.8645356E-007  0.1139619E+04  0.7818608E-02  0.9218177E-01
          2   -1    0    0  501    0  0.00000000000E+00  0.00000000000E+00  0.37541405322E+04  0.37541405322E+04  0.25500000000E-02 0. -1.
         -2   -1    0    0    0  501 -0.00000000000E+00 -0.00000000000E+00 -0.36586129429E+03  0.36586129429E+03  0.25500000000E-02 0.  1.
    8880023    1    1    2    0    0 -0.35190809701E+03  0.86086070882E+03  0.87798944992E+03  0.14386091023E+04  0.65864270000E+03 0.  1.
    8880022    1    1    2    0    0  0.35190809701E+03 -0.86086070882E+03  0.25102897880E+04  0.26813927242E+04  0.15294330000E+03 0.  0.
<mgrwt>
<rscale>  0 0.10867768E+04</rscale>
<asrwt>0</asrwt>
<pdfrwt beam="1">  1        2 0.57756007E+00 0.11396187E+04</pdfrwt>
<pdfrwt beam="2">  1       -2 0.56286354E-01 0.11396187E+04</pdfrwt>
<totfact> 0.16110499E+00</totfact>
</mgrwt>
</event>
<event>
 4    1  0.8645356E-007  0.7079822E+03  0.7818608E-02  0.9965572E-01
          2   -1    0    0  501    0  0.00000000000E+00  0.00000000000E+00  0.73608252980E+03  0.73608252981E+03  0.25500000000E-02 0. -1.
         -2   -1    0    0    0  501 -0.00000000000E+00 -0.00000000000E+00 -0.91304090969E+03  0.91304090969E+03  0.25500000000E-02 0.  1.
    8880023    1    1    2    0    0 -0.19909775213E+02  0.25890565384E+03 -0.73148802737E+03  0.10179948316E+04  0.65864270000E+03 0.  1.
    8880022    1    1    2    0    0  0.19909775213E+02 -0.25890565384E+03  0.55452964748E+03  0.63112860789E+03  0.15294330000E+03 0.  0.
<mgrwt>
<rscale>  0 0.57185976E+03</rscale>
<asrwt>0</asrwt>
<pdfrwt beam="1">  1        2 0.11324347E+00 0.70798216E+03</pdfrwt>
<pdfrwt beam="2">  1       -2 0.14046783E+00 0.70798216E+03</pdfrwt>
<totfact> 0.13946611E+01</totfact>
</mgrwt>
</event>
<event>
 4    1  0.9479972E-007  0.6595857E+03  0.7818608E-02  0.1024585E+00
         -2   -1    0    0    0  501 -0.00000000000E+00  0.00000000000E+00  0.10812160780E+04  0.10812160780E+04  0.25500000000E-02 0.  1.
          2   -1    0    0  501    0  0.00000000000E+00 -0.00000000000E+00 -0.20055979130E+04  0.20055979130E+04  0.25500000000E-02 0. -1.
    8880023    1    1    2    0    0  0.34642389845E+02  0.65594351137E+01  0.97708741178E+03  0.11788779147E+04  0.65864270000E+03 0.  1.
    8880022    1    1    2    0    0 -0.34642389845E+02 -0.65594351137E+01 -0.19014692468E+04  0.19079360762E+04  0.15294330000E+03 0.  0.
<mgrwt>
<rscale>  0 0.46067751E+03</rscale>
<asrwt>0</asrwt>
<pdfrwt beam="1">  1        2 0.30855352E+00 0.65958572E+03</pdfrwt>
<pdfrwt beam="2">  1       -2 0.16634094E+00 0.65958572E+03</pdfrwt>
<totfact> 0.15905899E+00</totfact>
</mgrwt>
</event>
<event>
 4    1  0.8645356E-007  0.7329507E+03  0.7818608E-02  0.9880978E-01
          2   -1    0    0  501    0  0.00000000000E+00  0.00000000000E+00  0.38660960448E+04  0.38660960448E+04  0.25500000000E-02 0. -1.
         -2   -1    0    0    0  501 -0.00000000000E+00 -0.00000000000E+00 -0.25347530560E+03  0.25347530561E+03  0.25500000000E-02 0.  1.
    8880023    1    1    2    0    0  0.26379713674E+03  0.18389546045E+03  0.30670626212E+03  0.79453471114E+03  0.65864270000E+03 0.  1.
    8880022    1    1    2    0    0 -0.26379713674E+03 -0.18389546045E+03  0.33059144771E+04  0.33250366393E+04  0.15294330000E+03 0.  0.
<mgrwt>
<rscale>  0 0.61192072E+03</rscale>
<asrwt>0</asrwt>
<pdfrwt beam="1">  1        2 0.59478395E+00 0.73295066E+03</pdfrwt>
<pdfrwt beam="2">  1       -2 0.38996204E-01 0.73295066E+03</pdfrwt>
<totfact> 0.30025331E+00</totfact>
</mgrwt>
</event>
<event>
 4    1  0.1142265E-006  0.7313578E+03  0.7818608E-02  0.9885876E-01
         -2   -1    0    0    0  501 -0.00000000000E+00  0.00000000000E+00  0.88263311501E+03  0.88263311501E+03  0.25500000000E-02 0.  1.
          2   -1    0    0  501    0  0.00000000000E+00 -0.00000000000E+00 -0.18400983277E+04  0.18400983277E+04  0.25500000000E-02 0. -1.
    8880023    1    1    2    0    0 -0.14252710272E+03 -0.28418320216E+03  0.70943107492E+03  0.10189095758E+04  0.65864270000E+03 0.  1.
    8880022    1    1    2    0    0  0.14252710272E+03  0.28418320216E+03 -0.16668962876E+04  0.17038218669E+04  0.15294330000E+03 0.  0.
<mgrwt>
<rscale>  0 0.60950694E+03</rscale>
<asrwt>0</asrwt>
<pdfrwt beam="1">  1        2 0.28309205E+00 0.73135783E+03</pdfrwt>
<pdfrwt beam="2">  1       -2 0.13578971E+00 0.73135783E+03</pdfrwt>
<totfact> 0.33021822E+00</totfact>
</mgrwt>
</event>
<event>
 4    1  0.8645356E-007  0.6887053E+03  0.7818608E-02  0.1004774E+00
          2   -1    0    0  501    0  0.00000000000E+00  0.00000000000E+00  0.10146300717E+04  0.10146300717E+04  0.25500000000E-02 0. -1.
         -2   -1    0    0    0  501 -0.00000000000E+00 -0.00000000000E+00 -0.22629933470E+03  0.22629933472E+03  0.25500000000E-02 0.  1.
    8880023    1    1    2    0    0 -0.18745782303E+03 -0.73241906983E+02  0.46708225807E+03  0.83215434531E+03  0.65864270000E+03 0.  0.
    8880022    1    1    2    0    0  0.18745782303E+03  0.73241906983E+02  0.32124847891E+03  0.40877506109E+03  0.15294330000E+03 0.  1.
<mgrwt>
<rscale>  0 0.53605541E+03</rscale>
<asrwt>0</asrwt>
<pdfrwt beam="1">  1        2 0.15609693E+00 0.68870532E+03</pdfrwt>
<pdfrwt beam="2">  1       -2 0.34815283E-01 0.68870532E+03</pdfrwt>
<totfact> 0.19347175E+02</totfact>
</mgrwt>
</event>
<event>
 4    1  0.8645356E-007  0.7726472E+03  0.7818608E-02  0.9773401E-01
         -2   -1    0    0    0  501 -0.00000000000E+00  0.00000000000E+00  0.91970465129E+03  0.91970465129E+03  0.25500000000E-02 0.  1.
          2   -1    0    0  501    0  0.00000000000E+00 -0.00000000000E+00 -0.72803245149E+03  0.72803245149E+03  0.25500000000E-02 0. -1.
    8880023    1    1    2    0    0 -0.93127989163E+02  0.39306571574E+03  0.65600300996E+03  0.10135697483E+04  0.65864270000E+03 0.  1.
    8880022    1    1    2    0    0  0.93127989163E+02 -0.39306571574E+03 -0.46433081016E+03  0.63416735452E+03  0.15294330000E+03 0.  0.
<mgrwt>
<rscale>  0 0.66809733E+03</rscale>
<asrwt>0</asrwt>
<pdfrwt beam="1">  1        2 0.11200499E+00 0.77264719E+03</pdfrwt>
<pdfrwt beam="2">  1       -2 0.14149302E+00 0.77264719E+03</pdfrwt>
<totfact> 0.13786405E+01</totfact>
</mgrwt>
</event>
<event>
 4    1  0.8645356E-007  0.9394043E+03  0.7818608E-02  0.9465526E-01
          2   -1    0    0  501    0  0.00000000000E+00  0.00000000000E+00  0.81714654267E+03  0.81714654268E+03  0.25500000000E-02 0. -1.
         -2   -1    0    0    0  501 -0.00000000000E+00 -0.00000000000E+00 -0.11787582837E+04  0.11787582837E+04  0.25500000000E-02 0.  1.
    8880023    1    1    2    0    0 -0.66706834814E+03  0.60745276982E+02 -0.75409885300E+03  0.12046349887E+04  0.65864270000E+03 0.  0.
    8880022    1    1    2    0    0  0.66706834814E+03 -0.60745276982E+02  0.39248711201E+03  0.79126983759E+03  0.15294330000E+03 0.  0.
<mgrwt>
<rscale>  0 0.86873888E+03</rscale>
<asrwt>0</asrwt>
<pdfrwt beam="1">  1        2 0.12571485E+00 0.93940427E+03</pdfrwt>
<pdfrwt beam="2">  1       -2 0.18134743E+00 0.93940427E+03</pdfrwt>
<totfact> 0.59298830E+00</totfact>
</mgrwt>
</event>
<event>
 4    1  0.8645356E-007  0.8532331E+03  0.7818608E-02  0.9605716E-01
          2   -1    0    0  501    0  0.00000000000E+00  0.00000000000E+00  0.28668472292E+03  0.28668472293E+03  0.25500000000E-02 0. -1.
         -2   -1    0    0    0  501 -0.00000000000E+00 -0.00000000000E+00 -0.23013278752E+04  0.23013278752E+04  0.25500000000E-02 0.  1.
    8880023    1    1    2    0    0  0.14641828270E+03 -0.52226260038E+03 -0.17869535162E+04  0.19802044370E+04  0.65864270000E+03 0.  1.
    8880022    1    1    2    0    0 -0.14641828270E+03  0.52226260038E+03 -0.22768963608E+03  0.60780816106E+03  0.15294330000E+03 0.  0.
<mgrwt>
<rscale>  0 0.76919034E+03</rscale>
<asrwt>0</asrwt>
<pdfrwt beam="1">  1        2 0.44105343E-01 0.85323311E+03</pdfrwt>
<pdfrwt beam="2">  1       -2 0.35405043E+00 0.85323311E+03</pdfrwt>
<totfact> 0.17566429E+00</totfact>
</mgrwt>
</event>
<event>
 4    1  0.8645356E-007  0.7626491E+03  0.7818608E-02  0.9798297E-01
          2   -1    0    0  501    0  0.00000000000E+00  0.00000000000E+00  0.96430576513E+03  0.96430576513E+03  0.25500000000E-02 0. -1.
         -2   -1    0    0    0  501 -0.00000000000E+00 -0.00000000000E+00 -0.36556471621E+03  0.36556471622E+03  0.25500000000E-02 0.  1.
    8880023    1    1    2    0    0 -0.38382865963E+03 -0.22339624658E+02  0.30007431186E+03  0.81955981947E+03  0.65864270000E+03 0.  1.
    8880022    1    1    2    0    0  0.38382865963E+03  0.22339624658E+02  0.29866673706E+03  0.51031066188E+03  0.15294330000E+03 0. -1.
<mgrwt>
<rscale>  0 0.65454026E+03</rscale>
<asrwt>0</asrwt>
<pdfrwt beam="1">  1        2 0.14835473E+00 0.76264914E+03</pdfrwt>
<pdfrwt beam="2">  1       -2 0.56240725E-01 0.76264914E+03</pdfrwt>
<totfact> 0.79875630E+01</totfact>
</mgrwt>
</event>
<event>
 4    1  0.8645356E-007  0.9254250E+03  0.7818608E-02  0.9486390E-01
         -2   -1    0    0    0  501 -0.00000000000E+00  0.00000000000E+00  0.51575947175E+03  0.51575947175E+03  0.25500000000E-02 0.  1.
          2   -1    0    0  501    0  0.00000000000E+00 -0.00000000000E+00 -0.13907736722E+04  0.13907736723E+04  0.25500000000E-02 0. -1.
    8880023    1    1    2    0    0 -0.62547815359E+03 -0.17713916508E+03 -0.81998777300E+03  0.12364430268E+04  0.65864270000E+03 0.  0.
    8880022    1    1    2    0    0  0.62547815359E+03  0.17713916508E+03 -0.55026427501E+02  0.67009011719E+03  0.15294330000E+03 0. -1.
<mgrwt>
<rscale>  0 0.85294672E+03</rscale>
<asrwt>0</asrwt>
<pdfrwt beam="1">  1        2 0.21396518E+00 0.92542499E+03</pdfrwt>
<pdfrwt beam="2">  1       -2 0.79347611E-01 0.92542499E+03</pdfrwt>
<totfact> 0.20692655E+01</totfact>
</mgrwt>
</event>
<event>
 4    1  0.8645356E-007  0.7120168E+03  0.7818608E-02  0.9950587E-01
         -2   -1    0    0    0  501 -0.00000000000E+00  0.00000000000E+00  0.16405385950E+04  0.16405385950E+04  0.25500000000E-02 0.  1.
          2   -1    0    0  501    0  0.00000000000E+00 -0.00000000000E+00 -0.33049315375E+03  0.33049315376E+03  0.25500000000E-02 0. -1.
    8880023    1    1    2    0    0 -0.26617125947E+03 -0.48068923795E+02  0.96726001321E+02  0.71855680805E+03  0.65864270000E+03 0. -1.
    8880022    1    1    2    0    0  0.26617125947E+03  0.48068923795E+02  0.12133194399E+04  0.12524749407E+04  0.15294330000E+03 0.  1.
<mgrwt>
<rscale>  0 0.57871055E+03</rscale>
<asrwt>0</asrwt>
<pdfrwt beam="1">  1        2 0.50845101E-01 0.71201683E+03</pdfrwt>
<pdfrwt beam="2">  1       -2 0.25239055E+00 0.71201683E+03</pdfrwt>
<totfact> 0.63229421E+00</totfact>
</mgrwt>
</event>
<event>
 4    1  0.8645356E-007  0.6917067E+03  0.7818608E-02  0.1003352E+00
          2   -1    0    0  501    0  0.00000000000E+00  0.00000000000E+00  0.10734557771E+04  0.10734557771E+04  0.25500000000E-02 0. -1.
         -2   -1    0    0    0  501 -0.00000000000E+00 -0.00000000000E+00 -0.51539309450E+03  0.51539309451E+03  0.25500000000E-02 0.  1.
    8880023    1    1    2    0    0  0.20472566875E+02  0.21030661837E+03 -0.25326982115E+03  0.73661645942E+03  0.65864270000E+03 0.  0.
    8880022    1    1    2    0    0 -0.20472566875E+02 -0.21030661837E+03  0.81133250379E+03  0.85223241223E+03  0.15294330000E+03 0. -1.
<mgrwt>
<rscale>  0 0.54204677E+03</rscale>
<asrwt>0</asrwt>
<pdfrwt beam="1">  1        2 0.16514704E+00 0.69170673E+03</pdfrwt>
<pdfrwt beam="2">  1       -2 0.79291246E-01 0.69170673E+03</pdfrwt>
<totfact> 0.32645759E+01</totfact>
</mgrwt>
</event>
<event>
 4    1  0.8645356E-007  0.7189265E+03  0.7818608E-02  0.9926235E-01
          2   -1    0    0  501    0  0.00000000000E+00  0.00000000000E+00  0.12388291096E+04  0.12388291096E+04  0.25500000000E-02 0. -1.
         -2   -1    0    0    0  501 -0.00000000000E+00 -0.00000000000E+00 -0.52029400379E+03  0.52029400380E+03  0.25500000000E-02 0.  1.
    8880023    1    1    2    0    0  0.28146581889E+03 -0.61822787304E+02 -0.23098219346E+03  0.75512121159E+03  0.65864270000E+03 0.  1.
    8880022    1    1    2    0    0 -0.28146581889E+03  0.61822787304E+02  0.94951729926E+03  0.10040019018E+04  0.15294330000E+03 0.  0.
<mgrwt>
<rscale>  0 0.59006491E+03</rscale>
<asrwt>0</asrwt>
<pdfrwt beam="1">  1        2 0.19058909E+00 0.71892647E+03</pdfrwt>
<pdfrwt beam="2">  1       -2 0.80045233E-01 0.71892647E+03</pdfrwt>
<totfact> 0.25361703E+01</totfact>
</mgrwt>
</event>
<event>
 4    1  0.8645356E-007  0.7794629E+03  0.7818608E-02  0.9757100E-01
          2   -1    0    0  501    0  0.00000000000E+00  0.00000000000E+00  0.28532567141E+04  0.28532567141E+04  0.25500000000E-02 0. -1.
         -2   -1    0    0    0  501 -0.00000000000E+00 -0.00000000000E+00 -0.20786557850E+03  0.20786557852E+03  0.25500000000E-02 0.  1.
    8880023    1    1    2    0    0 -0.27042166570E+03 -0.31721346462E+03  0.64404946784E+03  0.10111192722E+04  0.65864270000E+03 0.  1.
    8880022    1    1    2    0    0  0.27042166570E+03  0.31721346462E+03  0.20013416678E+04  0.20500030204E+04  0.15294330000E+03 0.  0.
<mgrwt>
<rscale>  0 0.67716503E+03</rscale>
<asrwt>0</asrwt>
<pdfrwt beam="1">  1        2 0.43896255E+00 0.77946293E+03</pdfrwt>
<pdfrwt beam="2">  1       -2 0.31979321E-01 0.77946293E+03</pdfrwt>
<totfact> 0.20492217E+01</totfact>
</mgrwt>
</event>
<event>
 4    1  0.8645356E-007  0.7167199E+03  0.7818608E-02  0.9933845E-01
          2   -1    0    0  501    0  0.00000000000E+00  0.00000000000E+00  0.13542051915E+04  0.13542051915E+04  0.25500000000E-02 0. -1.
         -2   -1    0    0    0  501 -0.00000000000E+00 -0.00000000000E+00 -0.37810414380E+03  0.37810414381E+03  0.25500000000E-02 0.  1.
    8880023    1    1    2    0    0 -0.27249096638E+03  0.75006223881E+02  0.12814877495E+02  0.71683449117E+03  0.65864270000E+03 0.  1.
    8880022    1    1    2    0    0  0.27249096638E+03 -0.75006223881E+02  0.96328617019E+03  0.10154748441E+04  0.15294330000E+03 0.  0.
<mgrwt>
<rscale>  0 0.58648690E+03</rscale>
<asrwt>0</asrwt>
<pdfrwt beam="1">  1        2 0.20833926E+00 0.71671994E+03</pdfrwt>
<pdfrwt beam="2">  1       -2 0.58169868E-01 0.71671994E+03</pdfrwt>
<totfact> 0.43518047E+01</totfact>
</mgrwt>
</event>
<event>
 4    1  0.8645356E-007  0.6858910E+03  0.7818608E-02  0.1006170E+00
          2   -1    0    0  501    0  0.00000000000E+00  0.00000000000E+00  0.92507943445E+03  0.92507943445E+03  0.25500000000E-02 0. -1.
         -2   -1    0    0    0  501 -0.00000000000E+00 -0.00000000000E+00 -0.41313788415E+03  0.41313788416E+03  0.25500000000E-02 0.  1.
    8880023    1    1    2    0    0  0.84771480393E+01 -0.19121803728E+03 -0.86728830575E+02  0.69135251221E+03  0.65864270000E+03 0.  0.
    8880022    1    1    2    0    0 -0.84771480393E+01  0.19121803728E+03  0.59867038087E+03  0.64686480640E+03  0.15294330000E+03 0.  0.
<mgrwt>
<rscale>  0 0.53025578E+03</rscale>
<asrwt>0</asrwt>
<pdfrwt beam="1">  1        2 0.14231991E+00 0.68589096E+03</pdfrwt>
<pdfrwt beam="2">  1       -2 0.63559675E-01 0.68589096E+03</pdfrwt>
<totfact> 0.65875905E+01</totfact>
</mgrwt>
</event>
<event>
 4    1  0.8645356E-007  0.7590497E+03  0.7818608E-02  0.9807574E-01
          2   -1    0    0  501    0  0.00000000000E+00  0.00000000000E+00  0.75292654667E+03  0.75292654667E+03  0.25500000000E-02 0. -1.
         -2   -1    0    0    0  501 -0.00000000000E+00 -0.00000000000E+00 -0.80217633619E+03  0.80217633619E+03  0.25500000000E-02 0.  1.
    8880023    1    1    2    0    0 -0.30251987655E+03 -0.22545052255E+03 -0.52952242746E+03  0.92550009253E+03  0.65864270000E+03 0.  0.
    8880022    1    1    2    0    0  0.30251987655E+03  0.22545052255E+03  0.48027263794E+03  0.62960279033E+03  0.15294330000E+03 0.  0.
<mgrwt>
<rscale>  0 0.64957660E+03</rscale>
<asrwt>0</asrwt>
<pdfrwt beam="1">  1        2 0.11583485E+00 0.75904968E+03</pdfrwt>
<pdfrwt beam="2">  1       -2 0.12341174E+00 0.75904968E+03</pdfrwt>
<totfact> 0.18721431E+01</totfact>
</mgrwt>
</event>
<event>
 4    1  0.8645356E-007  0.6698178E+03  0.7818608E-02  0.1015794E+00
         -2   -1    0    0    0  501 -0.00000000000E+00  0.00000000000E+00  0.62918617967E+03  0.62918617967E+03  0.25500000000E-02 0.  1.
          2   -1    0    0  501    0  0.00000000000E+00 -0.00000000000E+00 -0.18865352259E+04  0.18865352259E+04  0.25500000000E-02 0. -1.
    8880023    1    1    2    0    0  0.75237422092E+02  0.95838532050E+02  0.44371541833E+03  0.80345458654E+03  0.65864270000E+03 0.  1.
    8880022    1    1    2    0    0 -0.75237422092E+02 -0.95838532050E+02 -0.17010644646E+04  0.17122668191E+04  0.15294330000E+03 0.  0.
<mgrwt>
<rscale>  0 0.49235515E+03</rscale>
<asrwt>0</asrwt>
<pdfrwt beam="1">  1        2 0.29023619E+00 0.66981781E+03</pdfrwt>
<pdfrwt beam="2">  1       -2 0.96797875E-01 0.66981781E+03</pdfrwt>
<totfact> 0.72125454E+00</totfact>
</mgrwt>
</event>
<event>
 4    1  0.8645356E-007  0.6692882E+03  0.7818608E-02  0.1016178E+00
         -2   -1    0    0    0  501 -0.00000000000E+00  0.00000000000E+00  0.11814156709E+04  0.11814156709E+04  0.25500000000E-02 0.  1.
          2   -1    0    0  501    0  0.00000000000E+00 -0.00000000000E+00 -0.17734006063E+03  0.17734006064E+03  0.25500000000E-02 0. -1.
    8880023    1    1    2    0    0 -0.11882372922E+03  0.41768651313E+01  0.94155734423E+03  0.11551956387E+04  0.65864270000E+03 0.  1.
    8880022    1    1    2    0    0  0.11882372922E+03 -0.41768651313E+01  0.62518266091E+02  0.20356009294E+03  0.15294330000E+03 0.  0.
<mgrwt>
<rscale>  0 0.49091305E+03</rscale>
<asrwt>0</asrwt>
<pdfrwt beam="1">  1        2 0.27283087E-01 0.66928823E+03</pdfrwt>
<pdfrwt beam="2">  1       -2 0.18175625E+00 0.66928823E+03</pdfrwt>
<totfact> 0.35638373E+01</totfact>
</mgrwt>
</event>
<event>
 4    1  0.9192078E-007  0.7452072E+03  0.7818608E-02  0.9845030E-01
          2   -1    0    0  501    0  0.00000000000E+00  0.00000000000E+00  0.17400457035E+04  0.17400457035E+04  0.25500000000E-02 0. -1.
         -2   -1    0    0    0  501 -0.00000000000E+00 -0.00000000000E+00 -0.62721799331E+03  0.62721799332E+03  0.25500000000E-02 0.  1.
    8880023    1    1    2    0    0  0.31396571584E+03  0.15148958795E+03 -0.37307121365E+03  0.83337620718E+03  0.65864270000E+03 0.  1.
    8880022    1    1    2    0    0 -0.31396571584E+03 -0.15148958795E+03  0.14858989238E+04  0.15338874896E+04  0.15294330000E+03 0.  0.
<mgrwt>
<rscale>  0 0.63000940E+03</rscale>
<asrwt>0</asrwt>
<pdfrwt beam="1">  1        2 0.26769933E+00 0.74520720E+03</pdfrwt>
<pdfrwt beam="2">  1       -2 0.96495078E-01 0.74520720E+03</pdfrwt>
<totfact> 0.86248618E+00</totfact>
</mgrwt>
</event>
<event>
 4    1  0.8645356E-007  0.6979576E+03  0.7818608E-02  0.1000578E+00
          2   -1    0    0  501    0  0.00000000000E+00  0.00000000000E+00  0.26739251739E+04  0.26739251739E+04  0.25500000000E-02 0. -1.
         -2   -1    0    0    0  501 -0.00000000000E+00 -0.00000000000E+00 -0.11374584409E+03  0.11374584412E+03  0.25500000000E-02 0.  1.
    8880023    1    1    2    0    0  0.28077940746E+02  0.22922974898E+03  0.11094488576E+04  0.13107332385E+04  0.65864270000E+03 0.  0.
    8880022    1    1    2    0    0 -0.28077940746E+02 -0.22922974898E+03  0.14507304722E+04  0.14769377795E+04  0.15294330000E+03 0.  0.
<mgrwt>
<rscale>  0 0.55397457E+03</rscale>
<asrwt>0</asrwt>
<pdfrwt beam="1">  1        2 0.41137307E+00 0.69795763E+03</pdfrwt>
<pdfrwt beam="2">  1       -2 0.17499362E-01 0.69795763E+03</pdfrwt>
<totfact> 0.77890270E+01</totfact>
</mgrwt>
</event>
<event>
 4    1  0.8645356E-007  0.1105738E+04  0.7818608E-02  0.9254695E-01
         -2   -1    0    0    0  501 -0.00000000000E+00  0.00000000000E+00  0.20502415772E+04  0.20502415772E+04  0.25500000000E-02 0.  1.
          2   -1    0    0  501    0  0.00000000000E+00 -0.00000000000E+00 -0.86931765289E+03  0.86931765289E+03  0.25500000000E-02 0. -1.
    8880023    1    1    2    0    0 -0.21174624305E+03 -0.86255975591E+03  0.15844252193E+04  0.19321126483E+04  0.65864270000E+03 0.  1.
    8880022    1    1    2    0    0  0.21174624305E+03  0.86255975591E+03 -0.40350129493E+03  0.98744658184E+03  0.15294330000E+03 0.  0.
<mgrwt>
<rscale>  0 0.10506292E+04</rscale>
<asrwt>0</asrwt>
<pdfrwt beam="1">  1        2 0.13374118E+00 0.11057378E+04</pdfrwt>
<pdfrwt beam="2">  1       -2 0.31542178E+00 0.11057378E+04</pdfrwt>
<totfact> 0.78040943E-01</totfact>
</mgrwt>
</event>
<event>
 4    1  0.8645356E-007  0.7599084E+03  0.7818608E-02  0.9805345E-01
         -2   -1    0    0    0  501 -0.00000000000E+00  0.00000000000E+00  0.60797723608E+03  0.60797723609E+03  0.25500000000E-02 0.  1.
          2   -1    0    0  501    0  0.00000000000E+00 -0.00000000000E+00 -0.10055334991E+04  0.10055334991E+04  0.25500000000E-02 0. -1.
    8880023    1    1    2    0    0 -0.37866110077E+03  0.16318879283E+02  0.29023598318E+03  0.81344801140E+03  0.65864270000E+03 0.  0.
    8880022    1    1    2    0    0  0.37866110077E+03 -0.16318879283E+02 -0.68779224616E+03  0.80006272376E+03  0.15294330000E+03 0.  0.
<mgrwt>
<rscale>  0 0.65076501E+03</rscale>
<asrwt>0</asrwt>
<pdfrwt beam="1">  1        2 0.15469746E+00 0.75990838E+03</pdfrwt>
<pdfrwt beam="2">  1       -2 0.93534959E-01 0.75990838E+03</pdfrwt>
<totfact> 0.24516357E+01</totfact>
</mgrwt>
</event>
<event>
 4    1  0.8645356E-007  0.7222904E+03  0.7818608E-02  0.9914911E-01
         -2   -1    0    0    0  501 -0.00000000000E+00  0.00000000000E+00  0.62184267336E+03  0.62184267337E+03  0.25500000000E-02 0.  1.
          2   -1    0    0  501    0  0.00000000000E+00 -0.00000000000E+00 -0.29519043715E+04  0.29519043715E+04  0.25500000000E-02 0. -1.
    8880023    1    1    2    0    0 -0.28496836840E+03  0.81769853672E+02  0.39845979545E+03  0.82490829479E+03  0.65864270000E+03 0.  1.
    8880022    1    1    2    0    0  0.28496836840E+03 -0.81769853672E+02 -0.27285214936E+04  0.27488387501E+04  0.15294330000E+03 0.  0.
<mgrwt>
<rscale>  0 0.59544061E+03</rscale>
<asrwt>0</asrwt>
<pdfrwt beam="1">  1        2 0.45413913E+00 0.72229044E+03</pdfrwt>
<pdfrwt beam="2">  1       -2 0.95668105E-01 0.72229044E+03</pdfrwt>
<totfact> 0.18341765E+00</totfact>
</mgrwt>
</event>
<event>
 4    1  0.9091052E-007  0.8982700E+03  0.7818608E-02  0.9528815E-01
         -2   -1    0    0    0  501 -0.00000000000E+00  0.00000000000E+00  0.55621395839E+03  0.55621395839E+03  0.25500000000E-02 0.  1.
          2   -1    0    0  501    0  0.00000000000E+00 -0.00000000000E+00 -0.26673439260E+04  0.26673439260E+04  0.25500000000E-02 0. -1.
    8880023    1    1    2    0    0 -0.37098904840E+03  0.48522764155E+03  0.11911387276E+03  0.90613302506E+03  0.65864270000E+03 0.  1.
    8880022    1    1    2    0    0  0.37098904840E+03 -0.48522764155E+03 -0.22302438403E+04  0.23174248593E+04  0.15294330000E+03 0.  0.
<mgrwt>
<rscale>  0 0.82192371E+03</rscale>
<asrwt>0</asrwt>
<pdfrwt beam="1">  1        2 0.41036060E+00 0.89826997E+03</pdfrwt>
<pdfrwt beam="2">  1       -2 0.85571379E-01 0.89826997E+03</pdfrwt>
<totfact> 0.33896109E+00</totfact>
</mgrwt>
</event>
<event>
 4    1  0.8645356E-007  0.7039011E+03  0.7818608E-02  0.9981387E-01
         -2   -1    0    0    0  501 -0.00000000000E+00  0.00000000000E+00  0.28811672437E+03  0.28811672439E+03  0.25500000000E-02 0.  1.
          2   -1    0    0  501    0  0.00000000000E+00 -0.00000000000E+00 -0.92606835846E+03  0.92606835846E+03  0.25500000000E-02 0. -1.
    8880023    1    1    2    0    0 -0.18265369471E+03 -0.16823834769E+03 -0.59032798476E+03  0.91867505119E+03  0.65864270000E+03 0.  0.
    8880022    1    1    2    0    0  0.18265369471E+03  0.16823834769E+03 -0.47623649328E+02  0.29551003166E+03  0.15294330000E+03 0.  0.
<mgrwt>
<rscale>  0 0.56473957E+03</rscale>
<asrwt>0</asrwt>
<pdfrwt beam="1">  1        2 0.14247205E+00 0.70390107E+03</pdfrwt>
<pdfrwt beam="2">  1       -2 0.44325650E-01 0.70390107E+03</pdfrwt>
<totfact> 0.13794310E+02</totfact>
</mgrwt>
</event>
<event>
 4    1  0.9043950E-007  0.6692435E+03  0.7818608E-02  0.1016211E+00
          2   -1    0    0  501    0  0.00000000000E+00  0.00000000000E+00  0.13522904871E+04  0.13522904871E+04  0.25500000000E-02 0. -1.
         -2   -1    0    0    0  501 -0.00000000000E+00 -0.00000000000E+00 -0.53218090131E+03  0.53218090132E+03  0.25500000000E-02 0.  1.
    8880023    1    1    2    0    0  0.68211279879E+01 -0.11844857905E+03 -0.31024874839E+03  0.73765919354E+03  0.65864270000E+03 0.  1.
    8880022    1    1    2    0    0 -0.68211279879E+01  0.11844857905E+03  0.11303583342E+04  0.11468121949E+04  0.15294330000E+03 0.  0.
<mgrwt>
<rscale>  0 0.49079036E+03</rscale>
<asrwt>0</asrwt>
<pdfrwt beam="1">  1        2 0.20804469E+00 0.66924345E+03</pdfrwt>
<pdfrwt beam="2">  1       -2 0.81873984E-01 0.66924345E+03</pdfrwt>
<totfact> 0.20863159E+01</totfact>
</mgrwt>
</event>
<event>
 4    1  0.8645356E-007  0.8394251E+03  0.7818608E-02  0.9631265E-01
          2   -1    0    0  501    0  0.00000000000E+00  0.00000000000E+00  0.17347241055E+04  0.17347241055E+04  0.25500000000E-02 0. -1.
         -2   -1    0    0    0  501 -0.00000000000E+00 -0.00000000000E+00 -0.27888038918E+03  0.27888038919E+03  0.25500000000E-02 0.  1.
    8880023    1    1    2    0    0 -0.40645153460E+03 -0.32499454729E+03  0.99551403201E+03  0.13021838196E+04  0.65864270000E+03 0.  0.
    8880022    1    1    2    0    0  0.40645153460E+03  0.32499454729E+03  0.46032968433E+03  0.71142067516E+03  0.15294330000E+03 0.  1.
<mgrwt>
<rscale>  0 0.75260958E+03</rscale>
<asrwt>0</asrwt>
<pdfrwt beam="1">  1        2 0.26688063E+00 0.83942511E+03</pdfrwt>
<pdfrwt beam="2">  1       -2 0.42904675E-01 0.83942511E+03</pdfrwt>
<totfact> 0.49070141E+01</totfact>
</mgrwt>
</event>
<event>
 4    1  0.8645356E-007  0.7395269E+03  0.7818608E-02  0.9861327E-01
          2   -1    0    0  501    0  0.00000000000E+00  0.00000000000E+00  0.23983293057E+04  0.23983293057E+04  0.25500000000E-02 0. -1.
         -2   -1    0    0    0  501 -0.00000000000E+00 -0.00000000000E+00 -0.69193302093E+03  0.69193302094E+03  0.25500000000E-02 0.  1.
    8880023    1    1    2    0    0  0.23570725304E+03  0.23985823202E+03 -0.47425958519E+03  0.87853414334E+03  0.65864270000E+03 0.  1.
    8880022    1    1    2    0    0 -0.23570725304E+03 -0.23985823202E+03  0.21806558699E+04  0.22117281833E+04  0.15294330000E+03 0.  0.
<mgrwt>
<rscale>  0 0.62172701E+03</rscale>
<asrwt>0</asrwt>
<pdfrwt beam="1">  1        2 0.36897374E+00 0.73952693E+03</pdfrwt>
<pdfrwt beam="2">  1       -2 0.10645124E+00 0.73952693E+03</pdfrwt>
<totfact> 0.29735872E+00</totfact>
</mgrwt>
</event>
<event>
 4    1  0.8645356E-007  0.1335485E+04  0.7818608E-02  0.9035506E-01
         -2   -1    0    0    0  501 -0.00000000000E+00  0.00000000000E+00  0.49063176582E+03  0.49063176583E+03  0.25500000000E-02 0.  1.
          2   -1    0    0  501    0  0.00000000000E+00 -0.00000000000E+00 -0.42658724530E+04  0.42658724530E+04  0.25500000000E-02 0. -1.
    8880023    1    1    2    0    0 -0.10760032764E+04  0.43809474047E+03 -0.31652414601E+04  0.34354437500E+04  0.65864270000E+03 0.  0.
    8880022    1    1    2    0    0  0.10760032764E+04 -0.43809474047E+03 -0.60999922716E+03  0.13210604689E+04  0.15294330000E+03 0.  0.
<mgrwt>
<rscale>  0 0.12925344E+04</rscale>
<asrwt>0</asrwt>
<pdfrwt beam="1">  1        2 0.65628804E+00 0.13354850E+04</pdfrwt>
<pdfrwt beam="2">  1       -2 0.75481813E-01 0.13354850E+04</pdfrwt>
<totfact> 0.32158343E-01</totfact>
</mgrwt>
</event>
<event>
 4    1  0.8645356E-007  0.6853500E+03  0.7818608E-02  0.1006446E+00
         -2   -1    0    0    0  501 -0.00000000000E+00  0.00000000000E+00  0.67704833936E+03  0.67704833937E+03  0.25500000000E-02 0.  1.
          2   -1    0    0  501    0  0.00000000000E+00 -0.00000000000E+00 -0.37957393876E+03  0.37957393877E+03  0.25500000000E-02 0. -1.
    8880023    1    1    2    0    0  0.13697025500E+03  0.13089549516E+03  0.39875275794E+03  0.79291137565E+03  0.65864270000E+03 0.  1.
    8880022    1    1    2    0    0 -0.13697025500E+03 -0.13089549516E+03 -0.10127835733E+03  0.26371090248E+03  0.15294330000E+03 0.  0.
<mgrwt>
<rscale>  0 0.52911915E+03</rscale>
<asrwt>0</asrwt>
<pdfrwt beam="1">  1        2 0.58395991E-01 0.68535005E+03</pdfrwt>
<pdfrwt beam="2">  1       -2 0.10416128E+00 0.68535005E+03</pdfrwt>
<totfact> 0.64145541E+01</totfact>
</mgrwt>
</event>
<event>
 4    1  0.8645356E-007  0.8011860E+03  0.7818608E-02  0.9708238E-01
         -2   -1    0    0    0  501 -0.00000000000E+00  0.00000000000E+00  0.82266699490E+03  0.82266699490E+03  0.25500000000E-02 0.  1.
          2   -1    0    0  501    0  0.00000000000E+00 -0.00000000000E+00 -0.70798772910E+03  0.70798772910E+03  0.25500000000E-02 0. -1.
    8880023    1    1    2    0    0  0.38746923374E+03  0.24074134648E+03  0.47333294805E+03  0.93056063154E+03  0.65864270000E+03 0.  1.
    8880022    1    1    2    0    0 -0.38746923374E+03 -0.24074134648E+03 -0.35865368225E+03  0.60009409246E+03  0.15294330000E+03 0.  0.
<mgrwt>
<rscale>  0 0.70528445E+03</rscale>
<asrwt>0</asrwt>
<pdfrwt beam="1">  1        2 0.10892119E+00 0.80118600E+03</pdfrwt>
<pdfrwt beam="2">  1       -2 0.12656415E+00 0.80118600E+03</pdfrwt>
<totfact> 0.18942606E+01</totfact>
</mgrwt>
</event>
<event>
 4    1  0.8645356E-007  0.6623476E+03  0.7818608E-02  0.1021871E+00
         -2   -1    0    0    0  501 -0.00000000000E+00  0.00000000000E+00  0.97003381187E+03  0.97003381187E+03  0.25500000000E-02 0.  1.
          2   -1    0    0  501    0  0.00000000000E+00 -0.00000000000E+00 -0.28324446200E+03  0.28324446201E+03  0.25500000000E-02 0. -1.
    8880023    1    1    2    0    0  0.48352383984E+02 -0.50558157335E+02  0.80887235434E+03  0.10454562507E+04  0.65864270000E+03 0.  0.
    8880022    1    1    2    0    0 -0.48352383984E+02  0.50558157335E+02 -0.12208300448E+03  0.20782202315E+03  0.15294330000E+03 0. -1.
<mgrwt>
<rscale>  0 0.47017592E+03</rscale>
<asrwt>0</asrwt>
<pdfrwt beam="1">  1        2 0.43576071E-01 0.66234756E+03</pdfrwt>
<pdfrwt beam="2">  1       -2 0.14923597E+00 0.66234756E+03</pdfrwt>
<totfact> 0.36181514E+01</totfact>
</mgrwt>
</event>
<event>
 4    1  0.8645356E-007  0.7885725E+03  0.7818608E-02  0.9736072E-01
         -2   -1    0    0    0  501 -0.00000000000E+00  0.00000000000E+00  0.70201016432E+03  0.70201016432E+03  0.25500000000E-02 0.  1.
          2   -1    0    0  501    0  0.00000000000E+00 -0.00000000000E+00 -0.14033782831E+04  0.14033782831E+04  0.25500000000E-02 0. -1.
    8880023    1    1    2    0    0 -0.37368121678E+03  0.21999705712E+03  0.41997307369E+03  0.89343379486E+03  0.65864270000E+03 0.  1.
    8880022    1    1    2    0    0  0.37368121678E+03 -0.21999705712E+03 -0.11213411925E+04  0.12119546526E+04  0.15294330000E+03 0.  0.
<mgrwt>
<rscale>  0 0.68909092E+03</rscale>
<asrwt>0</asrwt>
<pdfrwt beam="1">  1        2 0.21590435E+00 0.78857248E+03</pdfrwt>
<pdfrwt beam="2">  1       -2 0.10800156E+00 0.78857248E+03</pdfrwt>
<totfact> 0.10071714E+01</totfact>
</mgrwt>
</event>
<event>
 4    1  0.8645356E-007  0.6890233E+03  0.7818608E-02  0.1004620E+00
          2   -1    0    0  501    0  0.00000000000E+00  0.00000000000E+00  0.11684967316E+04  0.11684967316E+04  0.25500000000E-02 0. -1.
         -2   -1    0    0    0  501 -0.00000000000E+00 -0.00000000000E+00 -0.27090189265E+03  0.27090189266E+03  0.25500000000E-02 0.  1.
    8880023    1    1    2    0    0  0.14428578758E+03 -0.14186100019E+03  0.23187048512E+03  0.72699178813E+03  0.65864270000E+03 0.  1.
    8880022    1    1    2    0    0 -0.14428578758E+03  0.14186100019E+03  0.66572435383E+03  0.71240683613E+03  0.15294330000E+03 0.  0.
<mgrwt>
<rscale>  0 0.53669927E+03</rscale>
<asrwt>0</asrwt>
<pdfrwt beam="1">  1        2 0.17976873E+00 0.68902332E+03</pdfrwt>
<pdfrwt beam="2">  1       -2 0.41677214E-01 0.68902332E+03</pdfrwt>
<totfact> 0.11002488E+02</totfact>
</mgrwt>
</event>
<event>
 4    1  0.8645356E-007  0.1115422E+04  0.7818608E-02  0.9244076E-01
         -2   -1    0    0    0  501 -0.00000000000E+00  0.00000000000E+00  0.92635950882E+03  0.92635950883E+03  0.25500000000E-02 0.  1.
          2   -1    0    0  501    0  0.00000000000E+00 -0.00000000000E+00 -0.12273967390E+04  0.12273967390E+04  0.25500000000E-02 0. -1.
    8880023    1    1    2    0    0 -0.40805664302E+03 -0.80240056879E+03  0.16673107333E+03  0.11278148579E+04  0.65864270000E+03 0.  1.
    8880022    1    1    2    0    0  0.40805664302E+03  0.80240056879E+03 -0.46776830351E+03  0.10259413899E+04  0.15294330000E+03 0.  0.
<mgrwt>
<rscale>  0 0.10609842E+04</rscale>
<asrwt>0</asrwt>
<pdfrwt beam="1">  1        2 0.18883027E+00 0.11154224E+04</pdfrwt>
<pdfrwt beam="2">  1       -2 0.14251685E+00 0.11154224E+04</pdfrwt>
<totfact> 0.61336571E+00</totfact>
</mgrwt>
</event>
<event>
 4    1  0.8645356E-007  0.8446174E+03  0.7818608E-02  0.9621534E-01
          2   -1    0    0  501    0  0.00000000000E+00  0.00000000000E+00  0.18081347173E+04  0.18081347173E+04  0.25500000000E-02 0. -1.
         -2   -1    0    0    0  501 -0.00000000000E+00 -0.00000000000E+00 -0.42937405757E+03  0.42937405757E+03  0.25500000000E-02 0.  1.
    8880023    1    1    2    0    0  0.41098399225E+03 -0.33265675796E+03  0.10652152031E+03  0.85130805297E+03  0.65864270000E+03 0.  0.
    8880022    1    1    2    0    0 -0.41098399225E+03  0.33265675796E+03  0.12722391395E+04  0.13862007219E+04  0.15294330000E+03 0.  0.
<mgrwt>
<rscale>  0 0.75887140E+03</rscale>
<asrwt>0</asrwt>
<pdfrwt beam="1">  1        2 0.27817457E+00 0.84461741E+03</pdfrwt>
<pdfrwt beam="2">  1       -2 0.66057547E-01 0.84461741E+03</pdfrwt>
<totfact> 0.18327698E+01</totfact>
</mgrwt>
</event>
<event>
 4    1  0.8645356E-007  0.6652363E+03  0.7818608E-02  0.1019336E+00
         -2   -1    0    0    0  501 -0.00000000000E+00  0.00000000000E+00  0.13091625418E+04  0.13091625419E+04  0.25500000000E-02 0.  1.
          2   -1    0    0  501    0  0.00000000000E+00 -0.00000000000E+00 -0.19005335328E+03  0.19005335329E+03  0.25500000000E-02 0. -1.
    8880023    1    1    2    0    0  0.40632660825E+02  0.84131734688E+02  0.11388510568E+04  0.13189090559E+04  0.65864270000E+03 0.  1.
    8880022    1    1    2    0    0 -0.40632660825E+02 -0.84131734688E+02 -0.19741868209E+02  0.18030683926E+03  0.15294330000E+03 0.  0.
<mgrwt>
<rscale>  0 0.47927005E+03</rscale>
<asrwt>0</asrwt>
<pdfrwt beam="1">  1        2 0.29238978E-01 0.66523633E+03</pdfrwt>
<pdfrwt beam="2">  1       -2 0.20140962E+00 0.66523633E+03</pdfrwt>
<totfact> 0.24418375E+01</totfact>
</mgrwt>
</event>
<event>
 4    1  0.8645356E-007  0.8490114E+03  0.7818608E-02  0.9613417E-01
          2   -1    0    0  501    0  0.00000000000E+00  0.00000000000E+00  0.22760158687E+04  0.22760158687E+04  0.25500000000E-02 0. -1.
         -2   -1    0    0    0  501 -0.00000000000E+00 -0.00000000000E+00 -0.62885314986E+03  0.62885314986E+03  0.25500000000E-02 0.  1.
    8880023    1    1    2    0    0  0.11409142429E+03 -0.52344363355E+03 -0.28376035457E+03  0.89517609200E+03  0.65864270000E+03 0.  0.
    8880022    1    1    2    0    0 -0.11409142429E+03  0.52344363355E+03  0.19309230734E+04  0.20096929265E+04  0.15294330000E+03 0.  0.
<mgrwt>
<rscale>  0 0.76414477E+03</rscale>
<asrwt>0</asrwt>
<pdfrwt beam="1">  1        2 0.35015629E+00 0.84901136E+03</pdfrwt>
<pdfrwt beam="2">  1       -2 0.96746638E-01 0.84901136E+03</pdfrwt>
<totfact> 0.42883979E+00</totfact>
</mgrwt>
</event>
<event>
 4    1  0.8645356E-007  0.7320376E+03  0.7818608E-02  0.9883779E-01
          2   -1    0    0  501    0  0.00000000000E+00  0.00000000000E+00  0.52152805545E+03  0.52152805546E+03  0.25500000000E-02 0. -1.
         -2   -1    0    0    0  501 -0.00000000000E+00 -0.00000000000E+00 -0.65093836829E+03  0.65093836830E+03  0.25500000000E-02 0.  1.
    8880023    1    1    2    0    0  0.27490619431E+03 -0.16277422382E+03 -0.28504752178E+03  0.78557695966E+03  0.65864270000E+03 0. -1.
    8880022    1    1    2    0    0 -0.27490619431E+03  0.16277422382E+03  0.15563720894E+03  0.38688946410E+03  0.15294330000E+03 0.  0.
<mgrwt>
<rscale>  0 0.61053903E+03</rscale>
<asrwt>0</asrwt>
<pdfrwt beam="1">  1        2 0.80235085E-01 0.73203762E+03</pdfrwt>
<pdfrwt beam="2">  1       -2 0.10014436E+00 0.73203762E+03</pdfrwt>
<totfact> 0.48885526E+01</totfact>
</mgrwt>
</event>
<event>
 4    1  0.8645356E-007  0.7733786E+03  0.7818608E-02  0.9771627E-01
         -2   -1    0    0    0  501 -0.00000000000E+00  0.00000000000E+00  0.62668041913E+03  0.62668041913E+03  0.25500000000E-02 0.  1.
          2   -1    0    0  501    0  0.00000000000E+00 -0.00000000000E+00 -0.66881459834E+03  0.66881459835E+03  0.25500000000E-02 0. -1.
    8880023    1    1    2    0    0  0.40332802555E+03 -0.40382189295E+02  0.20049146956E+03  0.79894383597E+03  0.65864270000E+03 0.  0.
    8880022    1    1    2    0    0 -0.40332802555E+03  0.40382189295E+02 -0.24262564877E+03  0.49655118151E+03  0.15294330000E+03 0.  0.
<mgrwt>
<rscale>  0 0.66907676E+03</rscale>
<asrwt>0</asrwt>
<pdfrwt beam="1">  1        2 0.10289455E+00 0.77337858E+03</pdfrwt>
<pdfrwt beam="2">  1       -2 0.96412372E-01 0.77337858E+03</pdfrwt>
<totfact> 0.39502112E+01</totfact>
</mgrwt>
</event>
<event>
 4    1  0.8645356E-007  0.7492428E+03  0.7818608E-02  0.9833798E-01
         -2   -1    0    0    0  501 -0.00000000000E+00  0.00000000000E+00  0.60899505046E+03  0.60899505046E+03  0.25500000000E-02 0.  1.
          2   -1    0    0  501    0  0.00000000000E+00 -0.00000000000E+00 -0.62712192295E+03  0.62712192295E+03  0.25500000000E-02 0. -1.
    8880023    1    1    2    0    0  0.30831565134E+02  0.35581459199E+03  0.21944688296E+03  0.78071873936E+03  0.65864270000E+03 0.  0.
    8880022    1    1    2    0    0 -0.30831565134E+02 -0.35581459199E+03 -0.23757375545E+03  0.45539823405E+03  0.15294330000E+03 0.  0.
<mgrwt>
<rscale>  0 0.63579885E+03</rscale>
<asrwt>0</asrwt>
<pdfrwt beam="1">  1        2 0.96480296E-01 0.74924283E+03</pdfrwt>
<pdfrwt beam="2">  1       -2 0.93691546E-01 0.74924283E+03</pdfrwt>
<totfact> 0.45809497E+01</totfact>
</mgrwt>
</event>
<event>
 4    1  0.8645356E-007  0.7308876E+03  0.7818608E-02  0.9887333E-01
          2   -1    0    0  501    0  0.00000000000E+00  0.00000000000E+00  0.71229015402E+03  0.71229015403E+03  0.25500000000E-02 0. -1.
         -2   -1    0    0    0  501 -0.00000000000E+00 -0.00000000000E+00 -0.13409932250E+04  0.13409932250E+04  0.25500000000E-02 0.  1.
    8880023    1    1    2    0    0 -0.31612657989E+03 -0.21222841343E+02 -0.11866491371E+04  0.13936760040E+04  0.65864270000E+03 0.  1.
    8880022    1    1    2    0    0  0.31612657989E+03  0.21222841343E+02  0.55794606607E+03  0.65960737500E+03  0.15294330000E+03 0.  0.
<mgrwt>
<rscale>  0 0.60879124E+03</rscale>
<asrwt>0</asrwt>
<pdfrwt beam="1">  1        2 0.10958310E+00 0.73088756E+03</pdfrwt>
<pdfrwt beam="2">  1       -2 0.20630665E+00 0.73088756E+03</pdfrwt>
<totfact> 0.49678009E+00</totfact>
</mgrwt>
</event>
<event>
 4    1  0.8645356E-007  0.7068690E+03  0.7818608E-02  0.9969817E-01
          2   -1    0    0  501    0  0.00000000000E+00  0.00000000000E+00  0.10500978779E+04  0.10500978779E+04  0.25500000000E-02 0. -1.
         -2   -1    0    0    0  501 -0.00000000000E+00 -0.00000000000E+00 -0.54130917795E+03  0.54130917796E+03  0.25500000000E-02 0.  1.
    8880023    1    1    2    0    0 -0.18258867785E+02  0.25596913379E+03  0.87109845510E+03  0.11218183046E+04  0.65864270000E+03 0. -1.
    8880022    1    1    2    0    0  0.18258867785E+02 -0.25596913379E+03 -0.36230975512E+03  0.46958875133E+03  0.15294330000E+03 0.  0.
<mgrwt>
<rscale>  0 0.56993763E+03</rscale>
<asrwt>0</asrwt>
<pdfrwt beam="1">  1        2 0.16155352E+00 0.70686900E+03</pdfrwt>
<pdfrwt beam="2">  1       -2 0.83278335E-01 0.70686900E+03</pdfrwt>
<totfact> 0.30170017E+01</totfact>
</mgrwt>
</event>
<event>
 4    1  0.8645356E-007  0.9354782E+03  0.7818608E-02  0.9471323E-01
         -2   -1    0    0    0  501 -0.00000000000E+00  0.00000000000E+00  0.42915072644E+03  0.42915072645E+03  0.25500000000E-02 0.  1.
          2   -1    0    0  501    0  0.00000000000E+00 -0.00000000000E+00 -0.23798827050E+04  0.23798827050E+04  0.25500000000E-02 0. -1.
    8880023    1    1    2    0    0  0.59110945214E+03 -0.30314839314E+03 -0.23749214509E+03  0.96515390375E+03  0.65864270000E+03 0.  1.
    8880022    1    1    2    0    0 -0.59110945214E+03  0.30314839314E+03 -0.17132398335E+04  0.18438795277E+04  0.15294330000E+03 0.  0.
<mgrwt>
<rscale>  0 0.86431483E+03</rscale>
<asrwt>0</asrwt>
<pdfrwt beam="1">  1        2 0.36613579E+00 0.93547824E+03</pdfrwt>
<pdfrwt beam="2">  1       -2 0.66023190E-01 0.93547824E+03</pdfrwt>
<totfact> 0.87675074E+00</totfact>
</mgrwt>
</event>
<event>
 4    1  0.8645356E-007  0.1146957E+04  0.7818608E-02  0.9210492E-01
          2   -1    0    0  501    0  0.00000000000E+00  0.00000000000E+00  0.19241247737E+04  0.19241247737E+04  0.25500000000E-02 0. -1.
         -2   -1    0    0    0  501 -0.00000000000E+00 -0.00000000000E+00 -0.67595928213E+03  0.67595928214E+03  0.25500000000E-02 0.  1.
    8880023    1    1    2    0    0 -0.93716453770E+03 -0.58501771062E+02  0.16553384741E+03  0.11588405796E+04  0.65864270000E+03 0.  0.
    8880022    1    1    2    0    0  0.93716453770E+03  0.58501771062E+02  0.10826316442E+04  0.14412434763E+04  0.15294330000E+03 0.  0.
<mgrwt>
<rscale>  0 0.10945784E+04</rscale>
<asrwt>0</asrwt>
<pdfrwt beam="1">  1        2 0.29601919E+00 0.11469569E+04</pdfrwt>
<pdfrwt beam="2">  1       -2 0.10399374E+00 0.11469569E+04</pdfrwt>
<totfact> 0.54457424E+00</totfact>
</mgrwt>
</event>
<event>
 4    1  0.8645356E-007  0.6703819E+03  0.7818608E-02  0.1015391E+00
          2   -1    0    0  501    0  0.00000000000E+00  0.00000000000E+00  0.22123303205E+04  0.22123303205E+04  0.25500000000E-02 0. -1.
         -2   -1    0    0    0  501 -0.00000000000E+00 -0.00000000000E+00 -0.11423476023E+03  0.11423476026E+03  0.25500000000E-02 0.  1.
    8880023    1    1    2    0    0 -0.11028518702E+03  0.58641934904E+02  0.95660431845E+03  0.11681197402E+04  0.65864270000E+03 0.  1.
    8880022    1    1    2    0    0  0.11028518702E+03 -0.58641934904E+02  0.11414912419E+04  0.11584453406E+04  0.15294330000E+03 0.  0.
<mgrwt>
<rscale>  0 0.49387329E+03</rscale>
<asrwt>0</asrwt>
<pdfrwt beam="1">  1        2 0.34035849E+00 0.67038191E+03</pdfrwt>
<pdfrwt beam="2">  1       -2 0.17574580E-01 0.67038191E+03</pdfrwt>
<totfact> 0.14108275E+02</totfact>
</mgrwt>
</event>
<event>
 4    1  0.8645356E-007  0.6946204E+03  0.7818608E-02  0.1002029E+00
         -2   -1    0    0    0  501 -0.00000000000E+00  0.00000000000E+00  0.17279140778E+04  0.17279140778E+04  0.25500000000E-02 0.  1.
          2   -1    0    0  501    0  0.00000000000E+00 -0.00000000000E+00 -0.16622081143E+03  0.16622081145E+03  0.25500000000E-02 0. -1.
    8880023    1    1    2    0    0  0.20606056050E+03  0.78907347596E+02  0.14411984901E+04  0.15998595620E+04  0.65864270000E+03 0.  0.
    8880022    1    1    2    0    0 -0.20606056050E+03 -0.78907347596E+02  0.12049477629E+03  0.29427532725E+03  0.15294330000E+03 0.  0.
<mgrwt>
<rscale>  0 0.54769243E+03</rscale>
<asrwt>0</asrwt>
<pdfrwt beam="1">  1        2 0.25572431E-01 0.69462042E+03</pdfrwt>
<pdfrwt beam="2">  1       -2 0.26583295E+00 0.69462042E+03</pdfrwt>
<totfact> 0.11367668E+01</totfact>
</mgrwt>
</event>
<event>
 4    1  0.8645356E-007  0.6628389E+03  0.7818608E-02  0.1021420E+00
         -2   -1    0    0    0  501 -0.00000000000E+00  0.00000000000E+00  0.39856465908E+03  0.39856465909E+03  0.25500000000E-02 0.  1.
          2   -1    0    0  501    0  0.00000000000E+00 -0.00000000000E+00 -0.49557658571E+03  0.49557658572E+03  0.25500000000E-02 0. -1.
    8880023    1    1    2    0    0 -0.68374351990E+01  0.74151653022E+02  0.56186881171E+02  0.66521604765E+03  0.65864270000E+03 0.  1.
    8880022    1    1    2    0    0  0.68374351990E+01 -0.74151653022E+02 -0.15319880780E+03  0.22892519716E+03  0.15294330000E+03 0. -1.
<mgrwt>
<rscale>  0 0.47177774E+03</rscale>
<asrwt>0</asrwt>
<pdfrwt beam="1">  1        2 0.76242551E-01 0.66283891E+03</pdfrwt>
<pdfrwt beam="2">  1       -2 0.61317640E-01 0.66283891E+03</pdfrwt>
<totfact> 0.15609349E+02</totfact>
</mgrwt>
</event>
<event>
 4    1  0.8645356E-007  0.9226757E+03  0.7818608E-02  0.9490569E-01
          2   -1    0    0  501    0  0.00000000000E+00  0.00000000000E+00  0.97012036430E+03  0.97012036430E+03  0.25500000000E-02 0. -1.
         -2   -1    0    0    0  501 -0.00000000000E+00 -0.00000000000E+00 -0.11062212527E+04  0.11062212527E+04  0.25500000000E-02 0.  1.
    8880023    1    1    2    0    0  0.64614479542E+03  0.41342250856E+01 -0.73693247399E+03  0.11808470968E+04  0.65864270000E+03 0.  0.
    8880022    1    1    2    0    0 -0.64614479542E+03 -0.41342250856E+01  0.60083158560E+03  0.89549452022E+03  0.15294330000E+03 0.  0.
<mgrwt>
<rscale>  0 0.84982748E+03</rscale>
<asrwt>0</asrwt>
<pdfrwt beam="1">  1        2 0.14924929E+00 0.92267567E+03</pdfrwt>
<pdfrwt beam="2">  1       -2 0.17018788E+00 0.92267567E+03</pdfrwt>
<totfact> 0.55912088E+00</totfact>
</mgrwt>
</event>
<event>
 4    1  0.8645356E-007  0.8117642E+03  0.7818608E-02  0.9685914E-01
         -2   -1    0    0    0  501 -0.00000000000E+00  0.00000000000E+00  0.95430667239E+03  0.95430667239E+03  0.25500000000E-02 0.  1.
          2   -1    0    0  501    0  0.00000000000E+00 -0.00000000000E+00 -0.75632898403E+03  0.75632898403E+03  0.25500000000E-02 0. -1.
    8880023    1    1    2    0    0 -0.31754676051E+03  0.35258335049E+03  0.64826218403E+03  0.10388479338E+04  0.65864270000E+03 0.  1.
    8880022    1    1    2    0    0  0.31754676051E+03 -0.35258335049E+03 -0.45028449567E+03  0.67178772258E+03  0.15294330000E+03 0.  0.
<mgrwt>
<rscale>  0 0.71861709E+03</rscale>
<asrwt>0</asrwt>
<pdfrwt beam="1">  1        2 0.11635830E+00 0.81176423E+03</pdfrwt>
<pdfrwt beam="2">  1       -2 0.14681641E+00 0.81176423E+03</pdfrwt>
<totfact> 0.11869259E+01</totfact>
</mgrwt>
</event>
<event>
 4    1  0.8645356E-007  0.7964835E+03  0.7818608E-02  0.9718452E-01
         -2   -1    0    0    0  501 -0.00000000000E+00  0.00000000000E+00  0.34293779725E+03  0.34293779726E+03  0.25500000000E-02 0.  1.
          2   -1    0    0  501    0  0.00000000000E+00 -0.00000000000E+00 -0.24516333601E+04  0.24516333601E+04  0.25500000000E-02 0. -1.
    8880023    1    1    2    0    0 -0.38344794846E+03 -0.23139442898E+03 -0.19062189160E+03  0.81897657034E+03  0.65864270000E+03 0.  1.
    8880022    1    1    2    0    0  0.38344794846E+03  0.23139442898E+03 -0.19180736713E+04  0.19755945871E+04  0.15294330000E+03 0.  0.
<mgrwt>
<rscale>  0 0.69928734E+03</rscale>
<asrwt>0</asrwt>
<pdfrwt beam="1">  1        2 0.37717435E+00 0.79648347E+03</pdfrwt>
<pdfrwt beam="2">  1       -2 0.52759663E-01 0.79648347E+03</pdfrwt>
<totfact> 0.13071307E+01</totfact>
</mgrwt>
</event>
<event>
 4    1  0.8645356E-007  0.1233178E+04  0.7818608E-02  0.9125527E-01
         -2   -1    0    0    0  501 -0.00000000000E+00  0.00000000000E+00  0.14682354661E+04  0.14682354661E+04  0.25500000000E-02 0.  1.
          2   -1    0    0  501    0  0.00000000000E+00 -0.00000000000E+00 -0.16410358363E+04  0.16410358363E+04  0.25500000000E-02 0. -1.
    8880023    1    1    2    0    0 -0.27572079133E+03 -0.10054325391E+04  0.95953073431E+03  0.15625063141E+04  0.65864270000E+03 0.  0.
    8880022    1    1    2    0    0  0.27572079133E+03  0.10054325391E+04 -0.11323311046E+04  0.15467649882E+04  0.15294330000E+03 0.  0.
<mgrwt>
<rscale>  0 0.11856313E+04</rscale>
<asrwt>0</asrwt>
<pdfrwt beam="1">  1        2 0.25246705E+00 0.12331775E+04</pdfrwt>
<pdfrwt beam="2">  1       -2 0.22588238E+00 0.12331775E+04</pdfrwt>
<totfact> 0.92784879E-01</totfact>
</mgrwt>
</event>
<event>
 4    1  0.8645356E-007  0.8878530E+03  0.7818608E-02  0.9545820E-01
          2   -1    0    0  501    0  0.00000000000E+00  0.00000000000E+00  0.10022401555E+04  0.10022401555E+04  0.25500000000E-02 0. -1.
         -2   -1    0    0    0  501 -0.00000000000E+00 -0.00000000000E+00 -0.11016522335E+04  0.11016522335E+04  0.25500000000E-02 0.  1.
    8880023    1    1    2    0    0 -0.58543888207E+03 -0.10832370822E+03 -0.78354987802E+03  0.11841593339E+04  0.65864270000E+03 0.  1.
    8880022    1    1    2    0    0  0.58543888207E+03  0.10832370822E+03  0.68413780000E+03  0.91973305518E+03  0.15294330000E+03 0.  0.
<mgrwt>
<rscale>  0 0.80988394E+03</rscale>
<asrwt>0</asrwt>
<pdfrwt beam="1">  1        2 0.15419079E+00 0.88785298E+03</pdfrwt>
<pdfrwt beam="2">  1       -2 0.16948496E+00 0.88785298E+03</pdfrwt>
<totfact> 0.54124485E+00</totfact>
</mgrwt>
</event>
<event>
 4    1  0.8645356E-007  0.1585408E+04  0.7818608E-02  0.8851568E-01
          2   -1    0    0  501    0  0.00000000000E+00  0.00000000000E+00  0.41027830503E+04  0.41027830503E+04  0.25500000000E-02 0. -1.
         -2   -1    0    0    0  501 -0.00000000000E+00 -0.00000000000E+00 -0.66937679641E+03  0.66937679641E+03  0.25500000000E-02 0.  1.
    8880023    1    1    2    0    0 -0.10898656261E+04 -0.94440569063E+03  0.82378222514E+03  0.17866551296E+04  0.65864270000E+03 0.  0.
    8880022    1    1    2    0    0  0.10898656261E+04  0.94440569063E+03  0.26096240287E+04  0.29855047171E+04  0.15294330000E+03 0.  0.
<mgrwt>
<rscale>  0 0.15504699E+04</rscale>
<asrwt>0</asrwt>
<pdfrwt beam="1">  1        2 0.63119738E+00 0.15854083E+04</pdfrwt>
<pdfrwt beam="2">  1       -2 0.10298105E+00 0.15854083E+04</pdfrwt>
<totfact> 0.20825304E-01</totfact>
</mgrwt>
</event>
<event>
 4    1  0.8645356E-007  0.1547443E+04  0.7818608E-02  0.8876841E-01
         -2   -1    0    0    0  501 -0.00000000000E+00  0.00000000000E+00  0.10462548984E+04  0.10462548984E+04  0.25500000000E-02 0.  1.
          2   -1    0    0  501    0  0.00000000000E+00 -0.00000000000E+00 -0.24617173442E+04  0.24617173442E+04  0.25500000000E-02 0. -1.
    8880023    1    1    2    0    0 -0.84638337563E+03  0.11155295018E+04 -0.53135159222E+02  0.15483553983E+04  0.65864270000E+03 0.  0.
    8880022    1    1    2    0    0  0.84638337563E+03 -0.11155295018E+04 -0.13623272865E+04  0.19596168443E+04  0.15294330000E+03 0.  0.
<mgrwt>
<rscale>  0 0.15115003E+04</rscale>
<asrwt>0</asrwt>
<pdfrwt beam="1">  1        2 0.37872574E+00 0.15474434E+04</pdfrwt>
<pdfrwt beam="2">  1       -2 0.16096229E+00 0.15474434E+04</pdfrwt>
<totfact> 0.85221378E-01</totfact>
</mgrwt>
</event>
<event>
 4    1  0.8645356E-007  0.9111174E+03  0.7818608E-02  0.9508415E-01
         -2   -1    0    0    0  501 -0.00000000000E+00  0.00000000000E+00  0.17017620352E+04  0.17017620352E+04  0.25500000000E-02 0.  1.
          2   -1    0    0  501    0  0.00000000000E+00 -0.00000000000E+00 -0.44748175365E+03  0.44748175366E+03  0.25500000000E-02 0. -1.
    8880023    1    1    2    0    0 -0.61867598279E+03  0.11646790702E+03  0.11892268159E+04  0.14981306255E+04  0.65864270000E+03 0.  1.
    8880022    1    1    2    0    0  0.61867598279E+03 -0.11646790702E+03  0.65053465555E+02  0.65111316331E+03  0.15294330000E+03 0.  0.
<mgrwt>
<rscale>  0 0.83666240E+03</rscale>
<asrwt>0</asrwt>
<pdfrwt beam="1">  1        2 0.68843347E-01 0.91111742E+03</pdfrwt>
<pdfrwt beam="2">  1       -2 0.26180954E+00 0.91111742E+03</pdfrwt>
<totfact> 0.38509896E+00</totfact>
</mgrwt>
</event>
<event>
 4    1  0.8645356E-007  0.1010816E+04  0.7818608E-02  0.9367542E-01
         -2   -1    0    0    0  501 -0.00000000000E+00  0.00000000000E+00  0.34447555083E+03  0.34447555084E+03  0.25500000000E-02 0.  1.
          2   -1    0    0  501    0  0.00000000000E+00 -0.00000000000E+00 -0.29524463694E+04  0.29524463694E+04  0.25500000000E-02 0. -1.
    8880023    1    1    2    0    0 -0.21995821073E+03 -0.73454531162E+03 -0.68494761149E+03  0.12210249244E+04  0.65864270000E+03 0. -1.
    8880022    1    1    2    0    0  0.21995821073E+03  0.73454531162E+03 -0.19230232071E+04  0.20758969959E+04  0.15294330000E+03 0.  0.
<mgrwt>
<rscale>  0 0.94795669E+03</rscale>
<asrwt>0</asrwt>
<pdfrwt beam="1">  1        2 0.45422250E+00 0.10108158E+04</pdfrwt>
<pdfrwt beam="2">  1       -2 0.52996240E-01 0.10108158E+04</pdfrwt>
<totfact> 0.63876402E+00</totfact>
</mgrwt>
</event>
<event>
 4    1  0.8645356E-007  0.7431426E+03  0.7818608E-02  0.9850886E-01
          2   -1    0    0  501    0  0.00000000000E+00  0.00000000000E+00  0.23147413804E+04  0.23147413804E+04  0.25500000000E-02 0. -1.
         -2   -1    0    0    0  501 -0.00000000000E+00 -0.00000000000E+00 -0.55789649943E+03  0.55789649944E+03  0.25500000000E-02 0.  1.
    8880023    1    1    2    0    0  0.26507261307E+03  0.21951583542E+03 -0.28532151375E+03  0.79603345701E+03  0.65864270000E+03 0.  1.
    8880022    1    1    2    0    0 -0.26507261307E+03 -0.21951583542E+03  0.20421663947E+04  0.20766044228E+04  0.15294330000E+03 0.  0.
<mgrwt>
<rscale>  0 0.62701777E+03</rscale>
<asrwt>0</asrwt>
<pdfrwt beam="1">  1        2 0.35611406E+00 0.74314258E+03</pdfrwt>
<pdfrwt beam="2">  1       -2 0.85830231E-01 0.74314258E+03</pdfrwt>
<totfact> 0.54794274E+00</totfact>
</mgrwt>
</event>
<event>
 4    1  0.8645356E-007  0.7779701E+03  0.7818608E-02  0.9760627E-01
          2   -1    0    0  501    0  0.00000000000E+00  0.00000000000E+00  0.17529551229E+04  0.17529551229E+04  0.25500000000E-02 0. -1.
         -2   -1    0    0    0  501 -0.00000000000E+00 -0.00000000000E+00 -0.22603586797E+03  0.22603586798E+03  0.25500000000E-02 0.  1.
    8880023    1    1    2    0    0 -0.31197091113E+03  0.27221577267E+03  0.72394390049E+03  0.10627004534E+04  0.65864270000E+03 0.  1.
    8880022    1    1    2    0    0  0.31197091113E+03 -0.27221577267E+03  0.80297535445E+03  0.91629053752E+03  0.15294330000E+03 0.  0.
<mgrwt>
<rscale>  0 0.67519011E+03</rscale>
<asrwt>0</asrwt>
<pdfrwt beam="1">  1        2 0.26968539E+00 0.77797010E+03</pdfrwt>
<pdfrwt beam="2">  1       -2 0.34774750E-01 0.77797010E+03</pdfrwt>
<totfact> 0.72539551E+01</totfact>
</mgrwt>
</event>
<event>
 4    1  0.8645356E-007  0.7288773E+03  0.7818608E-02  0.9893619E-01
         -2   -1    0    0    0  501 -0.00000000000E+00  0.00000000000E+00  0.85583458439E+03  0.85583458439E+03  0.25500000000E-02 0.  1.
          2   -1    0    0  501    0  0.00000000000E+00 -0.00000000000E+00 -0.86079426893E+03  0.86079426894E+03  0.25500000000E-02 0. -1.
    8880023    1    1    2    0    0 -0.29151944525E+03  0.11166138335E+03  0.64904798615E+03  0.97597404990E+03  0.65864270000E+03 0.  1.
    8880022    1    1    2    0    0  0.29151944525E+03 -0.11166138335E+03 -0.65400767070E+03  0.74065480343E+03  0.15294330000E+03 0.  0.
<mgrwt>
<rscale>  0 0.60571554E+03</rscale>
<asrwt>0</asrwt>
<pdfrwt beam="1">  1        2 0.13242989E+00 0.72887726E+03</pdfrwt>
<pdfrwt beam="2">  1       -2 0.13166686E+00 0.72887726E+03</pdfrwt>
<totfact> 0.13353933E+01</totfact>
</mgrwt>
</event>
<event>
 4    1  0.8645356E-007  0.7444459E+03  0.7818608E-02  0.9847181E-01
          2   -1    0    0  501    0  0.00000000000E+00  0.00000000000E+00  0.16831614714E+04  0.16831614714E+04  0.25500000000E-02 0. -1.
         -2   -1    0    0    0  501 -0.00000000000E+00 -0.00000000000E+00 -0.48401446428E+03  0.48401446428E+03  0.25500000000E-02 0.  1.
    8880023    1    1    2    0    0  0.26570284066E+03 -0.22313994440E+03 -0.15545471282E+03  0.76050365438E+03  0.65864270000E+03 0.  1.
    8880022    1    1    2    0    0 -0.26570284066E+03  0.22313994440E+03  0.13546017200E+04  0.14066722813E+04  0.15294330000E+03 0.  0.
<mgrwt>
<rscale>  0 0.62890864E+03</rscale>
<asrwt>0</asrwt>
<pdfrwt beam="1">  1        2 0.25894792E+00 0.74444586E+03</pdfrwt>
<pdfrwt beam="2">  1       -2 0.74463763E-01 0.74444586E+03</pdfrwt>
<totfact> 0.16720783E+01</totfact>
</mgrwt>
</event>
<event>
 4    1  0.8645356E-007  0.7132433E+03  0.7818608E-02  0.9946149E-01
         -2   -1    0    0    0  501 -0.00000000000E+00  0.00000000000E+00  0.13320004220E+04  0.13320004220E+04  0.25500000000E-02 0.  1.
          2   -1    0    0  501    0  0.00000000000E+00 -0.00000000000E+00 -0.64738952450E+03  0.64738952450E+03  0.25500000000E-02 0. -1.
    8880023    1    1    2    0    0  0.58450604937E+00 -0.27368850264E+03  0.11884022556E+04  0.13860071665E+04  0.65864270000E+03 0.  1.
    8880022    1    1    2    0    0 -0.58450604937E+00  0.27368850264E+03 -0.50379135810E+03  0.59338278003E+03  0.15294330000E+03 0.  0.
<mgrwt>
<rscale>  0 0.58075908E+03</rscale>
<asrwt>0</asrwt>
<pdfrwt beam="1">  1        2 0.99598390E-01 0.71324326E+03</pdfrwt>
<pdfrwt beam="2">  1       -2 0.20492314E+00 0.71324326E+03</pdfrwt>
<totfact> 0.57265685E+00</totfact>
</mgrwt>
</event>
<event>
 4    1  0.8645356E-007  0.7659892E+03  0.7818608E-02  0.9789842E-01
         -2   -1    0    0    0  501 -0.00000000000E+00  0.00000000000E+00  0.28533105228E+03  0.28533105229E+03  0.25500000000E-02 0.  1.
          2   -1    0    0  501    0  0.00000000000E+00 -0.00000000000E+00 -0.20985831674E+04  0.20985831674E+04  0.25500000000E-02 0. -1.
    8880023    1    1    2    0    0  0.32999893003E+03  0.20983333296E+03 -0.31551118812E+03  0.82842431008E+03  0.65864270000E+03 0.  0.
    8880022    1    1    2    0    0 -0.32999893003E+03 -0.20983333296E+03 -0.14977409270E+04  0.15554899096E+04  0.15294330000E+03 0.  0.
<mgrwt>
<rscale>  0 0.65910560E+03</rscale>
<asrwt>0</asrwt>
<pdfrwt beam="1">  1        2 0.32285894E+00 0.76598925E+03</pdfrwt>
<pdfrwt beam="2">  1       -2 0.43897086E-01 0.76598925E+03</pdfrwt>
<totfact> 0.29907801E+01</totfact>
</mgrwt>
</event>
<event>
 4    1  0.8645356E-007  0.1094762E+04  0.7818608E-02  0.9266910E-01
          2   -1    0    0  501    0  0.00000000000E+00  0.00000000000E+00  0.74241533352E+03  0.74241533353E+03  0.25500000000E-02 0. -1.
         -2   -1    0    0    0  501 -0.00000000000E+00 -0.00000000000E+00 -0.17357539501E+04  0.17357539501E+04  0.25500000000E-02 0.  1.
    8880023    1    1    2    0    0 -0.70561730789E+03 -0.51652574309E+03 -0.11375689958E+04  0.15787868934E+04  0.65864270000E+03 0.  0.
    8880022    1    1    2    0    0  0.70561730789E+03  0.51652574309E+03  0.14423037921E+03  0.89938239018E+03  0.15294330000E+03 0.  0.
<mgrwt>
<rscale>  0 0.10388710E+04</rscale>
<asrwt>0</asrwt>
<pdfrwt beam="1">  1        2 0.11421774E+00 0.10947625E+04</pdfrwt>
<pdfrwt beam="2">  1       -2 0.26703907E+00 0.10947625E+04</pdfrwt>
<totfact> 0.18995675E+00</totfact>
</mgrwt>
</event>
<event>
 4    1  0.8645356E-007  0.1158148E+04  0.7818608E-02  0.9198919E-01
         -2   -1    0    0    0  501 -0.00000000000E+00  0.00000000000E+00  0.11532949692E+04  0.11532949692E+04  0.25500000000E-02 0.  1.
          2   -1    0    0  501    0  0.00000000000E+00 -0.00000000000E+00 -0.20632961094E+04  0.20632961094E+04  0.25500000000E-02 0. -1.
    8880023    1    1    2    0    0  0.51951946003E+03 -0.79849653405E+03 -0.16393016611E+04  0.20071415811E+04  0.65864270000E+03 0.  0.
    8880022    1    1    2    0    0 -0.51951946003E+03  0.79849653405E+03  0.72930052084E+03  0.12094494975E+04  0.15294330000E+03 0.  0.
<mgrwt>
<rscale>  0 0.11064591E+04</rscale>
<asrwt>0</asrwt>
<pdfrwt beam="1">  1        2 0.31743017E+00 0.11581483E+04</pdfrwt>
<pdfrwt beam="2">  1       -2 0.17743000E+00 0.11581483E+04</pdfrwt>
<totfact> 0.11373682E+00</totfact>
</mgrwt>
</event>
<event>
 4    1  0.8645356E-007  0.7738557E+03  0.7818608E-02  0.9770473E-01
          2   -1    0    0  501    0  0.00000000000E+00  0.00000000000E+00  0.13669248320E+04  0.13669248320E+04  0.25500000000E-02 0. -1.
         -2   -1    0    0    0  501 -0.00000000000E+00 -0.00000000000E+00 -0.11125298754E+04  0.11125298754E+04  0.25500000000E-02 0.  1.
    8880023    1    1    2    0    0 -0.38431771421E+03  0.13169036230E+03 -0.93477594354E+03  0.12135315109E+04  0.65864270000E+03 0.  1.
    8880022    1    1    2    0    0  0.38431771421E+03 -0.13169036230E+03  0.11891709001E+04  0.12659231966E+04  0.15294330000E+03 0.  0.
<mgrwt>
<rscale>  0 0.66971486E+03</rscale>
<asrwt>0</asrwt>
<pdfrwt beam="1">  1        2 0.21029613E+00 0.77385571E+03</pdfrwt>
<pdfrwt beam="2">  1       -2 0.17115844E+00 0.77385571E+03</pdfrwt>
<totfact> 0.32319361E+00</totfact>
</mgrwt>
</event>
<event>
 4    1  0.8645356E-007  0.7520157E+03  0.7818608E-02  0.9826235E-01
          2   -1    0    0  501    0  0.00000000000E+00  0.00000000000E+00  0.39762577652E+04  0.39762577652E+04  0.25500000000E-02 0. -1.
         -2   -1    0    0    0  501 -0.00000000000E+00 -0.00000000000E+00 -0.95450562401E+02  0.95450562435E+02  0.25500000000E-02 0.  1.
    8880023    1    1    2    0    0  0.19546237831E+03  0.30579701346E+03  0.17488889097E+04  0.19037174106E+04  0.65864270000E+03 0.  1.
    8880022    1    1    2    0    0 -0.19546237831E+03 -0.30579701346E+03  0.21319182932E+04  0.21679909171E+04  0.15294330000E+03 0.  0.
<mgrwt>
<rscale>  0 0.63973453E+03</rscale>
<asrwt>0</asrwt>
<pdfrwt beam="1">  1        2 0.61173196E+00 0.75201567E+03</pdfrwt>
<pdfrwt beam="2">  1       -2 0.14684702E-01 0.75201567E+03</pdfrwt>
<totfact> 0.14275688E+01</totfact>
</mgrwt>
</event>
<event>
 4    1  0.8645356E-007  0.6923146E+03  0.7818608E-02  0.1003071E+00
         -2   -1    0    0    0  501 -0.00000000000E+00  0.00000000000E+00  0.11144543882E+03  0.11144543885E+03  0.25500000000E-02 0.  1.
          2   -1    0    0  501    0  0.00000000000E+00 -0.00000000000E+00 -0.21335173928E+04  0.21335173928E+04  0.25500000000E-02 0. -1.
    8880023    1    1    2    0    0  0.20473267938E+03  0.59781318098E+02 -0.12419814398E+04  0.14219062484E+04  0.65864270000E+03 0.  0.
    8880022    1    1    2    0    0 -0.20473267938E+03 -0.59781318098E+02 -0.78009051413E+03  0.82305658327E+03  0.15294330000E+03 0.  0.
<mgrwt>
<rscale>  0 0.54323780E+03</rscale>
<asrwt>0</asrwt>
<pdfrwt beam="1">  1        2 0.32823341E+00 0.69231458E+03</pdfrwt>
<pdfrwt beam="2">  1       -2 0.17145454E-01 0.69231458E+03</pdfrwt>
<totfact> 0.16221091E+02</totfact>
</mgrwt>
</event>
<event>
 4    1  0.8645356E-007  0.8773348E+03  0.7818608E-02  0.9563442E-01
         -2   -1    0    0    0  501 -0.00000000000E+00  0.00000000000E+00  0.35091899594E+03  0.35091899595E+03  0.25500000000E-02 0.  1.
          2   -1    0    0  501    0  0.00000000000E+00 -0.00000000000E+00 -0.20277772964E+04  0.20277772964E+04  0.25500000000E-02 0. -1.
    8880023    1    1    2    0    0 -0.57571363686E+03 -0.66783355892E+02 -0.39206265810E+03  0.96095241424E+03  0.65864270000E+03 0.  0.
    8880022    1    1    2    0    0  0.57571363686E+03  0.66783355892E+02 -0.12847956424E+04  0.14177438782E+04  0.15294330000E+03 0.  0.
<mgrwt>
<rscale>  0 0.79763804E+03</rscale>
<asrwt>0</asrwt>
<pdfrwt beam="1">  1        2 0.31196573E+00 0.87733484E+03</pdfrwt>
<pdfrwt beam="2">  1       -2 0.53987539E-01 0.87733484E+03</pdfrwt>
<totfact> 0.21204721E+01</totfact>
</mgrwt>
</event>
<event>
 4    1  0.8645356E-007  0.1633933E+04  0.7818608E-02  0.8820428E-01
          2   -1    0    0  501    0  0.00000000000E+00  0.00000000000E+00  0.36511327086E+04  0.36511327086E+04  0.25500000000E-02 0. -1.
         -2   -1    0    0    0  501 -0.00000000000E+00 -0.00000000000E+00 -0.11924707947E+04  0.11924707947E+04  0.25500000000E-02 0.  1.
    8880023    1    1    2    0    0 -0.11906942549E+04  0.90453051088E+03 -0.33806872550E+03  0.16685409564E+04  0.65864270000E+03 0.  1.
    8880022    1    1    2    0    0  0.11906942549E+04 -0.90453051088E+03  0.27967306394E+04  0.31750625468E+04  0.15294330000E+03 0.  0.
<mgrwt>
<rscale>  0 0.16001953E+04</rscale>
<asrwt>0</asrwt>
<pdfrwt beam="1">  1        2 0.56171273E+00 0.16339334E+04</pdfrwt>
<pdfrwt beam="2">  1       -2 0.18345704E+00 0.16339334E+04</pdfrwt>
<totfact> 0.10173677E-01</totfact>
</mgrwt>
</event>
<event>
 4    1  0.8645356E-007  0.8277197E+03  0.7818608E-02  0.9653785E-01
          2   -1    0    0  501    0  0.00000000000E+00  0.00000000000E+00  0.10919262039E+04  0.10919262039E+04  0.25500000000E-02 0. -1.
         -2   -1    0    0    0  501 -0.00000000000E+00 -0.00000000000E+00 -0.90908115351E+03  0.90908115351E+03  0.25500000000E-02 0.  1.
    8880023    1    1    2    0    0  0.80885517123E+02 -0.49473961530E+03 -0.62559240925E+03  0.10375383475E+04  0.65864270000E+03 0.  1.
    8880022    1    1    2    0    0 -0.80885517123E+02  0.49473961530E+03  0.80843745970E+03  0.96346900992E+03  0.15294330000E+03 0.  0.
<mgrwt>
<rscale>  0 0.73836328E+03</rscale>
<asrwt>0</asrwt>
<pdfrwt beam="1">  1        2 0.16798865E+00 0.82771974E+03</pdfrwt>
<pdfrwt beam="2">  1       -2 0.13985864E+00 0.82771974E+03</pdfrwt>
<totfact> 0.80115009E+00</totfact>
</mgrwt>
</event>
<event>
 4    1  0.9697065E-007  0.6749728E+03  0.7818608E-02  0.1012323E+00
          2   -1    0    0  501    0  0.00000000000E+00  0.00000000000E+00  0.14814299923E+04  0.14814299923E+04  0.25500000000E-02 0. -1.
         -2   -1    0    0    0  501 -0.00000000000E+00 -0.00000000000E+00 -0.10647911678E+04  0.10647911678E+04  0.25500000000E-02 0.  1.
    8880023    1    1    2    0    0  0.15785423408E+02 -0.14672728602E+03 -0.94877144926E+03  0.11643691619E+04  0.65864270000E+03 0.  1.
    8880022    1    1    2    0    0 -0.15785423408E+02  0.14672728602E+03  0.13654102738E+04  0.13818519981E+04  0.15294330000E+03 0.  0.
<mgrwt>
<rscale>  0 0.50561580E+03</rscale>
<asrwt>0</asrwt>
<pdfrwt beam="1">  1        2 0.22791231E+00 0.67497280E+03</pdfrwt>
<pdfrwt beam="2">  1       -2 0.16381403E+00 0.67497280E+03</pdfrwt>
<totfact> 0.31960905E+00</totfact>
</mgrwt>
</event>
<event>
 4    1  0.8645356E-007  0.6806688E+03  0.7818608E-02  0.1008948E+00
          2   -1    0    0  501    0  0.00000000000E+00  0.00000000000E+00  0.17900536515E+04  0.17900536515E+04  0.25500000000E-02 0. -1.
         -2   -1    0    0    0  501 -0.00000000000E+00 -0.00000000000E+00 -0.11593294718E+03  0.11593294720E+03  0.25500000000E-02 0.  1.
    8880023    1    1    2    0    0  0.25161304771E+02  0.16990208144E+03  0.12769636905E+04  0.14470474359E+04  0.65864270000E+03 0.  0.
    8880022    1    1    2    0    0 -0.25161304771E+02 -0.16990208144E+03  0.39715701378E+03  0.45893916279E+03  0.15294330000E+03 0. -1.
<mgrwt>
<rscale>  0 0.51894948E+03</rscale>
<asrwt>0</asrwt>
<pdfrwt beam="1">  1        2 0.27539287E+00 0.68066880E+03</pdfrwt>
<pdfrwt beam="2">  1       -2 0.17835838E-01 0.68066880E+03</pdfrwt>
<totfact> 0.23339271E+02</totfact>
</mgrwt>
</event>
<event>
 4    1  0.8645356E-007  0.9430466E+03  0.7818608E-02  0.9460190E-01
         -2   -1    0    0    0  501 -0.00000000000E+00  0.00000000000E+00  0.19336929594E+04  0.19336929594E+04  0.25500000000E-02 0.  1.
          2   -1    0    0  501    0  0.00000000000E+00 -0.00000000000E+00 -0.57241318405E+03  0.57241318405E+03  0.25500000000E-02 0. -1.
    8880023    1    1    2    0    0 -0.45688212280E+03  0.49677509029E+03  0.15267862100E+04  0.17945509471E+04  0.65864270000E+03 0.  0.
    8880022    1    1    2    0    0  0.45688212280E+03 -0.49677509029E+03 -0.16550643468E+03  0.71155519631E+03  0.15294330000E+03 0.  0.
<mgrwt>
<rscale>  0 0.87283584E+03</rscale>
<asrwt>0</asrwt>
<pdfrwt beam="1">  1        2 0.88063566E-01 0.94304664E+03</pdfrwt>
<pdfrwt beam="2">  1       -2 0.29749123E+00 0.94304664E+03</pdfrwt>
<totfact> 0.17509546E+00</totfact>
</mgrwt>
</event>
<event>
 4    1  0.8645356E-007  0.6590189E+03  0.7818608E-02  0.1025185E+00
          2   -1    0    0  501    0  0.00000000000E+00  0.00000000000E+00  0.11986897428E+04  0.11986897428E+04  0.25500000000E-02 0. -1.
         -2   -1    0    0    0  501 -0.00000000000E+00 -0.00000000000E+00 -0.25024321281E+03  0.25024321282E+03  0.25500000000E-02 0.  1.
    8880023    1    1    2    0    0  0.22059857091E+02 -0.30059439618E+01  0.20584553291E+03  0.69041890377E+03  0.65864270000E+03 0.  1.
    8880022    1    1    2    0    0 -0.22059857091E+02  0.30059439618E+01  0.74260099711E+03  0.75851405190E+03  0.15294330000E+03 0.  0.
<mgrwt>
<rscale>  0 0.45861086E+03</rscale>
<asrwt>0</asrwt>
<pdfrwt beam="1">  1        2 0.18441381E+00 0.65901888E+03</pdfrwt>
<pdfrwt beam="2">  1       -2 0.38498956E-01 0.65901888E+03</pdfrwt>
<totfact> 0.12353934E+02</totfact>
</mgrwt>
</event>
<event>
 4    1  0.8645356E-007  0.6920452E+03  0.7818608E-02  0.1003195E+00
          2   -1    0    0  501    0  0.00000000000E+00  0.00000000000E+00  0.23969876625E+04  0.23969876625E+04  0.25500000000E-02 0. -1.
         -2   -1    0    0    0  501 -0.00000000000E+00 -0.00000000000E+00 -0.14723724621E+03  0.14723724623E+03  0.25500000000E-02 0.  1.
    8880023    1    1    2    0    0  0.10409061370E+03  0.18515244549E+03  0.74481715941E+03  0.10167000989E+04  0.65864270000E+03 0.  1.
    8880022    1    1    2    0    0 -0.10409061370E+03 -0.18515244549E+03  0.15049332569E+04  0.15275248098E+04  0.15294330000E+03 0.  0.
<mgrwt>
<rscale>  0 0.54271076E+03</rscale>
<asrwt>0</asrwt>
<pdfrwt beam="1">  1        2 0.36876733E+00 0.69204515E+03</pdfrwt>
<pdfrwt beam="2">  1       -2 0.22651884E-01 0.69204515E+03</pdfrwt>
<totfact> 0.71351434E+01</totfact>
</mgrwt>
</event>
<event>
 4    1  0.8645356E-007  0.7678544E+03  0.7818608E-02  0.9785182E-01
         -2   -1    0    0    0  501 -0.00000000000E+00  0.00000000000E+00  0.24655051952E+03  0.24655051953E+03  0.25500000000E-02 0.  1.
          2   -1    0    0  501    0  0.00000000000E+00 -0.00000000000E+00 -0.16869150022E+04  0.16869150022E+04  0.25500000000E-02 0. -1.
    8880023    1    1    2    0    0  0.32039393714E+03  0.23051662111E+03 -0.54049550745E+03  0.93900787398E+03  0.65864270000E+03 0.  1.
    8880022    1    1    2    0    0 -0.32039393714E+03 -0.23051662111E+03 -0.89986897528E+03  0.99445764779E+03  0.15294330000E+03 0.  0.
<mgrwt>
<rscale>  0 0.66163872E+03</rscale>
<asrwt>0</asrwt>
<pdfrwt beam="1">  1        2 0.25952538E+00 0.76785441E+03</pdfrwt>
<pdfrwt beam="2">  1       -2 0.37930850E-01 0.76785441E+03</pdfrwt>
<totfact> 0.66806906E+01</totfact>
</mgrwt>
</event>
<event>
 4    1  0.8645356E-007  0.8630358E+03  0.7818608E-02  0.9588186E-01
          2   -1    0    0  501    0  0.00000000000E+00  0.00000000000E+00  0.11358955179E+04  0.11358955179E+04  0.25500000000E-02 0. -1.
         -2   -1    0    0    0  501 -0.00000000000E+00 -0.00000000000E+00 -0.76869550411E+03  0.76869550411E+03  0.25500000000E-02 0.  1.
    8880023    1    1    2    0    0  0.42660873413E+03 -0.35920128843E+03 -0.39393722367E+03  0.94869242650E+03  0.65864270000E+03 0.  1.
    8880022    1    1    2    0    0 -0.42660873413E+03  0.35920128843E+03  0.76113723749E+03  0.95589859554E+03  0.15294330000E+03 0.  0.
<mgrwt>
<rscale>  0 0.78083069E+03</rscale>
<asrwt>0</asrwt>
<pdfrwt beam="1">  1        2 0.17475316E+00 0.86303580E+03</pdfrwt>
<pdfrwt beam="2">  1       -2 0.11826085E+00 0.86303580E+03</pdfrwt>
<totfact> 0.11469061E+01</totfact>
</mgrwt>
</event>
<event>
 4    1  0.8645356E-007  0.7223545E+03  0.7818608E-02  0.9914698E-01
          2   -1    0    0  501    0  0.00000000000E+00  0.00000000000E+00  0.10037275437E+04  0.10037275437E+04  0.25500000000E-02 0. -1.
         -2   -1    0    0    0  501 -0.00000000000E+00 -0.00000000000E+00 -0.27800874918E+03  0.27800874919E+03  0.25500000000E-02 0.  1.
    8880023    1    1    2    0    0 -0.28669861490E+03 -0.76090546286E+02  0.51282324499E+03  0.88588021418E+03  0.65864270000E+03 0.  0.
    8880022    1    1    2    0    0  0.28669861490E+03  0.76090546286E+02  0.21289554950E+03  0.39585607868E+03  0.15294330000E+03 0.  0.
<mgrwt>
<rscale>  0 0.59554214E+03</rscale>
<asrwt>0</asrwt>
<pdfrwt beam="1">  1        2 0.15441962E+00 0.72235453E+03</pdfrwt>
<pdfrwt beam="2">  1       -2 0.42770576E-01 0.72235453E+03</pdfrwt>
<totfact> 0.13167398E+02</totfact>
</mgrwt>
</event>
<event>
 4    1  0.8645356E-007  0.1091013E+04  0.7818608E-02  0.9271128E-01
         -2   -1    0    0    0  501 -0.00000000000E+00  0.00000000000E+00  0.69970127019E+03  0.69970127019E+03  0.25500000000E-02 0.  1.
          2   -1    0    0  501    0  0.00000000000E+00 -0.00000000000E+00 -0.20154484306E+04  0.20154484306E+04  0.25500000000E-02 0. -1.
    8880023    1    1    2    0    0 -0.56422133419E+03  0.66193205872E+03  0.46148475988E+02  0.10919888518E+04  0.65864270000E+03 0.  1.
    8880022    1    1    2    0    0  0.56422133419E+03 -0.66193205872E+03 -0.13618956364E+04  0.16231608490E+04  0.15294330000E+03 0.  0.
<mgrwt>
<rscale>  0 0.10348485E+04</rscale>
<asrwt>0</asrwt>
<pdfrwt beam="1">  1        2 0.31006899E+00 0.10910133E+04</pdfrwt>
<pdfrwt beam="2">  1       -2 0.10764635E+00 0.10910133E+04</pdfrwt>
<totfact> 0.44869635E+00</totfact>
</mgrwt>
</event>
<event>
 4    1  0.8645356E-007  0.6746042E+03  0.7818608E-02  0.1012557E+00
          2   -1    0    0  501    0  0.00000000000E+00  0.00000000000E+00  0.16167083233E+03  0.16167083235E+03  0.25500000000E-02 0. -1.
         -2   -1    0    0    0  501 -0.00000000000E+00 -0.00000000000E+00 -0.15061453614E+04  0.15061453614E+04  0.25500000000E-02 0.  1.
    8880023    1    1    2    0    0 -0.65743522539E+02  0.13022431509E+03 -0.12799204496E+04  0.14468196662E+04  0.65864270000E+03 0.  0.
    8880022    1    1    2    0    0  0.65743522539E+02 -0.13022431509E+03 -0.64554079500E+02  0.22099652756E+03  0.15294330000E+03 0.  0.
<mgrwt>
<rscale>  0 0.50470950E+03</rscale>
<asrwt>0</asrwt>
<pdfrwt beam="1">  1        2 0.24872437E-01 0.67460417E+03</pdfrwt>
<pdfrwt beam="2">  1       -2 0.23171466E+00 0.67460417E+03</pdfrwt>
<totfact> 0.18922735E+01</totfact>
</mgrwt>
</event>
<event>
 4    1  0.8645356E-007  0.1132141E+04  0.7818608E-02  0.9226087E-01
         -2   -1    0    0    0  501 -0.00000000000E+00  0.00000000000E+00  0.32618126561E+03  0.32618126562E+03  0.25500000000E-02 0.  1.
          2   -1    0    0  501    0  0.00000000000E+00 -0.00000000000E+00 -0.36409146312E+04  0.36409146312E+04  0.25500000000E-02 0. -1.
    8880023    1    1    2    0    0  0.81889011024E+03  0.42113211559E+03 -0.11702257081E+04  0.16282419002E+04  0.65864270000E+03 0.  1.
    8880022    1    1    2    0    0 -0.81889011024E+03 -0.42113211559E+03 -0.21445076575E+04  0.23388539966E+04  0.15294330000E+03 0.  0.
<mgrwt>
<rscale>  0 0.10788174E+04</rscale>
<asrwt>0</asrwt>
<pdfrwt beam="1">  1        2 0.56014068E+00 0.11321411E+04</pdfrwt>
<pdfrwt beam="2">  1       -2 0.50181736E-01 0.11321411E+04</pdfrwt>
<totfact> 0.24731055E+00</totfact>
</mgrwt>
</event>
<event>
 4    1  0.8645356E-007  0.6990638E+03  0.7818608E-02  0.1000111E+00
         -2   -1    0    0    0  501 -0.00000000000E+00  0.00000000000E+00  0.55690605539E+03  0.55690605540E+03  0.25500000000E-02 0.  1.
          2   -1    0    0  501    0  0.00000000000E+00 -0.00000000000E+00 -0.17331087945E+04  0.17331087945E+04  0.25500000000E-02 0. -1.
    8880023    1    1    2    0    0 -0.47744053199E+02 -0.22934811520E+03  0.31932521863E+03  0.76854333260E+03  0.65864270000E+03 0.  1.
    8880022    1    1    2    0    0  0.47744053199E+02  0.22934811520E+03 -0.14955279577E+04  0.15214715173E+04  0.15294330000E+03 0.  0.
<mgrwt>
<rscale>  0 0.55601721E+03</rscale>
<asrwt>0</asrwt>
<pdfrwt beam="1">  1        2 0.26663212E+00 0.69906384E+03</pdfrwt>
<pdfrwt beam="2">  1       -2 0.85677856E-01 0.69906384E+03</pdfrwt>
<totfact> 0.11532135E+01</totfact>
</mgrwt>
</event>
<event>
 4    1  0.8645356E-007  0.6780061E+03  0.7818608E-02  0.1010475E+00
         -2   -1    0    0    0  501 -0.00000000000E+00  0.00000000000E+00  0.22566741099E+03  0.22566741100E+03  0.25500000000E-02 0.  1.
          2   -1    0    0  501    0  0.00000000000E+00 -0.00000000000E+00 -0.11390320119E+04  0.11390320119E+04  0.25500000000E-02 0. -1.
    8880023    1    1    2    0    0 -0.15781534860E+03 -0.31246632529E+02 -0.35822020572E+03  0.76682068200E+03  0.65864270000E+03 0.  1.
    8880022    1    1    2    0    0  0.15781534860E+03  0.31246632529E+02 -0.55514439517E+03  0.59787874088E+03  0.15294330000E+03 0.  0.
<mgrwt>
<rscale>  0 0.51286384E+03</rscale>
<asrwt>0</asrwt>
<pdfrwt beam="1">  1        2 0.17523569E+00 0.67800608E+03</pdfrwt>
<pdfrwt beam="2">  1       -2 0.34718064E-01 0.67800608E+03</pdfrwt>
<totfact> 0.16317085E+02</totfact>
</mgrwt>
</event>
<event>
 4    1  0.8645356E-007  0.9242767E+03  0.7818608E-02  0.9488132E-01
         -2   -1    0    0    0  501 -0.00000000000E+00  0.00000000000E+00  0.71759181117E+03  0.71759181118E+03  0.25500000000E-02 0.  1.
          2   -1    0    0  501    0  0.00000000000E+00 -0.00000000000E+00 -0.13613815556E+04  0.13613815556E+04  0.25500000000E-02 0. -1.
    8880023    1    1    2    0    0  0.50575427005E+03 -0.40581989569E+03  0.25628510038E+03  0.95915036796E+03  0.65864270000E+03 0.  1.
    8880022    1    1    2    0    0 -0.50575427005E+03  0.40581989569E+03 -0.90007484480E+03  0.11198229988E+04  0.15294330000E+03 0. -1.
<mgrwt>
<rscale>  0 0.85164446E+03</rscale>
<asrwt>0</asrwt>
<pdfrwt beam="1">  1        2 0.20944332E+00 0.92427668E+03</pdfrwt>
<pdfrwt beam="2">  1       -2 0.11039874E+00 0.92427668E+03</pdfrwt>
<totfact> 0.99343442E+00</totfact>
</mgrwt>
</event>
<event>
 4    1  0.8645356E-007  0.8854202E+03  0.7818608E-02  0.9549854E-01
         -2   -1    0    0    0  501 -0.00000000000E+00  0.00000000000E+00  0.31537307513E+03  0.31537307514E+03  0.25500000000E-02 0.  1.
          2   -1    0    0  501    0  0.00000000000E+00 -0.00000000000E+00 -0.20516375255E+04  0.20516375255E+04  0.25500000000E-02 0. -1.
    8880023    1    1    2    0    0  0.57262965118E+03 -0.14917790388E+03 -0.57799465542E+03  0.10573773179E+04  0.65864270000E+03 0.  0.
    8880022    1    1    2    0    0 -0.57262965118E+03  0.14917790388E+03 -0.11582697949E+04  0.13096332827E+04  0.15294330000E+03 0.  0.
<mgrwt>
<rscale>  0 0.80705983E+03</rscale>
<asrwt>0</asrwt>
<pdfrwt beam="1">  1        2 0.31563653E+00 0.88542022E+03</pdfrwt>
<pdfrwt beam="2">  1       -2 0.48518936E-01 0.88542022E+03</pdfrwt>
<totfact> 0.25586361E+01</totfact>
</mgrwt>
</event>
<event>
 4    1  0.8645356E-007  0.9375209E+03  0.7818608E-02  0.9468301E-01
         -2   -1    0    0    0  501 -0.00000000000E+00  0.00000000000E+00  0.73170429354E+03  0.73170429355E+03  0.25500000000E-02 0.  1.
          2   -1    0    0  501    0  0.00000000000E+00 -0.00000000000E+00 -0.15426841878E+04  0.15426841878E+04  0.25500000000E-02 0. -1.
    8880023    1    1    2    0    0  0.82854160837E+02 -0.66201988462E+03  0.28705001821E+03  0.98048103440E+03  0.65864270000E+03 0.  1.
    8880022    1    1    2    0    0 -0.82854160837E+02  0.66201988462E+03 -0.10980299125E+04  0.12939074470E+04  0.15294330000E+03 0.  0.
<mgrwt>
<rscale>  0 0.86661760E+03</rscale>
<asrwt>0</asrwt>
<pdfrwt beam="1">  1        2 0.23733603E+00 0.93752085E+03</pdfrwt>
<pdfrwt beam="2">  1       -2 0.11256989E+00 0.93752085E+03</pdfrwt>
<totfact> 0.74723863E+00</totfact>
</mgrwt>
</event>
<event>
 4    1  0.8645356E-007  0.6789016E+03  0.7818608E-02  0.1009952E+00
         -2   -1    0    0    0  501 -0.00000000000E+00  0.00000000000E+00  0.12845651681E+04  0.12845651681E+04  0.25500000000E-02 0.  1.
          2   -1    0    0  501    0  0.00000000000E+00 -0.00000000000E+00 -0.84493790501E+03  0.84493790501E+03  0.25500000000E-02 0. -1.
    8880023    1    1    2    0    0 -0.15947458788E+03  0.40804985576E+02  0.11769406202E+04  0.13587113824E+04  0.65864270000E+03 0.  1.
    8880022    1    1    2    0    0  0.15947458788E+03 -0.40804985576E+02 -0.73731335704E+03  0.77079169074E+03  0.15294330000E+03 0.  0.
<mgrwt>
<rscale>  0 0.51493754E+03</rscale>
<asrwt>0</asrwt>
<pdfrwt beam="1">  1        2 0.12999045E+00 0.67890161E+03</pdfrwt>
<pdfrwt beam="2">  1       -2 0.19762541E+00 0.67890161E+03</pdfrwt>
<totfact> 0.45553136E+00</totfact>
</mgrwt>
</event>
<event>
 4    1  0.8645356E-007  0.6674520E+03  0.7818608E-02  0.1017559E+00
         -2   -1    0    0    0  501 -0.00000000000E+00  0.00000000000E+00  0.99562586507E+03  0.99562586507E+03  0.25500000000E-02 0.  1.
          2   -1    0    0  501    0  0.00000000000E+00 -0.00000000000E+00 -0.33806592079E+03  0.33806592080E+03  0.25500000000E-02 0. -1.
    8880023    1    1    2    0    0 -0.27936080925E+02  0.10441053836E+03  0.83955985249E+03  0.10725450747E+04  0.65864270000E+03 0.  1.
    8880022    1    1    2    0    0  0.27936080925E+02 -0.10441053836E+03 -0.18199990821E+03  0.26114671114E+03  0.15294330000E+03 0.  0.
<mgrwt>
<rscale>  0 0.48577777E+03</rscale>
<asrwt>0</asrwt>
<pdfrwt beam="1">  1        2 0.52010142E-01 0.66745201E+03</pdfrwt>
<pdfrwt beam="2">  1       -2 0.15317321E+00 0.66745201E+03</pdfrwt>
<totfact> 0.27742469E+01</totfact>
</mgrwt>
</event>
<event>
 4    1  0.8645356E-007  0.6763672E+03  0.7818608E-02  0.1011458E+00
         -2   -1    0    0    0  501 -0.00000000000E+00  0.00000000000E+00  0.58699579411E+03  0.58699579411E+03  0.25500000000E-02 0.  1.
          2   -1    0    0  501    0  0.00000000000E+00 -0.00000000000E+00 -0.53207431723E+03  0.53207431724E+03  0.25500000000E-02 0. -1.
    8880023    1    1    2    0    0 -0.31042445813E+02  0.15066104187E+03  0.34306974703E+03  0.75839926198E+03  0.65864270000E+03 0.  0.
    8880022    1    1    2    0    0  0.31042445813E+02 -0.15066104187E+03 -0.28814827015E+03  0.36067084937E+03  0.15294330000E+03 0.  0.
<mgrwt>
<rscale>  0 0.50899265E+03</rscale>
<asrwt>0</asrwt>
<pdfrwt beam="1">  1        2 0.81857587E-01 0.67636720E+03</pdfrwt>
<pdfrwt beam="2">  1       -2 0.90307045E-01 0.67636720E+03</pdfrwt>
<totfact> 0.61036683E+01</totfact>
</mgrwt>
</event>
<event>
 4    1  0.8645356E-007  0.7481896E+03  0.7818608E-02  0.9836703E-01
          2   -1    0    0  501    0  0.00000000000E+00  0.00000000000E+00  0.10593136616E+04  0.10593136616E+04  0.25500000000E-02 0. -1.
         -2   -1    0    0    0  501 -0.00000000000E+00 -0.00000000000E+00 -0.12019003579E+04  0.12019003579E+04  0.25500000000E-02 0.  1.
    8880023    1    1    2    0    0 -0.27672863562E+03  0.22225826971E+03 -0.10417045608E+04  0.12825506128E+04  0.65864270000E+03 0.  1.
    8880022    1    1    2    0    0  0.27672863562E+03 -0.22225826971E+03  0.89911786455E+03  0.97866340669E+03  0.15294330000E+03 0.  0.
<mgrwt>
<rscale>  0 0.63429510E+03</rscale>
<asrwt>0</asrwt>
<pdfrwt beam="1">  1        2 0.16297133E+00 0.74818960E+03</pdfrwt>
<pdfrwt beam="2">  1       -2 0.18490775E+00 0.74818960E+03</pdfrwt>
<totfact> 0.39645472E+00</totfact>
</mgrwt>
</event>
<event>
 4    1  0.8645356E-007  0.7069106E+03  0.7818608E-02  0.9969657E-01
         -2   -1    0    0    0  501 -0.00000000000E+00  0.00000000000E+00  0.93417679756E+03  0.93417679757E+03  0.25500000000E-02 0.  1.
          2   -1    0    0  501    0  0.00000000000E+00 -0.00000000000E+00 -0.60939152876E+03  0.60939152877E+03  0.25500000000E-02 0. -1.
    8880023    1    1    2    0    0 -0.22393919243E+03 -0.12555329165E+03  0.74559675894E+03  0.10274420296E+04  0.65864270000E+03 0.  0.
    8880022    1    1    2    0    0  0.22393919243E+03  0.12555329165E+03 -0.42081149014E+03  0.51612629675E+03  0.15294330000E+03 0.  0.
<mgrwt>
<rscale>  0 0.57000972E+03</rscale>
<asrwt>0</asrwt>
<pdfrwt beam="1">  1        2 0.93752543E-01 0.70691060E+03</pdfrwt>
<pdfrwt beam="2">  1       -2 0.14371951E+00 0.70691060E+03</pdfrwt>
<totfact> 0.16623178E+01</totfact>
</mgrwt>
</event>
<event>
 4    1  0.8645356E-007  0.8957470E+03  0.7818608E-02  0.9532894E-01
         -2   -1    0    0    0  501 -0.00000000000E+00  0.00000000000E+00  0.48643508376E+03  0.48643508377E+03  0.25500000000E-02 0.  1.
          2   -1    0    0  501    0  0.00000000000E+00 -0.00000000000E+00 -0.32741803701E+04  0.32741803701E+04  0.25500000000E-02 0. -1.
    8880023    1    1    2    0    0  0.38782501987E+03 -0.46705913942E+03 -0.29751855310E+04  0.31071034157E+04  0.65864270000E+03 0.  0.
    8880022    1    1    2    0    0 -0.38782501987E+03  0.46705913942E+03  0.18744024463E+03  0.65351203820E+03  0.15294330000E+03 0.  0.
<mgrwt>
<rscale>  0 0.81901536E+03</rscale>
<asrwt>0</asrwt>
<pdfrwt beam="1">  1        2 0.50372005E+00 0.89574700E+03</pdfrwt>
<pdfrwt beam="2">  1       -2 0.74836168E-01 0.89574700E+03</pdfrwt>
<totfact> 0.19474427E+00</totfact>
</mgrwt>
</event>
<event>
 4    1  0.8645356E-007  0.7546678E+03  0.7818608E-02  0.9819113E-01
         -2   -1    0    0    0  501 -0.00000000000E+00  0.00000000000E+00  0.28901459380E+03  0.28901459381E+03  0.25500000000E-02 0.  1.
          2   -1    0    0  501    0  0.00000000000E+00 -0.00000000000E+00 -0.14312815546E+04  0.14312815546E+04  0.25500000000E-02 0. -1.
    8880023    1    1    2    0    0 -0.34874712537E+03 -0.11869613846E+03 -0.34704017841E+03  0.83063856305E+03  0.65864270000E+03 0.  0.
    8880022    1    1    2    0    0  0.34874712537E+03  0.11869613846E+03 -0.79522678235E+03  0.88965758532E+03  0.15294330000E+03 0.  0.
<mgrwt>
<rscale>  0 0.64346859E+03</rscale>
<asrwt>0</asrwt>
<pdfrwt beam="1">  1        2 0.22019716E+00 0.75466783E+03</pdfrwt>
<pdfrwt beam="2">  1       -2 0.44463784E-01 0.75466783E+03</pdfrwt>
<totfact> 0.67879832E+01</totfact>
</mgrwt>
</event>
<event>
 4    1  0.8645356E-007  0.8859006E+03  0.7818608E-02  0.9549056E-01
         -2   -1    0    0    0  501 -0.00000000000E+00  0.00000000000E+00  0.48266389792E+03  0.48266389792E+03  0.25500000000E-02 0.  1.
          2   -1    0    0  501    0  0.00000000000E+00 -0.00000000000E+00 -0.26013088127E+04  0.26013088127E+04  0.25500000000E-02 0. -1.
    8880023    1    1    2    0    0 -0.82908509332E+02 -0.58663090897E+03 -0.74886864555E+01  0.88593223836E+03  0.65864270000E+03 0.  0.
    8880022    1    1    2    0    0  0.82908509332E+02  0.58663090897E+03 -0.21111562283E+04  0.21980404722E+04  0.15294330000E+03 0. -1.
<mgrwt>
<rscale>  0 0.80761785E+03</rscale>
<asrwt>0</asrwt>
<pdfrwt beam="1">  1        2 0.40020135E+00 0.88590059E+03</pdfrwt>
<pdfrwt beam="2">  1       -2 0.74255986E-01 0.88590059E+03</pdfrwt>
<totfact> 0.51048169E+00</totfact>
</mgrwt>
</event>
<event>
 4    1  0.8645356E-007  0.8324941E+03  0.7818608E-02  0.9644499E-01
          2   -1    0    0  501    0  0.00000000000E+00  0.00000000000E+00  0.10036836932E+04  0.10036836932E+04  0.25500000000E-02 0. -1.
         -2   -1    0    0    0  501 -0.00000000000E+00 -0.00000000000E+00 -0.97550176059E+03  0.97550176059E+03  0.25500000000E-02 0.  1.
    8880023    1    1    2    0    0 -0.47918331802E+03  0.17210339514E+03  0.72416649441E+03  0.11033873068E+04  0.65864270000E+03 0.  0.
    8880022    1    1    2    0    0  0.47918331802E+03 -0.17210339514E+03 -0.69598456184E+03  0.87579814697E+03  0.15294330000E+03 0.  0.
<mgrwt>
<rscale>  0 0.74419672E+03</rscale>
<asrwt>0</asrwt>
<pdfrwt beam="1">  1        2 0.15441287E+00 0.83249411E+03</pdfrwt>
<pdfrwt beam="2">  1       -2 0.15007720E+00 0.83249411E+03</pdfrwt>
<totfact> 0.75594755E+00</totfact>
</mgrwt>
</event>
<event>
 4    1  0.8645356E-007  0.6855760E+03  0.7818608E-02  0.1006330E+00
         -2   -1    0    0    0  501 -0.00000000000E+00  0.00000000000E+00  0.61792185335E+03  0.61792185336E+03  0.25500000000E-02 0.  1.
          2   -1    0    0  501    0  0.00000000000E+00 -0.00000000000E+00 -0.44846386237E+03  0.44846386238E+03  0.25500000000E-02 0. -1.
    8880023    1    1    2    0    0 -0.13621576268E+03  0.13285166433E+03  0.34326542288E+03  0.76671093348E+03  0.65864270000E+03 0.  0.
    8880022    1    1    2    0    0  0.13621576268E+03 -0.13285166433E+03 -0.17380743190E+03  0.29967478225E+03  0.15294330000E+03 0.  0.
<mgrwt>
<rscale>  0 0.52959493E+03</rscale>
<asrwt>0</asrwt>
<pdfrwt beam="1">  1        2 0.68994440E-01 0.68557604E+03</pdfrwt>
<pdfrwt beam="2">  1       -2 0.95064901E-01 0.68557604E+03</pdfrwt>
<totfact> 0.65958807E+01</totfact>
</mgrwt>
</event>
<event>
 4    1  0.8645356E-007  0.9914358E+03  0.7818608E-02  0.9392849E-01
         -2   -1    0    0    0  501 -0.00000000000E+00  0.00000000000E+00  0.27856891482E+03  0.27856891483E+03  0.25500000000E-02 0.  1.
          2   -1    0    0  501    0  0.00000000000E+00 -0.00000000000E+00 -0.30655696152E+04  0.30655696152E+04  0.25500000000E-02 0. -1.
    8880023    1    1    2    0    0 -0.37275963775E+03  0.64045688296E+03 -0.10224579373E+04  0.14242068692E+04  0.65864270000E+03 0.  0.
    8880022    1    1    2    0    0  0.37275963775E+03 -0.64045688296E+03 -0.17645427630E+04  0.19199316608E+04  0.15294330000E+03 0.  0.
<mgrwt>
<rscale>  0 0.92666529E+03</rscale>
<asrwt>0</asrwt>
<pdfrwt beam="1">  1        2 0.47162607E+00 0.99143581E+03</pdfrwt>
<pdfrwt beam="2">  1       -2 0.42856758E-01 0.99143581E+03</pdfrwt>
<totfact> 0.83827926E+00</totfact>
</mgrwt>
</event>
<event>
 4    1  0.8645356E-007  0.7170318E+03  0.7818608E-02  0.9932760E-01
          2   -1    0    0  501    0  0.00000000000E+00  0.00000000000E+00  0.24806175147E+04  0.24806175147E+04  0.25500000000E-02 0. -1.
         -2   -1    0    0    0  501 -0.00000000000E+00 -0.00000000000E+00 -0.12376742915E+03  0.12376742918E+03  0.25500000000E-02 0.  1.
    8880023    1    1    2    0    0  0.28226570928E+03  0.25503756876E+02  0.11493279933E+04  0.13546547216E+04  0.65864270000E+03 0. -1.
    8880022    1    1    2    0    0 -0.28226570928E+03 -0.25503756876E+02  0.12075220923E+04  0.12497302223E+04  0.15294330000E+03 0.  0.
<mgrwt>
<rscale>  0 0.58699518E+03</rscale>
<asrwt>0</asrwt>
<pdfrwt beam="1">  1        2 0.38163346E+00 0.71703178E+03</pdfrwt>
<pdfrwt beam="2">  1       -2 0.19041143E-01 0.71703178E+03</pdfrwt>
<totfact> 0.86594646E+01</totfact>
</mgrwt>
</event>
<event>
 4    1  0.8645356E-007  0.7240318E+03  0.7818608E-02  0.9909172E-01
          2   -1    0    0  501    0  0.00000000000E+00  0.00000000000E+00  0.39037610553E+03  0.39037610554E+03  0.25500000000E-02 0. -1.
         -2   -1    0    0    0  501 -0.00000000000E+00 -0.00000000000E+00 -0.14957367011E+04  0.14957367011E+04  0.25500000000E-02 0.  1.
    8880023    1    1    2    0    0  0.38906817723E+02  0.29815792905E+03 -0.13062434705E+04  0.14934838806E+04  0.65864270000E+03 0.  1.
    8880022    1    1    2    0    0 -0.38906817723E+02 -0.29815792905E+03  0.20088287492E+03  0.39262892605E+03  0.15294330000E+03 0.  0.
<mgrwt>
<rscale>  0 0.59818803E+03</rscale>
<asrwt>0</asrwt>
<pdfrwt beam="1">  1        2 0.60057863E-01 0.72403183E+03</pdfrwt>
<pdfrwt beam="2">  1       -2 0.23011334E+00 0.72403183E+03</pdfrwt>
<totfact> 0.71655246E+00</totfact>
</mgrwt>
</event>
<event>
 4    1  0.8645356E-007  0.6785102E+03  0.7818608E-02  0.1010179E+00
         -2   -1    0    0    0  501 -0.00000000000E+00  0.00000000000E+00  0.12318504480E+04  0.12318504480E+04  0.25500000000E-02 0.  1.
          2   -1    0    0  501    0  0.00000000000E+00 -0.00000000000E+00 -0.36054358488E+03  0.36054358489E+03  0.25500000000E-02 0. -1.
    8880023    1    1    2    0    0 -0.14398153691E+02  0.16235328040E+03  0.10872566148E+04  0.12816017506E+04  0.65864270000E+03 0.  1.
    8880022    1    1    2    0    0  0.14398153691E+02 -0.16235328040E+03 -0.21594975166E+03  0.31079228231E+03  0.15294330000E+03 0.  0.
<mgrwt>
<rscale>  0 0.51403469E+03</rscale>
<asrwt>0</asrwt>
<pdfrwt beam="1">  1        2 0.55468244E-01 0.67851021E+03</pdfrwt>
<pdfrwt beam="2">  1       -2 0.18951545E+00 0.67851021E+03</pdfrwt>
<totfact> 0.14289785E+01</totfact>
</mgrwt>
</event>
<event>
 4    1  0.8645356E-007  0.6813709E+03  0.7818608E-02  0.1008559E+00
          2   -1    0    0  501    0  0.00000000000E+00  0.00000000000E+00  0.11744198094E+04  0.11744198094E+04  0.25500000000E-02 0. -1.
         -2   -1    0    0    0  501 -0.00000000000E+00 -0.00000000000E+00 -0.18950512693E+03  0.18950512695E+03  0.25500000000E-02 0.  1.
    8880023    1    1    2    0    0 -0.15466714919E+02  0.17383020145E+03  0.56923183998E+03  0.88785767559E+03  0.65864270000E+03 0.  1.
    8880022    1    1    2    0    0  0.15466714919E+02 -0.17383020145E+03  0.41568284250E+03  0.47606726076E+03  0.15294330000E+03 0. -1.
<mgrwt>
<rscale>  0 0.52051556E+03</rscale>
<asrwt>0</asrwt>
<pdfrwt beam="1">  1        2 0.18067997E+00 0.68137094E+03</pdfrwt>
<pdfrwt beam="2">  1       -2 0.29154635E-01 0.68137094E+03</pdfrwt>
<totfact> 0.21543361E+02</totfact>
</mgrwt>
</event>
<event>
 4    1  0.8645356E-007  0.1028787E+04  0.7818608E-02  0.9344829E-01
          2   -1    0    0  501    0  0.00000000000E+00  0.00000000000E+00  0.94875624970E+03  0.94875624970E+03  0.25500000000E-02 0. -1.
         -2   -1    0    0    0  501 -0.00000000000E+00 -0.00000000000E+00 -0.14252417855E+04  0.14252417855E+04  0.25500000000E-02 0.  1.
    8880023    1    1    2    0    0  0.39693696247E+03 -0.68339778076E+03 -0.98300709346E+03  0.14229211612E+04  0.65864270000E+03 0.  1.
    8880022    1    1    2    0    0 -0.39693696247E+03  0.68339778076E+03  0.50652155764E+03  0.95107687402E+03  0.15294330000E+03 0.  0.
<mgrwt>
<rscale>  0 0.96758563E+03</rscale>
<asrwt>0</asrwt>
<pdfrwt beam="1">  1        2 0.14596250E+00 0.10287865E+04</pdfrwt>
<pdfrwt beam="2">  1       -2 0.21926797E+00 0.10287865E+04</pdfrwt>
<totfact> 0.26914398E+00</totfact>
</mgrwt>
</event>
<event>
 4    1  0.8645356E-007  0.1096491E+04  0.7818608E-02  0.9264973E-01
          2   -1    0    0  501    0  0.00000000000E+00  0.00000000000E+00  0.63546748429E+03  0.63546748429E+03  0.25500000000E-02 0. -1.
         -2   -1    0    0    0  501 -0.00000000000E+00 -0.00000000000E+00 -0.18212746169E+04  0.18212746169E+04  0.25500000000E-02 0.  1.
    8880023    1    1    2    0    0  0.40059223913E+03 -0.77974899339E+03 -0.11153803843E+04  0.15640863923E+04  0.65864270000E+03 0. -1.
    8880022    1    1    2    0    0 -0.40059223913E+03  0.77974899339E+03 -0.70426748364E+02  0.89265570891E+03  0.15294330000E+03 0.  0.
<mgrwt>
<rscale>  0 0.10407247E+04</rscale>
<asrwt>0</asrwt>
<pdfrwt beam="1">  1        2 0.97764230E-01 0.10964911E+04</pdfrwt>
<pdfrwt beam="2">  1       -2 0.28019609E+00 0.10964911E+04</pdfrwt>
<totfact> 0.19261997E+00</totfact>
</mgrwt>
</event>
<event>
 4    1  0.8645356E-007  0.6745170E+03  0.7818608E-02  0.1012612E+00
         -2   -1    0    0    0  501 -0.00000000000E+00  0.00000000000E+00  0.21397705280E+04  0.21397705280E+04  0.25500000000E-02 0.  1.
          2   -1    0    0  501    0  0.00000000000E+00 -0.00000000000E+00 -0.10720511392E+04  0.10720511392E+04  0.25500000000E-02 0. -1.
    8880023    1    1    2    0    0 -0.80220393298E+02 -0.12135782397E+03  0.20754056552E+04  0.21822653076E+04  0.65864270000E+03 0.  1.
    8880022    1    1    2    0    0  0.80220393298E+02  0.12135782397E+03 -0.10076862665E+04  0.10295563596E+04  0.15294330000E+03 0.  0.
<mgrwt>
<rscale>  0 0.50449442E+03</rscale>
<asrwt>0</asrwt>
<pdfrwt beam="1">  1        2 0.16493094E+00 0.67451704E+03</pdfrwt>
<pdfrwt beam="2">  1       -2 0.32919547E+00 0.67451704E+03</pdfrwt>
<totfact> 0.51087527E-01</totfact>
</mgrwt>
</event>
<event>
 4    1  0.8645356E-007  0.6978910E+03  0.7818608E-02  0.1000606E+00
          2   -1    0    0  501    0  0.00000000000E+00  0.00000000000E+00  0.93833583792E+03  0.93833583792E+03  0.25500000000E-02 0. -1.
         -2   -1    0    0    0  501 -0.00000000000E+00 -0.00000000000E+00 -0.70055748998E+03  0.70055748998E+03  0.25500000000E-02 0.  1.
    8880023    1    1    2    0    0 -0.16300866385E+03 -0.16330910826E+03 -0.49496947948E+03  0.85559726578E+03  0.65864270000E+03 0.  1.
    8880022    1    1    2    0    0  0.16300866385E+03  0.16330910826E+03  0.73274782742E+03  0.78329606212E+03  0.15294330000E+03 0.  0.
<mgrwt>
<rscale>  0 0.55385099E+03</rscale>
<asrwt>0</asrwt>
<pdfrwt beam="1">  1        2 0.14435936E+00 0.69789103E+03</pdfrwt>
<pdfrwt beam="2">  1       -2 0.10777808E+00 0.69789103E+03</pdfrwt>
<totfact> 0.19488067E+01</totfact>
</mgrwt>
</event>
<event>
 4    1  0.8645356E-007  0.7390689E+03  0.7818608E-02  0.9862668E-01
         -2   -1    0    0    0  501 -0.00000000000E+00  0.00000000000E+00  0.30855301023E+03  0.30855301024E+03  0.25500000000E-02 0.  1.
          2   -1    0    0  501    0  0.00000000000E+00 -0.00000000000E+00 -0.14760483720E+04  0.14760483720E+04  0.25500000000E-02 0. -1.
    8880023    1    1    2    0    0 -0.31756559793E+03  0.10753910175E+03 -0.22490153800E+03  0.77253056603E+03  0.65864270000E+03 0.  1.
    8880022    1    1    2    0    0  0.31756559793E+03 -0.10753910175E+03 -0.94259382374E+03  0.10120708162E+04  0.15294330000E+03 0.  0.
<mgrwt>
<rscale>  0 0.62105181E+03</rscale>
<asrwt>0</asrwt>
<pdfrwt beam="1">  1        2 0.22708436E+00 0.73906886E+03</pdfrwt>
<pdfrwt beam="2">  1       -2 0.47469695E-01 0.73906886E+03</pdfrwt>
<totfact> 0.56292110E+01</totfact>
</mgrwt>
</event>
<event>
 4    1  0.8645356E-007  0.9321730E+03  0.7818608E-02  0.9476241E-01
          2   -1    0    0  501    0  0.00000000000E+00  0.00000000000E+00  0.62511629171E+03  0.62511629171E+03  0.25500000000E-02 0. -1.
         -2   -1    0    0    0  501 -0.00000000000E+00 -0.00000000000E+00 -0.18094220025E+04  0.18094220025E+04  0.25500000000E-02 0.  1.
    8880023    1    1    2    0    0  0.57238409686E+03  0.32789121542E+03 -0.14360828831E+04  0.17120982615E+04  0.65864270000E+03 0.  0.
    8880022    1    1    2    0    0 -0.57238409686E+03 -0.32789121542E+03  0.25177717228E+03  0.72244003279E+03  0.15294330000E+03 0.  0.
<mgrwt>
<rscale>  0 0.86058364E+03</rscale>
<asrwt>0</asrwt>
<pdfrwt beam="1">  1        2 0.96171738E-01 0.93217295E+03</pdfrwt>
<pdfrwt beam="2">  1       -2 0.27837261E+00 0.93217295E+03</pdfrwt>
<totfact> 0.20548036E+00</totfact>
</mgrwt>
</event>
<event>
 4    1  0.8645356E-007  0.1531676E+04  0.7818608E-02  0.8887586E-01
          2   -1    0    0  501    0  0.00000000000E+00  0.00000000000E+00  0.19662348120E+04  0.19662348120E+04  0.25500000000E-02 0. -1.
         -2   -1    0    0    0  501 -0.00000000000E+00 -0.00000000000E+00 -0.11407241399E+04  0.11407241399E+04  0.25500000000E-02 0.  1.
    8880023    1    1    2    0    0  0.86382949511E+03  0.10798236343E+04  0.92643985742E+02  0.15344750217E+04  0.65864270000E+03 0. -1.
    8880022    1    1    2    0    0 -0.86382949511E+03 -0.10798236343E+04  0.73286668638E+03  0.15724839302E+04  0.15294330000E+03 0.  0.
<mgrwt>
<rscale>  0 0.14952969E+04</rscale>
<asrwt>0</asrwt>
<pdfrwt beam="1">  1        2 0.30249766E+00 0.15316758E+04</pdfrwt>
<pdfrwt beam="2">  1       -2 0.17549602E+00 0.15316758E+04</pdfrwt>
<totfact> 0.12766005E+00</totfact>
</mgrwt>
</event>
<event>
 4    1  0.8645356E-007  0.8339940E+03  0.7818608E-02  0.9641611E-01
         -2   -1    0    0    0  501 -0.00000000000E+00  0.00000000000E+00  0.58568605081E+03  0.58568605081E+03  0.25500000000E-02 0.  1.
          2   -1    0    0  501    0  0.00000000000E+00 -0.00000000000E+00 -0.84459925709E+03  0.84459925709E+03  0.25500000000E-02 0. -1.
    8880023    1    1    2    0    0 -0.28189079484E+01 -0.51159336335E+03  0.64289411975E+01  0.83401873673E+03  0.65864270000E+03 0.  1.
    8880022    1    1    2    0    0  0.28189079484E+01  0.51159336335E+03 -0.26534214748E+03  0.59626657118E+03  0.15294330000E+03 0. -1.
<mgrwt>
<rscale>  0 0.74602270E+03</rscale>
<asrwt>0</asrwt>
<pdfrwt beam="1">  1        2 0.12993835E+00 0.83399396E+03</pdfrwt>
<pdfrwt beam="2">  1       -2 0.90105547E-01 0.83399396E+03</pdfrwt>
<totfact> 0.33991188E+01</totfact>
</mgrwt>
</event>
<event>
 4    1  0.8645356E-007  0.6738739E+03  0.7818608E-02  0.1013026E+00
         -2   -1    0    0    0  501 -0.00000000000E+00  0.00000000000E+00  0.37747411781E+03  0.37747411782E+03  0.25500000000E-02 0.  1.
          2   -1    0    0  501    0  0.00000000000E+00 -0.00000000000E+00 -0.12233242436E+04  0.12233242436E+04  0.25500000000E-02 0. -1.
    8880023    1    1    2    0    0 -0.56397480160E+01 -0.14235195423E+03  0.54908490372E+02  0.67610726531E+03  0.65864270000E+03 0.  1.
    8880022    1    1    2    0    0  0.56397480160E+01  0.14235195423E+03 -0.90075861619E+03  0.92469109614E+03  0.15294330000E+03 0.  0.
<mgrwt>
<rscale>  0 0.50289660E+03</rscale>
<asrwt>0</asrwt>
<pdfrwt beam="1">  1        2 0.18820373E+00 0.67387394E+03</pdfrwt>
<pdfrwt beam="2">  1       -2 0.58072942E-01 0.67387394E+03</pdfrwt>
<totfact> 0.52201955E+01</totfact>
</mgrwt>
</event>
<event>
 4    1  0.8645356E-007  0.7641486E+03  0.7818608E-02  0.9794483E-01
         -2   -1    0    0    0  501 -0.00000000000E+00  0.00000000000E+00  0.26699686796E+03  0.26699686798E+03  0.25500000000E-02 0.  1.
          2   -1    0    0  501    0  0.00000000000E+00 -0.00000000000E+00 -0.21649619754E+04  0.21649619754E+04  0.25500000000E-02 0. -1.
    8880023    1    1    2    0    0 -0.37692903172E+03 -0.89651584676E+02 -0.37147322873E+03  0.84965608779E+03  0.65864270000E+03 0.  0.
    8880022    1    1    2    0    0  0.37692903172E+03  0.89651584676E+02 -0.15264918787E+04  0.15823027556E+04  0.15294330000E+03 0.  0.
<mgrwt>
<rscale>  0 0.65659449E+03</rscale>
<asrwt>0</asrwt>
<pdfrwt beam="1">  1        2 0.33307106E+00 0.76414862E+03</pdfrwt>
<pdfrwt beam="2">  1       -2 0.41076443E-01 0.76414862E+03</pdfrwt>
<totfact> 0.31356649E+01</totfact>
</mgrwt>
</event>
<event>
 4    1  0.8645356E-007  0.9432471E+03  0.7818608E-02  0.9459897E-01
          2   -1    0    0  501    0  0.00000000000E+00  0.00000000000E+00  0.24524202338E+04  0.24524202338E+04  0.25500000000E-02 0. -1.
         -2   -1    0    0    0  501 -0.00000000000E+00 -0.00000000000E+00 -0.38932945706E+03  0.38932945707E+03  0.25500000000E-02 0.  1.
    8880023    1    1    2    0    0 -0.67100189531E+03 -0.75241913049E+02  0.37113902760E+03  0.10136366573E+04  0.65864270000E+03 0.  0.
    8880022    1    1    2    0    0  0.67100189531E+03  0.75241913049E+02  0.16919517491E+04  0.18281130335E+04  0.15294330000E+03 0.  1.
<mgrwt>
<rscale>  0 0.87306112E+03</rscale>
<asrwt>0</asrwt>
<pdfrwt beam="1">  1        2 0.37729543E+00 0.94324710E+03</pdfrwt>
<pdfrwt beam="2">  1       -2 0.59896839E-01 0.94324710E+03</pdfrwt>
<totfact> 0.98154894E+00</totfact>
</mgrwt>
</event>
<event>
 4    1  0.8645356E-007  0.6936429E+03  0.7818608E-02  0.1002467E+00
          2   -1    0    0  501    0  0.00000000000E+00  0.00000000000E+00  0.18224079418E+04  0.18224079418E+04  0.25500000000E-02 0. -1.
         -2   -1    0    0    0  501 -0.00000000000E+00 -0.00000000000E+00 -0.37048677541E+03  0.37048677542E+03  0.25500000000E-02 0.  1.
    8880023    1    1    2    0    0 -0.20811328356E+03 -0.63396422588E+02 -0.23163550868E+02  0.69402953939E+03  0.65864270000E+03 0.  1.
    8880022    1    1    2    0    0  0.20811328356E+03  0.63396422588E+02  0.14750847173E+04  0.14988651778E+04  0.15294330000E+03 0.  0.
<mgrwt>
<rscale>  0 0.54581591E+03</rscale>
<asrwt>0</asrwt>
<pdfrwt beam="1">  1        2 0.28037045E+00 0.69364288E+03</pdfrwt>
<pdfrwt beam="2">  1       -2 0.56997967E-01 0.69364288E+03</pdfrwt>
<totfact> 0.25102761E+01</totfact>
</mgrwt>
</event>
<event>
 4    1  0.8645356E-007  0.1261405E+04  0.7818608E-02  0.9099627E-01
          2   -1    0    0  501    0  0.00000000000E+00  0.00000000000E+00  0.17401241236E+04  0.17401241236E+04  0.25500000000E-02 0. -1.
         -2   -1    0    0    0  501 -0.00000000000E+00 -0.00000000000E+00 -0.12982990402E+04  0.12982990402E+04  0.25500000000E-02 0.  1.
    8880023    1    1    2    0    0 -0.36264551411E+03  0.10128278694E+04  0.11779899631E+04  0.17259208039E+04  0.65864270000E+03 0.  0.
    8880022    1    1    2    0    0  0.36264551411E+03 -0.10128278694E+04 -0.73616487968E+03  0.13125023600E+04  0.15294330000E+03 0.  0.
<mgrwt>
<rscale>  0 0.12152326E+04</rscale>
<asrwt>0</asrwt>
<pdfrwt beam="1">  1        2 0.26771140E+00 0.12614049E+04</pdfrwt>
<pdfrwt beam="2">  1       -2 0.19973832E+00 0.12614049E+04</pdfrwt>
<totfact> 0.11984440E+00</totfact>
</mgrwt>
</event>
<event>
 4    1  0.8645356E-007  0.1039126E+04  0.7818608E-02  0.9332069E-01
         -2   -1    0    0    0  501 -0.00000000000E+00  0.00000000000E+00  0.16193379082E+04  0.16193379082E+04  0.25500000000E-02 0.  1.
          2   -1    0    0  501    0  0.00000000000E+00 -0.00000000000E+00 -0.56812273263E+03  0.56812273264E+03  0.25500000000E-02 0. -1.
    8880023    1    1    2    0    0  0.77420535415E+03  0.21582019362E+03  0.31233595941E+03  0.10850512634E+04  0.65864270000E+03 0.  0.
    8880022    1    1    2    0    0 -0.77420535415E+03 -0.21582019362E+03  0.73887921611E+03  0.11024093774E+04  0.15294330000E+03 0.  0.
<mgrwt>
<rscale>  0 0.97883366E+03</rscale>
<asrwt>0</asrwt>
<pdfrwt beam="1">  1        2 0.87403498E-01 0.10391258E+04</pdfrwt>
<pdfrwt beam="2">  1       -2 0.24912891E+00 0.10391258E+04</pdfrwt>
<totfact> 0.34295231E+00</totfact>
</mgrwt>
</event>
<event>
 4    1  0.8645356E-007  0.6957775E+03  0.7818608E-02  0.1001519E+00
          2   -1    0    0  501    0  0.00000000000E+00  0.00000000000E+00  0.22384405383E+04  0.22384405383E+04  0.25500000000E-02 0. -1.
         -2   -1    0    0    0  501 -0.00000000000E+00 -0.00000000000E+00 -0.34478591413E+03  0.34478591414E+03  0.25500000000E-02 0.  1.
    8880023    1    1    2    0    0  0.20835437887E+03  0.82973515601E+02  0.26331477748E+02  0.69627559520E+03  0.65864270000E+03 0.  1.
    8880022    1    1    2    0    0 -0.20835437887E+03 -0.82973515601E+02  0.18673231464E+04  0.18869508573E+04  0.15294330000E+03 0.  0.
<mgrwt>
<rscale>  0 0.54989180E+03</rscale>
<asrwt>0</asrwt>
<pdfrwt beam="1">  1        2 0.34437545E+00 0.69577752E+03</pdfrwt>
<pdfrwt beam="2">  1       -2 0.53043989E-01 0.69577752E+03</pdfrwt>
<totfact> 0.17266641E+01</totfact>
</mgrwt>
</event>
<event>
 4    1  0.8645356E-007  0.7046983E+03  0.7818608E-02  0.9978242E-01
          2   -1    0    0  501    0  0.00000000000E+00  0.00000000000E+00  0.31500854200E+03  0.31500854201E+03  0.25500000000E-02 0. -1.
         -2   -1    0    0    0  501 -0.00000000000E+00 -0.00000000000E+00 -0.96337912476E+03  0.96337912476E+03  0.25500000000E-02 0.  1.
    8880023    1    1    2    0    0  0.24687035214E+03  0.42947813305E+02 -0.68473333324E+03  0.98257795078E+03  0.65864270000E+03 0.  1.
    8880022    1    1    2    0    0 -0.24687035214E+03 -0.42947813305E+02  0.36362750485E+02  0.29580971599E+03  0.15294330000E+03 0.  0.
<mgrwt>
<rscale>  0 0.56614665E+03</rscale>
<asrwt>0</asrwt>
<pdfrwt beam="1">  1        2 0.48462853E-01 0.70469830E+03</pdfrwt>
<pdfrwt beam="2">  1       -2 0.14821217E+00 0.70469830E+03</pdfrwt>
<totfact> 0.32641938E+01</totfact>
</mgrwt>
</event>
<event>
 4    1  0.8645356E-007  0.1268845E+04  0.7818608E-02  0.9092942E-01
          2   -1    0    0  501    0  0.00000000000E+00  0.00000000000E+00  0.74852950882E+03  0.74852950882E+03  0.25500000000E-02 0. -1.
         -2   -1    0    0    0  501 -0.00000000000E+00 -0.00000000000E+00 -0.26796267930E+04  0.26796267930E+04  0.25500000000E-02 0.  1.
    8880023    1    1    2    0    0  0.10767278123E+04  0.12967110116E+03 -0.19573121498E+04  0.23326033599E+04  0.65864270000E+03 0.  1.
    8880022    1    1    2    0    0 -0.10767278123E+04 -0.12967110116E+03  0.26214865680E+02  0.10955529419E+04  0.15294330000E+03 0.  0.
<mgrwt>
<rscale>  0 0.12230203E+04</rscale>
<asrwt>0</asrwt>
<pdfrwt beam="1">  1        2 0.11515839E+00 0.12688450E+04</pdfrwt>
<pdfrwt beam="2">  1       -2 0.41225027E+00 0.12688450E+04</pdfrwt>
<totfact> 0.22740919E-01</totfact>
</mgrwt>
</event>
<event>
 4    1  0.8645356E-007  0.8669198E+03  0.7818608E-02  0.9581371E-01
          2   -1    0    0  501    0  0.00000000000E+00  0.00000000000E+00  0.42253639974E+04  0.42253639974E+04  0.25500000000E-02 0. -1.
         -2   -1    0    0    0  501 -0.00000000000E+00 -0.00000000000E+00 -0.20076050090E+03  0.20076050092E+03  0.25500000000E-02 0.  1.
    8880023    1    1    2    0    0  0.56322120156E+03 -0.22839522288E+02  0.90849617481E+03  0.12557528704E+04  0.65864270000E+03 0.  1.
    8880022    1    1    2    0    0 -0.56322120156E+03  0.22839522288E+02  0.31161073217E+04  0.31703716279E+04  0.15294330000E+03 0.  0.
<mgrwt>
<rscale>  0 0.78541540E+03</rscale>
<asrwt>0</asrwt>
<pdfrwt beam="1">  1        2 0.65005592E+00 0.86691982E+03</pdfrwt>
<pdfrwt beam="2">  1       -2 0.30886235E-01 0.86691982E+03</pdfrwt>
<totfact> 0.23392745E+00</totfact>
</mgrwt>
</event>
<event>
 4    1  0.8645356E-007  0.9735025E+03  0.7818608E-02  0.9417076E-01
          2   -1    0    0  501    0  0.00000000000E+00  0.00000000000E+00  0.10753294361E+04  0.10753294361E+04  0.25500000000E-02 0. -1.
         -2   -1    0    0    0  501 -0.00000000000E+00 -0.00000000000E+00 -0.80146648822E+03  0.80146648822E+03  0.25500000000E-02 0.  1.
    8880023    1    1    2    0    0  0.34096059270E+02 -0.71605474979E+03  0.51986716411E+03  0.11036163376E+04  0.65864270000E+03 0.  0.
    8880022    1    1    2    0    0 -0.34096059270E+02  0.71605474979E+03 -0.24600421623E+03  0.77317958676E+03  0.15294330000E+03 0.  0.
<mgrwt>
<rscale>  0 0.90683602E+03</rscale>
<asrwt>0</asrwt>
<pdfrwt beam="1">  1        2 0.16543530E+00 0.97350252E+03</pdfrwt>
<pdfrwt beam="2">  1       -2 0.12330254E+00 0.97350252E+03</pdfrwt>
<totfact> 0.11139428E+01</totfact>
</mgrwt>
</event>
<event>
 4    1  0.8645356E-007  0.7360904E+03  0.7818608E-02  0.9871485E-01
         -2   -1    0    0    0  501 -0.00000000000E+00  0.00000000000E+00  0.46188759255E+03  0.46188759256E+03  0.25500000000E-02 0.  1.
          2   -1    0    0  501    0  0.00000000000E+00 -0.00000000000E+00 -0.67117959004E+03  0.67117959004E+03  0.25500000000E-02 0. -1.
    8880023    1    1    2    0    0 -0.15921789023E+03  0.28752130568E+03 -0.52053238217E+02  0.73792857626E+03  0.65864270000E+03 0.  1.
    8880022    1    1    2    0    0  0.15921789023E+03 -0.28752130568E+03 -0.15723875927E+03  0.39513860634E+03  0.15294330000E+03 0. -1.
<mgrwt>
<rscale>  0 0.61663349E+03</rscale>
<asrwt>0</asrwt>
<pdfrwt beam="1">  1        2 0.10325840E+00 0.73609038E+03</pdfrwt>
<pdfrwt beam="2">  1       -2 0.71059629E-01 0.73609038E+03</pdfrwt>
<totfact> 0.78728349E+01</totfact>
</mgrwt>
</event>
<event>
 4    1  0.8645356E-007  0.6778990E+03  0.7818608E-02  0.1010538E+00
         -2   -1    0    0    0  501 -0.00000000000E+00  0.00000000000E+00  0.42076349407E+03  0.42076349408E+03  0.25500000000E-02 0.  1.
          2   -1    0    0  501    0  0.00000000000E+00 -0.00000000000E+00 -0.16160715422E+04  0.16160715422E+04  0.25500000000E-02 0. -1.
    8880023    1    1    2    0    0 -0.85760287733E+02 -0.13558010755E+03  0.13243859765E+03  0.69071483329E+03  0.65864270000E+03 0.  1.
    8880022    1    1    2    0    0  0.85760287733E+02  0.13558010755E+03 -0.13277466458E+04  0.13461202030E+04  0.15294330000E+03 0.  0.
<mgrwt>
<rscale>  0 0.51261387E+03</rscale>
<asrwt>0</asrwt>
<pdfrwt beam="1">  1        2 0.24862639E+00 0.67789896E+03</pdfrwt>
<pdfrwt beam="2">  1       -2 0.64732846E-01 0.67789896E+03</pdfrwt>
<totfact> 0.24908666E+01</totfact>
</mgrwt>
</event>
<event>
 4    1  0.8645356E-007  0.7245582E+03  0.7818608E-02  0.9907454E-01
          2   -1    0    0  501    0  0.00000000000E+00  0.00000000000E+00  0.23883870481E+04  0.23883870481E+04  0.25500000000E-02 0. -1.
         -2   -1    0    0    0  501 -0.00000000000E+00 -0.00000000000E+00 -0.34004024565E+03  0.34004024566E+03  0.25500000000E-02 0.  1.
    8880023    1    1    2    0    0  0.29018072972E+03 -0.83484045581E+02  0.77459863133E+02  0.72868695503E+03  0.65864270000E+03 0.  1.
    8880022    1    1    2    0    0 -0.29018072972E+03  0.83484045581E+02  0.19708869393E+04  0.19997403387E+04  0.15294330000E+03 0.  0.
<mgrwt>
<rscale>  0 0.59901402E+03</rscale>
<asrwt>0</asrwt>
<pdfrwt beam="1">  1        2 0.36744417E+00 0.72455824E+03</pdfrwt>
<pdfrwt beam="2">  1       -2 0.52313883E-01 0.72455824E+03</pdfrwt>
<totfact> 0.14597741E+01</totfact>
</mgrwt>
</event>
<event>
 4    1  0.8645356E-007  0.9102696E+03  0.7818608E-02  0.9509743E-01
         -2   -1    0    0    0  501 -0.00000000000E+00  0.00000000000E+00  0.13584667467E+04  0.13584667467E+04  0.25500000000E-02 0.  1.
          2   -1    0    0  501    0  0.00000000000E+00 -0.00000000000E+00 -0.87574266481E+03  0.87574266481E+03  0.25500000000E-02 0. -1.
    8880023    1    1    2    0    0 -0.55904715272E+03  0.28678718814E+03  0.10389014382E+04  0.13812700731E+04  0.65864270000E+03 0.  1.
    8880022    1    1    2    0    0  0.55904715272E+03 -0.28678718814E+03 -0.55617735635E+03  0.85293933839E+03  0.15294330000E+03 0.  1.
<mgrwt>
<rscale>  0 0.83569335E+03</rscale>
<asrwt>0</asrwt>
<pdfrwt beam="1">  1        2 0.13472964E+00 0.91026964E+03</pdfrwt>
<pdfrwt beam="2">  1       -2 0.20899488E+00 0.91026964E+03</pdfrwt>
<totfact> 0.35514867E+00</totfact>
</mgrwt>
</event>
<event>
 4    1  0.8645356E-007  0.8333997E+03  0.7818608E-02  0.9642754E-01
         -2   -1    0    0    0  501 -0.00000000000E+00  0.00000000000E+00  0.29011560562E+03  0.29011560563E+03  0.25500000000E-02 0.  1.
          2   -1    0    0  501    0  0.00000000000E+00 -0.00000000000E+00 -0.22874859307E+04  0.22874859307E+04  0.25500000000E-02 0. -1.
    8880023    1    1    2    0    0  0.22822869131E+03 -0.45678933165E+03 -0.46321277189E+03  0.95347842521E+03  0.65864270000E+03 0.  1.
    8880022    1    1    2    0    0 -0.22822869131E+03  0.45678933165E+03 -0.15341575531E+04  0.16241231111E+04  0.15294330000E+03 0. -1.
<mgrwt>
<rscale>  0 0.74529958E+03</rscale>
<asrwt>0</asrwt>
<pdfrwt beam="1">  1        2 0.35192090E+00 0.83339969E+03</pdfrwt>
<pdfrwt beam="2">  1       -2 0.44633172E-01 0.83339969E+03</pdfrwt>
<totfact> 0.22557705E+01</totfact>
</mgrwt>
</event>
<event>
 4    1  0.8645356E-007  0.8784385E+03  0.7818608E-02  0.9561571E-01
         -2   -1    0    0    0  501 -0.00000000000E+00  0.00000000000E+00  0.65504138560E+03  0.65504138561E+03  0.25500000000E-02 0.  1.
          2   -1    0    0  501    0  0.00000000000E+00 -0.00000000000E+00 -0.18577521235E+04  0.18577521235E+04  0.25500000000E-02 0. -1.
    8880023    1    1    2    0    0 -0.23890336122E+03 -0.52987662644E+03  0.27259150445E+03  0.91976105039E+03  0.65864270000E+03 0.  1.
    8880022    1    1    2    0    0  0.23890336122E+03  0.52987662644E+03 -0.14753022423E+04  0.15930324587E+04  0.15294330000E+03 0.  0.
<mgrwt>
<rscale>  0 0.79892750E+03</rscale>
<asrwt>0</asrwt>
<pdfrwt beam="1">  1        2 0.28580802E+00 0.87843854E+03</pdfrwt>
<pdfrwt beam="2">  1       -2 0.10077560E+00 0.87843854E+03</pdfrwt>
<totfact> 0.65885680E+00</totfact>
</mgrwt>
</event>
<event>
 4    1  0.8645356E-007  0.7374676E+03  0.7818608E-02  0.9867386E-01
          2   -1    0    0  501    0  0.00000000000E+00  0.00000000000E+00  0.89264541501E+03  0.89264541501E+03  0.25500000000E-02 0. -1.
         -2   -1    0    0    0  501 -0.00000000000E+00 -0.00000000000E+00 -0.70338760143E+03  0.70338760144E+03  0.25500000000E-02 0.  1.
    8880023    1    1    2    0    0 -0.38735075980E+02  0.32946592270E+03 -0.44700491508E+03  0.86236407665E+03  0.65864270000E+03 0.  1.
    8880022    1    1    2    0    0  0.38735075980E+02 -0.32946592270E+03  0.63626272866E+03  0.73366893980E+03  0.15294330000E+03 0.  0.
<mgrwt>
<rscale>  0 0.61868258E+03</rscale>
<asrwt>0</asrwt>
<pdfrwt beam="1">  1        2 0.13733006E+00 0.73746756E+03</pdfrwt>
<pdfrwt beam="2">  1       -2 0.10821348E+00 0.73746756E+03</pdfrwt>
<totfact> 0.20613232E+01</totfact>
</mgrwt>
</event>
<event>
 4    1  0.8645356E-007  0.1177881E+04  0.7818608E-02  0.9178929E-01
         -2   -1    0    0    0  501 -0.00000000000E+00  0.00000000000E+00  0.18554133077E+04  0.18554133077E+04  0.25500000000E-02 0.  1.
          2   -1    0    0  501    0  0.00000000000E+00 -0.00000000000E+00 -0.12066025139E+04  0.12066025139E+04  0.25500000000E-02 0. -1.
    8880023    1    1    2    0    0  0.54880431579E+03  0.80771724955E+03  0.13933805199E+04  0.18245308470E+04  0.65864270000E+03 0.  0.
    8880022    1    1    2    0    0 -0.54880431579E+03 -0.80771724955E+03 -0.74456972609E+03  0.12374849746E+04  0.15294330000E+03 0.  0.
<mgrwt>
<rscale>  0 0.11273585E+04</rscale>
<asrwt>0</asrwt>
<pdfrwt beam="1">  1        2 0.18563116E+00 0.11778810E+04</pdfrwt>
<pdfrwt beam="2">  1       -2 0.28544820E+00 0.11778810E+04</pdfrwt>
<totfact> 0.71604212E-01</totfact>
</mgrwt>
</event>
<event>
 4    1  0.8645356E-007  0.1493354E+04  0.7818608E-02  0.8914343E-01
         -2   -1    0    0    0  501 -0.00000000000E+00  0.00000000000E+00  0.97914205719E+03  0.97914205719E+03  0.25500000000E-02 0.  1.
          2   -1    0    0  501    0  0.00000000000E+00 -0.00000000000E+00 -0.23477390501E+04  0.23477390501E+04  0.25500000000E-02 0. -1.
    8880023    1    1    2    0    0  0.12375464821E+04 -0.51456136512E+03 -0.13589814135E+03  0.14995243262E+04  0.65864270000E+03 0.  0.
    8880022    1    1    2    0    0 -0.12375464821E+04  0.51456136512E+03 -0.12326988515E+04  0.18273567811E+04  0.15294330000E+03 0.  0.
<mgrwt>
<rscale>  0 0.14558665E+04</rscale>
<asrwt>0</asrwt>
<pdfrwt beam="1">  1        2 0.36119062E+00 0.14933536E+04</pdfrwt>
<pdfrwt beam="2">  1       -2 0.15063724E+00 0.14933536E+04</pdfrwt>
<totfact> 0.11923316E+00</totfact>
</mgrwt>
</event>
<event>
 4    1  0.8645356E-007  0.8482951E+03  0.7818608E-02  0.9614733E-01
         -2   -1    0    0    0  501 -0.00000000000E+00  0.00000000000E+00  0.11328294997E+04  0.11328294997E+04  0.25500000000E-02 0.  1.
          2   -1    0    0  501    0  0.00000000000E+00 -0.00000000000E+00 -0.98017835083E+03  0.98017835084E+03  0.25500000000E-02 0. -1.
    8880023    1    1    2    0    0  0.40182531339E+03 -0.35260569456E+03  0.86353066089E+03  0.12104915394E+04  0.65864270000E+03 0.  0.
    8880022    1    1    2    0    0 -0.40182531339E+03  0.35260569456E+03 -0.71087951202E+03  0.90251631118E+03  0.15294330000E+03 0.  0.
<mgrwt>
<rscale>  0 0.76328670E+03</rscale>
<asrwt>0</asrwt>
<pdfrwt beam="1">  1        2 0.15079667E+00 0.84829509E+03</pdfrwt>
<pdfrwt beam="2">  1       -2 0.17428146E+00 0.84829509E+03</pdfrwt>
<totfact> 0.51970941E+00</totfact>
</mgrwt>
</event>
<event>
 4    1  0.8645356E-007  0.9953267E+03  0.7818608E-02  0.9387697E-01
         -2   -1    0    0    0  501 -0.00000000000E+00  0.00000000000E+00  0.89483858766E+03  0.89483858766E+03  0.25500000000E-02 0.  1.
          2   -1    0    0  501    0  0.00000000000E+00 -0.00000000000E+00 -0.10300067545E+04  0.10300067545E+04  0.25500000000E-02 0. -1.
    8880023    1    1    2    0    0  0.38551360868E+03  0.63893992847E+03  0.31009063712E+03  0.10425120547E+04  0.65864270000E+03 0.  0.
    8880022    1    1    2    0    0 -0.38551360868E+03 -0.63893992847E+03 -0.44525880396E+03  0.88233328748E+03  0.15294330000E+03 0.  0.
<mgrwt>
<rscale>  0 0.93095083E+03</rscale>
<asrwt>0</asrwt>
<pdfrwt beam="1">  1        2 0.15846258E+00 0.99532667E+03</pdfrwt>
<pdfrwt beam="2">  1       -2 0.13766748E+00 0.99532667E+03</pdfrwt>
<totfact> 0.89697100E+00</totfact>
</mgrwt>
</event>
<event>
 4    1  0.8645356E-007  0.1055534E+04  0.7818608E-02  0.9312258E-01
         -2   -1    0    0    0  501 -0.00000000000E+00  0.00000000000E+00  0.10782553440E+04  0.10782553440E+04  0.25500000000E-02 0.  1.
          2   -1    0    0  501    0  0.00000000000E+00 -0.00000000000E+00 -0.14245306419E+04  0.14245306419E+04  0.25500000000E-02 0. -1.
    8880023    1    1    2    0    0  0.15212378352E+03 -0.81067932254E+03  0.61921828166E+03  0.12237581853E+04  0.65864270000E+03 0.  0.
    8880022    1    1    2    0    0 -0.15212378352E+03  0.81067932254E+03 -0.96549357959E+03  0.12790278006E+04  0.15294330000E+03 0.  0.
<mgrwt>
<rscale>  0 0.99662178E+03</rscale>
<asrwt>0</asrwt>
<pdfrwt beam="1">  1        2 0.21915856E+00 0.10555344E+04</pdfrwt>
<pdfrwt beam="2">  1       -2 0.16588544E+00 0.10555344E+04</pdfrwt>
<totfact> 0.31507284E+00</totfact>
</mgrwt>
</event>
<event>
 4    1  0.8645356E-007  0.7017066E+03  0.7818608E-02  0.9990194E-01
          2   -1    0    0  501    0  0.00000000000E+00  0.00000000000E+00  0.92264771330E+03  0.92264771330E+03  0.25500000000E-02 0. -1.
         -2   -1    0    0    0  501 -0.00000000000E+00 -0.00000000000E+00 -0.55155782049E+03  0.55155782049E+03  0.25500000000E-02 0.  1.
    8880023    1    1    2    0    0 -0.19537359605E+03  0.14286765142E+03 -0.28576532248E+03  0.75766353591E+03  0.65864270000E+03 0.  1.
    8880022    1    1    2    0    0  0.19537359605E+03 -0.14286765142E+03  0.65685521530E+03  0.71654199788E+03  0.15294330000E+03 0.  0.
<mgrwt>
<rscale>  0 0.56082322E+03</rscale>
<asrwt>0</asrwt>
<pdfrwt beam="1">  1        2 0.14194580E+00 0.70170664E+03</pdfrwt>
<pdfrwt beam="2">  1       -2 0.84855050E-01 0.70170664E+03</pdfrwt>
<totfact> 0.34920806E+01</totfact>
</mgrwt>
</event>
<event>
 4    1  0.8645356E-007  0.6817628E+03  0.7818608E-02  0.1008344E+00
          2   -1    0    0  501    0  0.00000000000E+00  0.00000000000E+00  0.88375010759E+03  0.88375010759E+03  0.25500000000E-02 0. -1.
         -2   -1    0    0    0  501 -0.00000000000E+00 -0.00000000000E+00 -0.62511663801E+03  0.62511663801E+03  0.25500000000E-02 0.  1.
    8880023    1    1    2    0    0  0.14223447196E+03  0.10372849805E+03 -0.41354648112E+03  0.79738393803E+03  0.65864270000E+03 0.  1.
    8880022    1    1    2    0    0 -0.14223447196E+03 -0.10372849805E+03  0.67217995071E+03  0.71148280757E+03  0.15294330000E+03 0.  0.
<mgrwt>
<rscale>  0 0.52138286E+03</rscale>
<asrwt>0</asrwt>
<pdfrwt beam="1">  1        2 0.13596155E+00 0.68176275E+03</pdfrwt>
<pdfrwt beam="2">  1       -2 0.96171791E-01 0.68176275E+03</pdfrwt>
<totfact> 0.27834382E+01</totfact>
</mgrwt>
</event>
<event>
 4    1  0.8645356E-007  0.8186290E+03  0.7818608E-02  0.9671876E-01
          2   -1    0    0  501    0  0.00000000000E+00  0.00000000000E+00  0.69814472205E+03  0.69814472206E+03  0.25500000000E-02 0. -1.
         -2   -1    0    0    0  501 -0.00000000000E+00 -0.00000000000E+00 -0.73876338113E+03  0.73876338114E+03  0.25500000000E-02 0.  1.
    8880023    1    1    2    0    0  0.71910603637E+02  0.48080359754E+03 -0.29134857220E+03  0.86892889876E+03  0.65864270000E+03 0.  0.
    8880022    1    1    2    0    0 -0.71910603637E+02 -0.48080359754E+03  0.25072991312E+03  0.56797920443E+03  0.15294330000E+03 0.  0.
<mgrwt>
<rscale>  0 0.72716276E+03</rscale>
<asrwt>0</asrwt>
<pdfrwt beam="1">  1        2 0.10740688E+00 0.81862900E+03</pdfrwt>
<pdfrwt beam="2">  1       -2 0.11365590E+00 0.81862900E+03</pdfrwt>
<totfact> 0.25138884E+01</totfact>
</mgrwt>
</event>
<event>
 4    1  0.8645356E-007  0.9001437E+03  0.7818608E-02  0.9525801E-01
         -2   -1    0    0    0  501 -0.00000000000E+00  0.00000000000E+00  0.30393013273E+03  0.30393013274E+03  0.25500000000E-02 0.  1.
          2   -1    0    0  501    0  0.00000000000E+00 -0.00000000000E+00 -0.20206752029E+04  0.20206752029E+04  0.25500000000E-02 0. -1.
    8880023    1    1    2    0    0 -0.40731838223E+03  0.45884661730E+03 -0.76154364998E+03  0.11790705746E+04  0.65864270000E+03 0.  0.
    8880022    1    1    2    0    0  0.40731838223E+03 -0.45884661730E+03 -0.95520142021E+03  0.11455347611E+04  0.15294330000E+03 0.  0.
<mgrwt>
<rscale>  0 0.82408059E+03</rscale>
<asrwt>0</asrwt>
<pdfrwt beam="1">  1        2 0.31087310E+00 0.90014370E+03</pdfrwt>
<pdfrwt beam="2">  1       -2 0.46758483E-01 0.90014370E+03</pdfrwt>
<totfact> 0.28626198E+01</totfact>
</mgrwt>
</event>
<event>
 4    1  0.9649875E-007  0.8503626E+03  0.7818608E-02  0.9610942E-01
         -2   -1    0    0    0  501 -0.00000000000E+00  0.00000000000E+00  0.98664916846E+03  0.98664916847E+03  0.25500000000E-02 0.  1.
          2   -1    0    0  501    0  0.00000000000E+00 -0.00000000000E+00 -0.25855637375E+04  0.25855637375E+04  0.25500000000E-02 0. -1.
    8880023    1    1    2    0    0 -0.39942007100E+03  0.36023606204E+03  0.76453167067E+03  0.11435144491E+04  0.65864270000E+03 0.  1.
    8880022    1    1    2    0    0  0.39942007100E+03 -0.36023606204E+03 -0.23634462397E+04  0.24286984569E+04  0.15294330000E+03 0.  0.
<mgrwt>
<rscale>  0 0.76576194E+03</rscale>
<asrwt>0</asrwt>
<pdfrwt beam="1">  1        2 0.39777903E+00 0.85036264E+03</pdfrwt>
<pdfrwt beam="2">  1       -2 0.15179218E+00 0.85036264E+03</pdfrwt>
<totfact> 0.93149549E-01</totfact>
</mgrwt>
</event>
<event>
 4    1  0.9149566E-007  0.7669957E+03  0.7818608E-02  0.9787322E-01
          2   -1    0    0  501    0  0.00000000000E+00  0.00000000000E+00  0.18701090865E+04  0.18701090865E+04  0.25500000000E-02 0. -1.
         -2   -1    0    0    0  501 -0.00000000000E+00 -0.00000000000E+00 -0.82403709560E+03  0.82403709560E+03  0.25500000000E-02 0.  1.
    8880023    1    1    2    0    0  0.33997787528E+03 -0.19719866241E+03 -0.61328148476E+03  0.98203699215E+03  0.65864270000E+03 0.  1.
    8880022    1    1    2    0    0 -0.33997787528E+03  0.19719866241E+03  0.16593534756E+04  0.17121091899E+04  0.15294330000E+03 0.  0.
<mgrwt>
<rscale>  0 0.66047396E+03</rscale>
<asrwt>0</asrwt>
<pdfrwt beam="1">  1        2 0.28770909E+00 0.76699575E+03</pdfrwt>
<pdfrwt beam="2">  1       -2 0.12677494E+00 0.76699575E+03</pdfrwt>
<totfact> 0.37624651E+00</totfact>
</mgrwt>
</event>
<event>
 4    1  0.8645356E-007  0.6784237E+03  0.7818608E-02  0.1010230E+00
         -2   -1    0    0    0  501 -0.00000000000E+00  0.00000000000E+00  0.19594080462E+03  0.19594080464E+03  0.25500000000E-02 0.  1.
          2   -1    0    0  501    0  0.00000000000E+00 -0.00000000000E+00 -0.15689975163E+04  0.15689975163E+04  0.25500000000E-02 0. -1.
    8880023    1    1    2    0    0 -0.11014946824E+03  0.11964768385E+03 -0.44722219714E+03  0.81256776547E+03  0.65864270000E+03 0.  1.
    8880022    1    1    2    0    0  0.11014946824E+03 -0.11964768385E+03 -0.92583451456E+03  0.95237055549E+03  0.15294330000E+03 0.  0.
<mgrwt>
<rscale>  0 0.51383435E+03</rscale>
<asrwt>0</asrwt>
<pdfrwt beam="1">  1        2 0.24138422E+00 0.67842367E+03</pdfrwt>
<pdfrwt beam="2">  1       -2 0.30144740E-01 0.67842367E+03</pdfrwt>
<totfact> 0.12087018E+02</totfact>
</mgrwt>
</event>
<event>
 4    1  0.8645356E-007  0.6693464E+03  0.7818608E-02  0.1016136E+00
          2   -1    0    0  501    0  0.00000000000E+00  0.00000000000E+00  0.45915684145E+03  0.45915684146E+03  0.25500000000E-02 0. -1.
         -2   -1    0    0    0  501 -0.00000000000E+00 -0.00000000000E+00 -0.95534233977E+03  0.95534233978E+03  0.25500000000E-02 0.  1.
    8880023    1    1    2    0    0 -0.23036833018E+02  0.11697718464E+03 -0.80680692356E+03  0.10483138726E+04  0.65864270000E+03 0.  1.
    8880022    1    1    2    0    0  0.23036833018E+02 -0.11697718464E+03  0.31062142524E+03  0.36618530860E+03  0.15294330000E+03 0.  0.
<mgrwt>
<rscale>  0 0.49107219E+03</rscale>
<asrwt>0</asrwt>
<pdfrwt beam="1">  1        2 0.70639514E-01 0.66934637E+03</pdfrwt>
<pdfrwt beam="2">  1       -2 0.14697574E+00 0.66934637E+03</pdfrwt>
<totfact> 0.21927309E+01</totfact>
</mgrwt>
</event>
<event>
 4    1  0.8645356E-007  0.1134913E+04  0.7818608E-02  0.9223145E-01
          2   -1    0    0  501    0  0.00000000000E+00  0.00000000000E+00  0.35564225490E+03  0.35564225491E+03  0.25500000000E-02 0. -1.
         -2   -1    0    0    0  501 -0.00000000000E+00 -0.00000000000E+00 -0.33908433828E+04  0.33908433828E+04  0.25500000000E-02 0.  1.
    8880023    1    1    2    0    0 -0.80686089062E+03  0.45076987512E+03 -0.22660993273E+04  0.25344100584E+04  0.65864270000E+03 0.  0.
    8880022    1    1    2    0    0  0.80686089062E+03 -0.45076987512E+03 -0.76910180069E+03  0.12120755793E+04  0.15294330000E+03 0.  0.
<mgrwt>
<rscale>  0 0.10817694E+04</rscale>
<asrwt>0</asrwt>
<pdfrwt beam="1">  1        2 0.54714195E-01 0.11349133E+04</pdfrwt>
<pdfrwt beam="2">  1       -2 0.52166819E+00 0.11349133E+04</pdfrwt>
<totfact> 0.10984259E-01</totfact>
</mgrwt>
</event>
<event>
 4    1  0.8645356E-007  0.8273538E+03  0.7818608E-02  0.9654503E-01
         -2   -1    0    0    0  501 -0.00000000000E+00  0.00000000000E+00  0.12368203490E+03  0.12368203493E+03  0.25500000000E-02 0.  1.
          2   -1    0    0  501    0  0.00000000000E+00 -0.00000000000E+00 -0.47355947793E+04  0.47355947793E+04  0.25500000000E-02 0. -1.
    8880023    1    1    2    0    0 -0.49521011548E+03  0.73966032392E+02 -0.15902921812E+04  0.17926358973E+04  0.65864270000E+03 0.  0.
    8880022    1    1    2    0    0  0.49521011548E+03 -0.73966032392E+02 -0.30216205631E+04  0.30666409169E+04  0.15294330000E+03 0.  0.
<mgrwt>
<rscale>  0 0.73791478E+03</rscale>
<asrwt>0</asrwt>
<pdfrwt beam="1">  1        2 0.72855290E+00 0.82735376E+03</pdfrwt>
<pdfrwt beam="2">  1       -2 0.19028009E-01 0.82735376E+03</pdfrwt>
<totfact> 0.18448974E+00</totfact>
</mgrwt>
</event>
<event>
 4    1  0.8645356E-007  0.6592373E+03  0.7818608E-02  0.1024952E+00
          2   -1    0    0  501    0  0.00000000000E+00  0.00000000000E+00  0.67479145655E+03  0.67479145656E+03  0.25500000000E-02 0. -1.
         -2   -1    0    0    0  501 -0.00000000000E+00 -0.00000000000E+00 -0.41007387737E+03  0.41007387737E+03  0.25500000000E-02 0.  1.
    8880023    1    1    2    0    0 -0.27330346837E+02 -0.60582536483E+01 -0.11986077132E+03  0.67004511867E+03  0.65864270000E+03 0.  1.
    8880022    1    1    2    0    0  0.27330346837E+02  0.60582536483E+01  0.38457835051E+03  0.41482021526E+03  0.15294330000E+03 0.  0.
<mgrwt>
<rscale>  0 0.45941253E+03</rscale>
<asrwt>0</asrwt>
<pdfrwt beam="1">  1        2 0.10381407E+00 0.65923733E+03</pdfrwt>
<pdfrwt beam="2">  1       -2 0.63088289E-01 0.65923733E+03</pdfrwt>
<totfact> 0.10164469E+02</totfact>
</mgrwt>
</event>
<event>
 4    1  0.8645356E-007  0.7400013E+03  0.7818608E-02  0.9859943E-01
         -2   -1    0    0    0  501 -0.00000000000E+00  0.00000000000E+00  0.42625516648E+03  0.42625516649E+03  0.25500000000E-02 0.  1.
          2   -1    0    0  501    0  0.00000000000E+00 -0.00000000000E+00 -0.20389152861E+04  0.20389152861E+04  0.25500000000E-02 0. -1.
    8880023    1    1    2    0    0 -0.24169878035E+03 -0.23531565820E+03  0.68994384201E+02  0.74321073104E+03  0.65864270000E+03 0.  0.
    8880022    1    1    2    0    0  0.24169878035E+03  0.23531565820E+03 -0.16816545038E+04  0.17219597216E+04  0.15294330000E+03 0.  0.
<mgrwt>
<rscale>  0 0.62242507E+03</rscale>
<asrwt>0</asrwt>
<pdfrwt beam="1">  1        2 0.31367927E+00 0.74000133E+03</pdfrwt>
<pdfrwt beam="2">  1       -2 0.65577719E-01 0.74000133E+03</pdfrwt>
<totfact> 0.14121629E+01</totfact>
</mgrwt>
</event>
<event>
 4    1  0.8645356E-007  0.1243819E+04  0.7818608E-02  0.9115661E-01
         -2   -1    0    0    0  501 -0.00000000000E+00  0.00000000000E+00  0.91572040244E+03  0.91572040244E+03  0.25500000000E-02 0.  1.
          2   -1    0    0  501    0  0.00000000000E+00 -0.00000000000E+00 -0.30943014186E+04  0.30943014186E+04  0.25500000000E-02 0. -1.
    8880023    1    1    2    0    0 -0.98560228532E+03 -0.37664793063E+03  0.32781706442E+03  0.12862930313E+04  0.65864270000E+03 0.  0.
    8880022    1    1    2    0    0  0.98560228532E+03  0.37664793063E+03 -0.25063980806E+04  0.27237287897E+04  0.15294330000E+03 0.  0.
<mgrwt>
<rscale>  0 0.11968013E+04</rscale>
<asrwt>0</asrwt>
<pdfrwt beam="1">  1        2 0.47604637E+00 0.12438190E+04</pdfrwt>
<pdfrwt beam="2">  1       -2 0.14088006E+00 0.12438190E+04</pdfrwt>
<totfact> 0.52609961E-01</totfact>
</mgrwt>
</event>
<event>
 4    1  0.8645356E-007  0.8657364E+03  0.7818608E-02  0.9583440E-01
          2   -1    0    0  501    0  0.00000000000E+00  0.00000000000E+00  0.21224116156E+04  0.21224116156E+04  0.25500000000E-02 0. -1.
         -2   -1    0    0    0  501 -0.00000000000E+00 -0.00000000000E+00 -0.47831812858E+03  0.47831812858E+03  0.25500000000E-02 0.  1.
    8880023    1    1    2    0    0 -0.55412718149E+03 -0.92910166833E+02  0.97958172161E+01  0.86579177442E+03  0.65864270000E+03 0.  0.
    8880022    1    1    2    0    0  0.55412718149E+03  0.92910166833E+02  0.16342976698E+04  0.17349379697E+04  0.15294330000E+03 0.  0.
<mgrwt>
<rscale>  0 0.78402003E+03</rscale>
<asrwt>0</asrwt>
<pdfrwt beam="1">  1        2 0.32652487E+00 0.86573636E+03</pdfrwt>
<pdfrwt beam="2">  1       -2 0.73587404E-01 0.86573636E+03</pdfrwt>
<totfact> 0.97093438E+00</totfact>
</mgrwt>
</event>
<event>
 4    1  0.8645356E-007  0.7202421E+03  0.7818608E-02  0.9921768E-01
          2   -1    0    0  501    0  0.00000000000E+00  0.00000000000E+00  0.71707163821E+03  0.71707163821E+03  0.25500000000E-02 0. -1.
         -2   -1    0    0    0  501 -0.00000000000E+00 -0.00000000000E+00 -0.38597387609E+03  0.38597387610E+03  0.25500000000E-02 0.  1.
    8880023    1    1    2    0    0 -0.16074626266E+03  0.24310317174E+03  0.18957442402E+03  0.74477324171E+03  0.65864270000E+03 0.  0.
    8880022    1    1    2    0    0  0.16074626266E+03 -0.24310317174E+03  0.14152333810E+03  0.35827227259E+03  0.15294330000E+03 0.  1.
<mgrwt>
<rscale>  0 0.59217840E+03</rscale>
<asrwt>0</asrwt>
<pdfrwt beam="1">  1        2 0.11031871E+00 0.72024213E+03</pdfrwt>
<pdfrwt beam="2">  1       -2 0.59380596E-01 0.72024213E+03</pdfrwt>
<totfact> 0.10663065E+02</totfact>
</mgrwt>
</event>
<event>
 4    1  0.8645356E-007  0.1240088E+04  0.7818608E-02  0.9119105E-01
         -2   -1    0    0    0  501 -0.00000000000E+00  0.00000000000E+00  0.81486483383E+03  0.81486483383E+03  0.25500000000E-02 0.  1.
          2   -1    0    0  501    0  0.00000000000E+00 -0.00000000000E+00 -0.17584557886E+04  0.17584557886E+04  0.25500000000E-02 0. -1.
    8880023    1    1    2    0    0 -0.64888862029E+03 -0.82640944206E+03 -0.85822914338E+03  0.15081036026E+04  0.65864270000E+03 0.  1.
    8880022    1    1    2    0    0  0.64888862029E+03  0.82640944206E+03 -0.85361811428E+02  0.10652170198E+04  0.15294330000E+03 0.  0.
<mgrwt>
<rscale>  0 0.11928869E+04</rscale>
<asrwt>0</asrwt>
<pdfrwt beam="1">  1        2 0.27053166E+00 0.12400884E+04</pdfrwt>
<pdfrwt beam="2">  1       -2 0.12536382E+00 0.12400884E+04</pdfrwt>
<totfact> 0.42051462E+00</totfact>
</mgrwt>
</event>
<event>
 4    1  0.8645356E-007  0.6913739E+03  0.7818608E-02  0.1003506E+00
         -2   -1    0    0    0  501 -0.00000000000E+00  0.00000000000E+00  0.53610192400E+03  0.53610192401E+03  0.25500000000E-02 0.  1.
          2   -1    0    0  501    0  0.00000000000E+00 -0.00000000000E+00 -0.91743342159E+03  0.91743342160E+03  0.25500000000E-02 0. -1.
    8880023    1    1    2    0    0  0.30153768891E+02 -0.20803468284E+03  0.27771881390E+03  0.74506753043E+03  0.65864270000E+03 0.  1.
    8880022    1    1    2    0    0 -0.30153768891E+02  0.20803468284E+03 -0.65905031150E+03  0.70846781518E+03  0.15294330000E+03 0.  0.
<mgrwt>
<rscale>  0 0.54139156E+03</rscale>
<asrwt>0</asrwt>
<pdfrwt beam="1">  1        2 0.14114360E+00 0.69137391E+03</pdfrwt>
<pdfrwt beam="2">  1       -2 0.82477219E-01 0.69137391E+03</pdfrwt>
<totfact> 0.37580606E+01</totfact>
</mgrwt>
</event>
<event>
 4    1  0.8645356E-007  0.9678231E+03  0.7818608E-02  0.9424921E-01
         -2   -1    0    0    0  501 -0.00000000000E+00  0.00000000000E+00  0.64505035269E+03  0.64505035270E+03  0.25500000000E-02 0.  1.
          2   -1    0    0  501    0  0.00000000000E+00 -0.00000000000E+00 -0.11153363917E+04  0.11153363917E+04  0.25500000000E-02 0. -1.
    8880023    1    1    2    0    0  0.64688842636E+03  0.29052818419E+03 -0.32168273000E+03  0.10198829575E+04  0.65864270000E+03 0.  1.
    8880022    1    1    2    0    0 -0.64688842636E+03 -0.29052818419E+03 -0.14860330902E+03  0.74050378691E+03  0.15294330000E+03 0. -1.
<mgrwt>
<rscale>  0 0.90052820E+03</rscale>
<asrwt>0</asrwt>
<pdfrwt beam="1">  1        2 0.17159021E+00 0.96782306E+03</pdfrwt>
<pdfrwt beam="2">  1       -2 0.99238515E-01 0.96782306E+03</pdfrwt>
<totfact> 0.17871830E+01</totfact>
</mgrwt>
</event>
<event>
 4    1  0.9545013E-007  0.1330490E+04  0.7818608E-02  0.9039667E-01
          2   -1    0    0  501    0  0.00000000000E+00  0.00000000000E+00  0.17243708584E+04  0.17243708585E+04  0.25500000000E-02 0. -1.
         -2   -1    0    0    0  501 -0.00000000000E+00 -0.00000000000E+00 -0.22828342169E+04  0.22828342169E+04  0.25500000000E-02 0.  1.
    8880023    1    1    2    0    0  0.10027423116E+04 -0.57524072794E+03 -0.18425167656E+04  0.22726795367E+04  0.65864270000E+03 0.  1.
    8880022    1    1    2    0    0 -0.10027423116E+04  0.57524072794E+03  0.12840534072E+04  0.17345255386E+04  0.15294330000E+03 0.  0.
<mgrwt>
<rscale>  0 0.12873380E+04</rscale>
<asrwt>0</asrwt>
<pdfrwt beam="1">  1        2 0.26528782E+00 0.13304902E+04</pdfrwt>
<pdfrwt beam="2">  1       -2 0.35120527E+00 0.13304902E+04</pdfrwt>
<totfact> 0.13975465E-01</totfact>
</mgrwt>
</event>
<event>
 4    1  0.8645356E-007  0.7477374E+03  0.7818608E-02  0.9837956E-01
         -2   -1    0    0    0  501 -0.00000000000E+00  0.00000000000E+00  0.18900447229E+03  0.18900447231E+03  0.25500000000E-02 0.  1.
          2   -1    0    0  501    0  0.00000000000E+00 -0.00000000000E+00 -0.28242830889E+04  0.28242830889E+04  0.25500000000E-02 0. -1.
    8880023    1    1    2    0    0  0.32276647958E+03 -0.14533694941E+03 -0.24922596777E+04  0.26020125935E+04  0.65864270000E+03 0. -1.
    8880022    1    1    2    0    0 -0.32276647958E+03  0.14533694941E+03 -0.14301893891E+03  0.41127496776E+03  0.15294330000E+03 0.  0.
<mgrwt>
<rscale>  0 0.63364795E+03</rscale>
<asrwt>0</asrwt>
<pdfrwt beam="1">  1        2 0.43450506E+00 0.74773741E+03</pdfrwt>
<pdfrwt beam="2">  1       -2 0.29077613E-01 0.74773741E+03</pdfrwt>
<totfact> 0.25577985E+01</totfact>
</mgrwt>
</event>
<event>
 4    1  0.8645356E-007  0.1093435E+04  0.7818608E-02  0.9268401E-01
         -2   -1    0    0    0  501 -0.00000000000E+00  0.00000000000E+00  0.44251079484E+03  0.44251079485E+03  0.25500000000E-02 0.  1.
          2   -1    0    0  501    0  0.00000000000E+00 -0.00000000000E+00 -0.31542139564E+04  0.31542139564E+04  0.25500000000E-02 0. -1.
    8880023    1    1    2    0    0  0.71287127103E+03  0.50359143296E+03 -0.47737120701E+03  0.11930981753E+04  0.65864270000E+03 0.  1.
    8880022    1    1    2    0    0 -0.71287127103E+03 -0.50359143296E+03 -0.22343319545E+04  0.24036265759E+04  0.15294330000E+03 0.  0.
<mgrwt>
<rscale>  0 0.10374471E+04</rscale>
<asrwt>0</asrwt>
<pdfrwt beam="1">  1        2 0.48526367E+00 0.10934349E+04</pdfrwt>
<pdfrwt beam="2">  1       -2 0.68078586E-01 0.10934349E+04</pdfrwt>
<totfact> 0.27767199E+00</totfact>
</mgrwt>
</event>
<event>
 4    1  0.8645356E-007  0.7817411E+03  0.7818608E-02  0.9751763E-01
          2   -1    0    0  501    0  0.00000000000E+00  0.00000000000E+00  0.38252002626E+03  0.38252002627E+03  0.25500000000E-02 0. -1.
         -2   -1    0    0    0  501 -0.00000000000E+00 -0.00000000000E+00 -0.20760774859E+04  0.20760774859E+04  0.25500000000E-02 0.  1.
    8880023    1    1    2    0    0  0.28261757486E+03  0.31214789883E+03 -0.18302515185E+04  0.19902110018E+04  0.65864270000E+03 0.  1.
    8880022    1    1    2    0    0 -0.28261757486E+03 -0.31214789883E+03  0.13669405887E+03  0.46838651038E+03  0.15294330000E+03 0.  0.
<mgrwt>
<rscale>  0 0.68016742E+03</rscale>
<asrwt>0</asrwt>
<pdfrwt beam="1">  1        2 0.58849236E-01 0.78174114E+03</pdfrwt>
<pdfrwt beam="2">  1       -2 0.31939653E+00 0.78174114E+03</pdfrwt>
<totfact> 0.21015625E+00</totfact>
</mgrwt>
</event>
<event>
 4    1  0.8645356E-007  0.9335037E+03  0.7818608E-02  0.9474257E-01
         -2   -1    0    0    0  501 -0.00000000000E+00  0.00000000000E+00  0.72644404030E+03  0.72644404031E+03  0.25500000000E-02 0.  1.
          2   -1    0    0  501    0  0.00000000000E+00 -0.00000000000E+00 -0.13267667218E+04  0.13267667218E+04  0.25500000000E-02 0. -1.
    8880023    1    1    2    0    0 -0.66150940014E+03  0.49247516766E+01  0.24871622973E+03  0.96606879095E+03  0.65864270000E+03 0.  1.
    8880022    1    1    2    0    0  0.66150940014E+03 -0.49247516766E+01 -0.84903891118E+03  0.10871419711E+04  0.15294330000E+03 0.  0.
<mgrwt>
<rscale>  0 0.86208660E+03</rscale>
<asrwt>0</asrwt>
<pdfrwt beam="1">  1        2 0.20411796E+00 0.93350369E+03</pdfrwt>
<pdfrwt beam="2">  1       -2 0.11176062E+00 0.93350369E+03</pdfrwt>
<totfact> 0.10085139E+01</totfact>
</mgrwt>
</event>
<event>
 4    1  0.8645356E-007  0.8206318E+03  0.7818608E-02  0.9667843E-01
          2   -1    0    0  501    0  0.00000000000E+00  0.00000000000E+00  0.31063148060E+04  0.31063148060E+04  0.25500000000E-02 0. -1.
         -2   -1    0    0    0  501 -0.00000000000E+00 -0.00000000000E+00 -0.33938336012E+03  0.33938336013E+03  0.25500000000E-02 0.  1.
    8880023    1    1    2    0    0 -0.48471335514E+03 -0.68405325447E+02  0.22272851228E+03  0.85032024652E+03  0.65864270000E+03 0.  0.
    8880022    1    1    2    0    0  0.48471335514E+03  0.68405325447E+02  0.25442029336E+04  0.25953779196E+04  0.15294330000E+03 0.  0.
<mgrwt>
<rscale>  0 0.72964134E+03</rscale>
<asrwt>0</asrwt>
<pdfrwt beam="1">  1        2 0.47789460E+00 0.82063179E+03</pdfrwt>
<pdfrwt beam="2">  1       -2 0.52212823E-01 0.82063179E+03</pdfrwt>
<totfact> 0.54485468E+00</totfact>
</mgrwt>
</event>
<event>
 4    1  0.8645356E-007  0.9723306E+03  0.7818608E-02  0.9418688E-01
          2   -1    0    0  501    0  0.00000000000E+00  0.00000000000E+00  0.84678768859E+03  0.84678768860E+03  0.25500000000E-02 0. -1.
         -2   -1    0    0    0  501 -0.00000000000E+00 -0.00000000000E+00 -0.14750070456E+04  0.14750070456E+04  0.25500000000E-02 0.  1.
    8880023    1    1    2    0    0 -0.64974040336E+03 -0.29908866328E+03 -0.10869654699E+04  0.14583966399E+04  0.65864270000E+03 0.  1.
    8880022    1    1    2    0    0  0.64974040336E+03  0.29908866328E+03  0.45874611284E+03  0.86339809434E+03  0.15294330000E+03 0.  0.
<mgrwt>
<rscale>  0 0.90553561E+03</rscale>
<asrwt>0</asrwt>
<pdfrwt beam="1">  1        2 0.13027503E+00 0.97233062E+03</pdfrwt>
<pdfrwt beam="2">  1       -2 0.22692416E+00 0.97233062E+03</pdfrwt>
<totfact> 0.28454121E+00</totfact>
</mgrwt>
</event>
<event>
 4    1  0.1089874E-006  0.6694064E+03  0.7818608E-02  0.1016092E+00
          2   -1    0    0  501    0  0.00000000000E+00  0.00000000000E+00  0.14115145387E+04  0.14115145387E+04  0.25500000000E-02 0. -1.
         -2   -1    0    0    0  501 -0.00000000000E+00 -0.00000000000E+00 -0.85825298704E+03  0.85825298705E+03  0.25500000000E-02 0.  1.
    8880023    1    1    2    0    0  0.10870101929E+02 -0.11906514086E+03 -0.71923409890E+03  0.98254901260E+03  0.65864270000E+03 0.  1.
    8880022    1    1    2    0    0 -0.10870101929E+02  0.11906514086E+03  0.12724956506E+04  0.12872185131E+04  0.15294330000E+03 0.  0.
<mgrwt>
<rscale>  0 0.49123618E+03</rscale>
<asrwt>0</asrwt>
<pdfrwt beam="1">  1        2 0.21715608E+00 0.66940636E+03</pdfrwt>
<pdfrwt beam="2">  1       -2 0.13203892E+00 0.66940636E+03</pdfrwt>
<totfact> 0.61674136E+00</totfact>
</mgrwt>
</event>
<event>
 4    1  0.8645356E-007  0.6853370E+03  0.7818608E-02  0.1006453E+00
         -2   -1    0    0    0  501 -0.00000000000E+00  0.00000000000E+00  0.68319331642E+03  0.68319331642E+03  0.25500000000E-02 0.  1.
          2   -1    0    0  501    0  0.00000000000E+00 -0.00000000000E+00 -0.32927164047E+03  0.32927164048E+03  0.25500000000E-02 0. -1.
    8880023    1    1    2    0    0 -0.36445415283E+02 -0.18587188880E+03  0.34872734552E+03  0.76895877335E+03  0.65864270000E+03 0.  0.
    8880022    1    1    2    0    0  0.36445415283E+02  0.18587188880E+03  0.51943304323E+01  0.24350618355E+03  0.15294330000E+03 0.  1.
<mgrwt>
<rscale>  0 0.52909168E+03</rscale>
<asrwt>0</asrwt>
<pdfrwt beam="1">  1        2 0.50657175E-01 0.68533702E+03</pdfrwt>
<pdfrwt beam="2">  1       -2 0.10510666E+00 0.68533702E+03</pdfrwt>
<totfact> 0.73560092E+01</totfact>
</mgrwt>
</event>
<event>
 4    1  0.8645356E-007  0.7277811E+03  0.7818608E-02  0.9897086E-01
          2   -1    0    0  501    0  0.00000000000E+00  0.00000000000E+00  0.12637976359E+04  0.12637976359E+04  0.25500000000E-02 0. -1.
         -2   -1    0    0    0  501 -0.00000000000E+00 -0.00000000000E+00 -0.23567327147E+03  0.23567327148E+03  0.25500000000E-02 0.  1.
    8880023    1    1    2    0    0  0.27854449276E+03 -0.13515962078E+03  0.56276770380E+03  0.91998524567E+03  0.65864270000E+03 0.  1.
    8880022    1    1    2    0    0 -0.27854449276E+03  0.13515962078E+03  0.46535666066E+03  0.57948566175E+03  0.15294330000E+03 0. -1.
<mgrwt>
<rscale>  0 0.60402712E+03</rscale>
<asrwt>0</asrwt>
<pdfrwt beam="1">  1        2 0.19443040E+00 0.72778112E+03</pdfrwt>
<pdfrwt beam="2">  1       -2 0.36257427E-01 0.72778112E+03</pdfrwt>
<totfact> 0.12628096E+02</totfact>
</mgrwt>
</event>
<event>
 4    1  0.8645356E-007  0.9788733E+03  0.7818608E-02  0.9409735E-01
         -2   -1    0    0    0  501 -0.00000000000E+00  0.00000000000E+00  0.31722351783E+03  0.31722351784E+03  0.25500000000E-02 0.  1.
          2   -1    0    0  501    0  0.00000000000E+00 -0.00000000000E+00 -0.28841080039E+04  0.28841080039E+04  0.25500000000E-02 0. -1.
    8880023    1    1    2    0    0 -0.46008404111E+03  0.55920063831E+03 -0.73047077072E+03  0.12213846372E+04  0.65864270000E+03 0.  0.
    8880022    1    1    2    0    0  0.46008404111E+03 -0.55920063831E+03 -0.18364137153E+04  0.19799468846E+04  0.15294330000E+03 0.  0.
<mgrwt>
<rscale>  0 0.91278830E+03</rscale>
<asrwt>0</asrwt>
<pdfrwt beam="1">  1        2 0.44370891E+00 0.97887327E+03</pdfrwt>
<pdfrwt beam="2">  1       -2 0.48803620E-01 0.97887327E+03</pdfrwt>
<totfact> 0.83595181E+00</totfact>
</mgrwt>
</event>
<event>
 4    1  0.8645356E-007  0.7242926E+03  0.7818608E-02  0.9908320E-01
          2   -1    0    0  501    0  0.00000000000E+00  0.00000000000E+00  0.85019235726E+03  0.85019235726E+03  0.25500000000E-02 0. -1.
         -2   -1    0    0    0  501 -0.00000000000E+00 -0.00000000000E+00 -0.11511525717E+04  0.11511525717E+04  0.25500000000E-02 0.  1.
    8880023    1    1    2    0    0  0.27953094165E+03  0.11248098092E+03 -0.99424815170E+03  0.12300931314E+04  0.65864270000E+03 0.  1.
    8880022    1    1    2    0    0 -0.27953094165E+03 -0.11248098092E+03  0.69328793723E+03  0.77125179763E+03  0.15294330000E+03 0.  0.
<mgrwt>
<rscale>  0 0.59859741E+03</rscale>
<asrwt>0</asrwt>
<pdfrwt beam="1">  1        2 0.13079882E+00 0.72429257E+03</pdfrwt>
<pdfrwt beam="2">  1       -2 0.17710040E+00 0.72429257E+03</pdfrwt>
<totfact> 0.61629610E+00</totfact>
</mgrwt>
</event>
<event>
 4    1  0.8645356E-007  0.7567163E+03  0.7818608E-02  0.9813684E-01
         -2   -1    0    0    0  501 -0.00000000000E+00  0.00000000000E+00  0.25277631240E+03  0.25277631241E+03  0.25500000000E-02 0.  1.
          2   -1    0    0  501    0  0.00000000000E+00 -0.00000000000E+00 -0.19713761645E+04  0.19713761645E+04  0.25500000000E-02 0. -1.
    8880023    1    1    2    0    0 -0.34217006663E+03  0.14740745163E+03 -0.42197312301E+03  0.86641839437E+03  0.65864270000E+03 0.  0.
    8880022    1    1    2    0    0  0.34217006663E+03 -0.14740745163E+03 -0.12966267291E+04  0.13577340826E+04  0.15294330000E+03 0.  0.
<mgrwt>
<rscale>  0 0.64633323E+03</rscale>
<asrwt>0</asrwt>
<pdfrwt beam="1">  1        2 0.30328863E+00 0.75671627E+03</pdfrwt>
<pdfrwt beam="2">  1       -2 0.38888665E-01 0.75671627E+03</pdfrwt>
<totfact> 0.44576021E+01</totfact>
</mgrwt>
</event>
<event>
 4    1  0.8645356E-007  0.7103413E+03  0.7818608E-02  0.9956736E-01
         -2   -1    0    0    0  501 -0.00000000000E+00  0.00000000000E+00  0.51965410225E+03  0.51965410225E+03  0.25500000000E-02 0.  1.
          2   -1    0    0  501    0  0.00000000000E+00 -0.00000000000E+00 -0.21425955431E+04  0.21425955431E+04  0.25500000000E-02 0. -1.
    8880023    1    1    2    0    0 -0.24716912490E+03  0.98396908600E+02  0.25852466506E+03  0.75592310233E+03  0.65864270000E+03 0.  1.
    8880022    1    1    2    0    0  0.24716912490E+03 -0.98396908600E+02 -0.18814661059E+04  0.19063265430E+04  0.15294330000E+03 0.  0.
<mgrwt>
<rscale>  0 0.57588685E+03</rscale>
<asrwt>0</asrwt>
<pdfrwt beam="1">  1        2 0.32963008E+00 0.71034128E+03</pdfrwt>
<pdfrwt beam="2">  1       -2 0.79946786E-01 0.71034128E+03</pdfrwt>
<totfact> 0.80540606E+00</totfact>
</mgrwt>
</event>
<event>
 4    1  0.8645356E-007  0.1185824E+04  0.7818608E-02  0.9171027E-01
          2   -1    0    0  501    0  0.00000000000E+00  0.00000000000E+00  0.17766528922E+04  0.17766528922E+04  0.25500000000E-02 0. -1.
         -2   -1    0    0    0  501 -0.00000000000E+00 -0.00000000000E+00 -0.16520772406E+04  0.16520772406E+04  0.25500000000E-02 0.  1.
    8880023    1    1    2    0    0  0.53823346934E+03  0.82624001471E+03 -0.12546567765E+04  0.17263666072E+04  0.65864270000E+03 0.  0.
    8880022    1    1    2    0    0 -0.53823346934E+03 -0.82624001471E+03  0.13792324281E+04  0.17023635256E+04  0.15294330000E+03 0.  0.
<mgrwt>
<rscale>  0 0.11357544E+04</rscale>
<asrwt>0</asrwt>
<pdfrwt beam="1">  1        2 0.27333121E+00 0.11858238E+04</pdfrwt>
<pdfrwt beam="2">  1       -2 0.25416573E+00 0.11858238E+04</pdfrwt>
<totfact> 0.52464757E-01</totfact>
</mgrwt>
</event>
<event>
 4    1  0.8645356E-007  0.1559684E+04  0.7818608E-02  0.8868601E-01
          2   -1    0    0  501    0  0.00000000000E+00  0.00000000000E+00  0.20392924522E+04  0.20392924522E+04  0.25500000000E-02 0. -1.
         -2   -1    0    0    0  501 -0.00000000000E+00 -0.00000000000E+00 -0.19375459164E+04  0.19375459164E+04  0.25500000000E-02 0.  1.
    8880023    1    1    2    0    0 -0.13156931729E+04  0.51745144519E+03  0.13665811095E+04  0.20736823909E+04  0.65864270000E+03 0.  0.
    8880022    1    1    2    0    0  0.13156931729E+04 -0.51745144519E+03 -0.12648345738E+04  0.19031559777E+04  0.15294330000E+03 0.  0.
<mgrwt>
<rscale>  0 0.15240717E+04</rscale>
<asrwt>0</asrwt>
<pdfrwt beam="1">  1        2 0.31373730E+00 0.15596842E+04</pdfrwt>
<pdfrwt beam="2">  1       -2 0.29808399E+00 0.15596842E+04</pdfrwt>
<totfact> 0.19318463E-01</totfact>
</mgrwt>
</event>
<event>
 4    1  0.8645356E-007  0.6719147E+03  0.7818608E-02  0.1014326E+00
          2   -1    0    0  501    0  0.00000000000E+00  0.00000000000E+00  0.21096462155E+04  0.21096462155E+04  0.25500000000E-02 0. -1.
         -2   -1    0    0    0  501 -0.00000000000E+00 -0.00000000000E+00 -0.20091679487E+03  0.20091679489E+03  0.25500000000E-02 0.  1.
    8880023    1    1    2    0    0  0.50851887154E+02  0.12277319848E+03  0.38698170959E+03  0.77538649880E+03  0.65864270000E+03 0.  1.
    8880022    1    1    2    0    0 -0.50851887154E+02 -0.12277319848E+03  0.15217477110E+04  0.15351765116E+04  0.15294330000E+03 0.  0.
<mgrwt>
<rscale>  0 0.49791000E+03</rscale>
<asrwt>0</asrwt>
<pdfrwt beam="1">  1        2 0.32456097E+00 0.67191471E+03</pdfrwt>
<pdfrwt beam="2">  1       -2 0.30910275E-01 0.67191471E+03</pdfrwt>
<totfact> 0.58588040E+01</totfact>
</mgrwt>
</event>
<event>
 4    1  0.8645356E-007  0.1071352E+04  0.7818608E-02  0.9293643E-01
          2   -1    0    0  501    0  0.00000000000E+00  0.00000000000E+00  0.16891136815E+04  0.16891136815E+04  0.25500000000E-02 0. -1.
         -2   -1    0    0    0  501 -0.00000000000E+00 -0.00000000000E+00 -0.77694759779E+03  0.77694759780E+03  0.25500000000E-02 0.  1.
    8880023    1    1    2    0    0 -0.59010624911E+03 -0.60478082117E+03 -0.16982446259E+03  0.10847284366E+04  0.65864270000E+03 0.  1.
    8880022    1    1    2    0    0  0.59010624911E+03  0.60478082117E+03  0.10819905463E+04  0.13813328426E+04  0.15294330000E+03 0.  0.
<mgrwt>
<rscale>  0 0.10137022E+04</rscale>
<asrwt>0</asrwt>
<pdfrwt beam="1">  1        2 0.25986364E+00 0.10713522E+04</pdfrwt>
<pdfrwt beam="2">  1       -2 0.11953040E+00 0.10713522E+04</pdfrwt>
<totfact> 0.52671364E+00</totfact>
</mgrwt>
</event>
<event>
 4    1  0.8645356E-007  0.7192678E+03  0.7818608E-02  0.9925071E-01
          2   -1    0    0  501    0  0.00000000000E+00  0.00000000000E+00  0.43270428244E+03  0.43270428245E+03  0.25500000000E-02 0. -1.
         -2   -1    0    0    0  501 -0.00000000000E+00 -0.00000000000E+00 -0.11919006897E+04  0.11919006897E+04  0.25500000000E-02 0.  1.
    8880023    1    1    2    0    0 -0.20972941341E+03 -0.19887067486E+03 -0.99047312179E+03  0.12240846308E+04  0.65864270000E+03 0.  1.
    8880022    1    1    2    0    0  0.20972941341E+03  0.19887067486E+03  0.23127671449E+03  0.40052034137E+03  0.15294330000E+03 0.  0.
<mgrwt>
<rscale>  0 0.59061464E+03</rscale>
<asrwt>0</asrwt>
<pdfrwt beam="1">  1        2 0.66569890E-01 0.71926781E+03</pdfrwt>
<pdfrwt beam="2">  1       -2 0.18336934E+00 0.71926781E+03</pdfrwt>
<totfact> 0.12747837E+01</totfact>
</mgrwt>
</event>
<event>
 4    1  0.8645356E-007  0.8088984E+03  0.7818608E-02  0.9691876E-01
         -2   -1    0    0    0  501 -0.00000000000E+00  0.00000000000E+00  0.37870960990E+03  0.37870960990E+03  0.25500000000E-02 0.  1.
          2   -1    0    0  501    0  0.00000000000E+00 -0.00000000000E+00 -0.27878768638E+04  0.27878768638E+04  0.25500000000E-02 0. -1.
    8880023    1    1    2    0    0  0.12790222650E+03  0.45182686269E+03 -0.11162326481E+03  0.81656380823E+03  0.65864270000E+03 0.  1.
    8880022    1    1    2    0    0 -0.12790222650E+03 -0.45182686269E+03 -0.22975439891E+04  0.23500226654E+04  0.15294330000E+03 0.  0.
<mgrwt>
<rscale>  0 0.71502556E+03</rscale>
<asrwt>0</asrwt>
<pdfrwt beam="1">  1        2 0.42890412E+00 0.80889845E+03</pdfrwt>
<pdfrwt beam="2">  1       -2 0.58263019E-01 0.80889845E+03</pdfrwt>
<totfact> 0.67877009E+00</totfact>
</mgrwt>
</event>
<event>
 4    1  0.8645356E-007  0.7153178E+03  0.7818608E-02  0.9938759E-01
          2   -1    0    0  501    0  0.00000000000E+00  0.00000000000E+00  0.16188794071E+04  0.16188794071E+04  0.25500000000E-02 0. -1.
         -2   -1    0    0    0  501 -0.00000000000E+00 -0.00000000000E+00 -0.17647940677E+03  0.17647940679E+03  0.25500000000E-02 0.  1.
    8880023    1    1    2    0    0 -0.12694280084E+03 -0.24850527922E+03  0.76725876238E+03  0.10489831091E+04  0.65864270000E+03 0.  0.
    8880022    1    1    2    0    0  0.12694280084E+03  0.24850527922E+03  0.67514123795E+03  0.74637570478E+03  0.15294330000E+03 0.  1.
<mgrwt>
<rscale>  0 0.58419058E+03</rscale>
<asrwt>0</asrwt>
<pdfrwt beam="1">  1        2 0.24905837E+00 0.71531780E+03</pdfrwt>
<pdfrwt beam="2">  1       -2 0.27150678E-01 0.71531780E+03</pdfrwt>
<totfact> 0.13707495E+02</totfact>
</mgrwt>
</event>
<event>
 4    1  0.8645356E-007  0.8449406E+03  0.7818608E-02  0.9620934E-01
         -2   -1    0    0    0  501 -0.00000000000E+00  0.00000000000E+00  0.99703759471E+03  0.99703759471E+03  0.25500000000E-02 0.  1.
          2   -1    0    0  501    0  0.00000000000E+00 -0.00000000000E+00 -0.12326410235E+04  0.12326410235E+04  0.25500000000E-02 0. -1.
    8880023    1    1    2    0    0  0.50791480193E+03  0.14878487700E+03  0.73089120957E+03  0.11171958432E+04  0.65864270000E+03 0.  1.
    8880022    1    1    2    0    0 -0.50791480193E+03 -0.14878487700E+03 -0.96649463837E+03  0.11124827750E+04  0.15294330000E+03 0.  0.
<mgrwt>
<rscale>  0 0.75926004E+03</rscale>
<asrwt>0</asrwt>
<pdfrwt beam="1">  1        2 0.18963708E+00 0.84494058E+03</pdfrwt>
<pdfrwt beam="2">  1       -2 0.15339040E+00 0.84494058E+03</pdfrwt>
<totfact> 0.51599030E+00</totfact>
</mgrwt>
</event>
<event>
 4    1  0.8645356E-007  0.6955851E+03  0.7818608E-02  0.1001603E+00
          2   -1    0    0  501    0  0.00000000000E+00  0.00000000000E+00  0.87063102331E+03  0.87063102332E+03  0.25500000000E-02 0. -1.
         -2   -1    0    0    0  501 -0.00000000000E+00 -0.00000000000E+00 -0.68624704796E+03  0.68624704797E+03  0.25500000000E-02 0.  1.
    8880023    1    1    2    0    0  0.10516874727E+03  0.19740316107E+03 -0.47613784089E+03  0.84293886089E+03  0.65864270000E+03 0.  1.
    8880022    1    1    2    0    0 -0.10516874727E+03 -0.19740316107E+03  0.66052181624E+03  0.71393921040E+03  0.15294330000E+03 0.  0.
<mgrwt>
<rscale>  0 0.54952773E+03</rscale>
<asrwt>0</asrwt>
<pdfrwt beam="1">  1        2 0.13394323E+00 0.69558513E+03</pdfrwt>
<pdfrwt beam="2">  1       -2 0.10557647E+00 0.69558513E+03</pdfrwt>
<totfact> 0.22739069E+01</totfact>
</mgrwt>
</event>
<event>
 4    1  0.8645356E-007  0.7464188E+03  0.7818608E-02  0.9841629E-01
          2   -1    0    0  501    0  0.00000000000E+00  0.00000000000E+00  0.11918968501E+04  0.11918968501E+04  0.25500000000E-02 0. -1.
         -2   -1    0    0    0  501 -0.00000000000E+00 -0.00000000000E+00 -0.31630460509E+03  0.31630460510E+03  0.25500000000E-02 0.  1.
    8880023    1    1    2    0    0  0.89264607184E+02 -0.33965073067E+03  0.27421306533E+03  0.79519419037E+03  0.65864270000E+03 0.  1.
    8880022    1    1    2    0    0 -0.89264607184E+02  0.33965073067E+03  0.60137917973E+03  0.71300726487E+03  0.15294330000E+03 0.  0.
<mgrwt>
<rscale>  0 0.63175543E+03</rscale>
<asrwt>0</asrwt>
<pdfrwt beam="1">  1        2 0.18336875E+00 0.74641878E+03</pdfrwt>
<pdfrwt beam="2">  1       -2 0.48662247E-01 0.74641878E+03</pdfrwt>
<totfact> 0.77863760E+01</totfact>
</mgrwt>
</event>
<event>
 4    1  0.8645356E-007  0.7508257E+03  0.7818608E-02  0.9829465E-01
         -2   -1    0    0    0  501 -0.00000000000E+00  0.00000000000E+00  0.25386500052E+03  0.25386500053E+03  0.25500000000E-02 0.  1.
          2   -1    0    0  501    0  0.00000000000E+00 -0.00000000000E+00 -0.14010331436E+04  0.14010331436E+04  0.25500000000E-02 0. -1.
    8880023    1    1    2    0    0 -0.33271143569E+03  0.13868010257E+03 -0.51216022551E+03  0.90887148329E+03  0.65864270000E+03 0.  0.
    8880022    1    1    2    0    0  0.33271143569E+03 -0.13868010257E+03 -0.63500791758E+03  0.74602666085E+03  0.15294330000E+03 0.  0.
<mgrwt>
<rscale>  0 0.63804964E+03</rscale>
<asrwt>0</asrwt>
<pdfrwt beam="1">  1        2 0.21554355E+00 0.75082573E+03</pdfrwt>
<pdfrwt beam="2">  1       -2 0.39056155E-01 0.75082573E+03</pdfrwt>
<totfact> 0.91124805E+01</totfact>
</mgrwt>
</event>
<event>
 4    1  0.8645356E-007  0.7337490E+03  0.7818608E-02  0.9878545E-01
         -2   -1    0    0    0  501 -0.00000000000E+00  0.00000000000E+00  0.38389889464E+03  0.38389889464E+03  0.25500000000E-02 0.  1.
          2   -1    0    0  501    0  0.00000000000E+00 -0.00000000000E+00 -0.79975540990E+03  0.79975540991E+03  0.25500000000E-02 0. -1.
    8880023    1    1    2    0    0  0.30706062368E+03  0.10144524979E+03 -0.18107230048E+03  0.75576104000E+03  0.65864270000E+03 0.  0.
    8880022    1    1    2    0    0 -0.30706062368E+03 -0.10144524979E+03 -0.23478421479E+03  0.42789326455E+03  0.15294330000E+03 0.  1.
<mgrwt>
<rscale>  0 0.61312460E+03</rscale>
<asrwt>0</asrwt>
<pdfrwt beam="1">  1        2 0.12303929E+00 0.73374898E+03</pdfrwt>
<pdfrwt beam="2">  1       -2 0.59061368E-01 0.73374898E+03</pdfrwt>
<totfact> 0.93532492E+01</totfact>
</mgrwt>
</event>
<event>
 4    1  0.8645356E-007  0.6849878E+03  0.7818608E-02  0.1006632E+00
          2   -1    0    0  501    0  0.00000000000E+00  0.00000000000E+00  0.19799603485E+04  0.19799603485E+04  0.25500000000E-02 0. -1.
         -2   -1    0    0    0  501 -0.00000000000E+00 -0.00000000000E+00 -0.12250244230E+03  0.12250244233E+03  0.25500000000E-02 0.  1.
    8880023    1    1    2    0    0  0.17574719092E+03  0.67164006622E+02  0.16378808805E+04  0.17753484345E+04  0.65864270000E+03 0. -1.
    8880022    1    1    2    0    0 -0.17574719092E+03 -0.67164006622E+02  0.21957702575E+03  0.32711435639E+03  0.15294330000E+03 0. -1.
<mgrwt>
<rscale>  0 0.52835377E+03</rscale>
<asrwt>0</asrwt>
<pdfrwt beam="1">  1        2 0.30460926E+00 0.68498780E+03</pdfrwt>
<pdfrwt beam="2">  1       -2 0.18846531E-01 0.68498780E+03</pdfrwt>
<totfact> 0.16724404E+02</totfact>
</mgrwt>
</event>
<event>
 4    1  0.8645356E-007  0.1105266E+04  0.7818608E-02  0.9255216E-01
          2   -1    0    0  501    0  0.00000000000E+00  0.00000000000E+00  0.25083636519E+04  0.25083636519E+04  0.25500000000E-02 0. -1.
         -2   -1    0    0    0  501 -0.00000000000E+00 -0.00000000000E+00 -0.67932130095E+03  0.67932130095E+03  0.25500000000E-02 0.  1.
    8880023    1    1    2    0    0  0.51854611857E+03  0.72035598519E+03 -0.47402040289E+02  0.11062820536E+04  0.65864270000E+03 0.  0.
    8880022    1    1    2    0    0 -0.51854611857E+03 -0.72035598519E+03  0.18764443912E+04  0.20814028992E+04  0.15294330000E+03 0.  0.
<mgrwt>
<rscale>  0 0.10501244E+04</rscale>
<asrwt>0</asrwt>
<pdfrwt beam="1">  1        2 0.38590210E+00 0.11052660E+04</pdfrwt>
<pdfrwt beam="2">  1       -2 0.10451097E+00 0.11052660E+04</pdfrwt>
<totfact> 0.25443449E+00</totfact>
</mgrwt>
</event>
<event>
 4    1  0.8645356E-007  0.8011559E+03  0.7818608E-02  0.9708302E-01
          2   -1    0    0  501    0  0.00000000000E+00  0.00000000000E+00  0.34388303500E+04  0.34388303500E+04  0.25500000000E-02 0. -1.
         -2   -1    0    0    0  501 -0.00000000000E+00 -0.00000000000E+00 -0.25751006618E+03  0.25751006619E+03  0.25500000000E-02 0.  1.
    8880023    1    1    2    0    0 -0.42258566336E+03  0.17164487562E+03  0.44179313381E+03  0.91489452155E+03  0.65864270000E+03 0.  1.
    8880022    1    1    2    0    0  0.42258566336E+03 -0.17164487562E+03  0.27395271500E+04  0.27814458947E+04  0.15294330000E+03 0.  0.
<mgrwt>
<rscale>  0 0.70524623E+03</rscale>
<asrwt>0</asrwt>
<pdfrwt beam="1">  1        2 0.52905080E+00 0.80115592E+03</pdfrwt>
<pdfrwt beam="2">  1       -2 0.39616935E-01 0.80115592E+03</pdfrwt>
<totfact> 0.57823677E+00</totfact>
</mgrwt>
</event>
<event>
 4    1  0.8645356E-007  0.1081539E+04  0.7818608E-02  0.9281894E-01
          2   -1    0    0  501    0  0.00000000000E+00  0.00000000000E+00  0.93506450490E+03  0.93506450490E+03  0.25500000000E-02 0. -1.
         -2   -1    0    0    0  501 -0.00000000000E+00 -0.00000000000E+00 -0.13964487190E+04  0.13964487190E+04  0.25500000000E-02 0.  1.
    8880023    1    1    2    0    0  0.59102247769E+03 -0.62177847944E+03 -0.85177217553E+03  0.13766779187E+04  0.65864270000E+03 0.  0.
    8880022    1    1    2    0    0 -0.59102247769E+03  0.62177847944E+03  0.39038796141E+03  0.95483530520E+03  0.15294330000E+03 0.  0.
<mgrwt>
<rscale>  0 0.10246695E+04</rscale>
<asrwt>0</asrwt>
<pdfrwt beam="1">  1        2 0.14385608E+00 0.10815388E+04</pdfrwt>
<pdfrwt beam="2">  1       -2 0.21483827E+00 0.10815388E+04</pdfrwt>
<totfact> 0.29156852E+00</totfact>
</mgrwt>
</event>
<event>
 4    1  0.8645356E-007  0.6910360E+03  0.7818608E-02  0.1003664E+00
          2   -1    0    0  501    0  0.00000000000E+00  0.00000000000E+00  0.75536728681E+03  0.75536728681E+03  0.25500000000E-02 0. -1.
         -2   -1    0    0    0  501 -0.00000000000E+00 -0.00000000000E+00 -0.12605299141E+04  0.12605299141E+04  0.25500000000E-02 0.  1.
    8880023    1    1    2    0    0 -0.60586710661E+02  0.20012429147E+03 -0.11383971658E+04  0.13317202389E+04  0.65864270000E+03 0.  1.
    8880022    1    1    2    0    0  0.60586710661E+02 -0.20012429147E+03  0.63323453847E+03  0.68417696196E+03  0.15294330000E+03 0.  0.
<mgrwt>
<rscale>  0 0.54072396E+03</rscale>
<asrwt>0</asrwt>
<pdfrwt beam="1">  1        2 0.11621035E+00 0.69103595E+03</pdfrwt>
<pdfrwt beam="2">  1       -2 0.19392768E+00 0.69103595E+03</pdfrwt>
<totfact> 0.55757686E+00</totfact>
</mgrwt>
</event>
<event>
 4    1  0.8645356E-007  0.8302456E+03  0.7818608E-02  0.9648855E-01
          2   -1    0    0  501    0  0.00000000000E+00  0.00000000000E+00  0.25668877066E+04  0.25668877066E+04  0.25500000000E-02 0. -1.
         -2   -1    0    0    0  501 -0.00000000000E+00 -0.00000000000E+00 -0.34778608247E+03  0.34778608248E+03  0.25500000000E-02 0.  1.
    8880023    1    1    2    0    0  0.46891584205E+03 -0.18872047807E+03  0.23697622809E+03  0.86340339628E+03  0.65864270000E+03 0.  0.
    8880022    1    1    2    0    0 -0.46891584205E+03  0.18872047807E+03  0.19821253960E+04  0.20512703928E+04  0.15294330000E+03 0.  0.
<mgrwt>
<rscale>  0 0.74145342E+03</rscale>
<asrwt>0</asrwt>
<pdfrwt beam="1">  1        2 0.39490579E+00 0.83024556E+03</pdfrwt>
<pdfrwt beam="2">  1       -2 0.53505552E-01 0.83024556E+03</pdfrwt>
<totfact> 0.10863039E+01</totfact>
</mgrwt>
</event>
<event>
 4    1  0.8645356E-007  0.6991472E+03  0.7818608E-02  0.1000076E+00
          2   -1    0    0  501    0  0.00000000000E+00  0.00000000000E+00  0.24304335506E+04  0.24304335506E+04  0.25500000000E-02 0. -1.
         -2   -1    0    0    0  501 -0.00000000000E+00 -0.00000000000E+00 -0.49315770813E+03  0.49315770814E+03  0.25500000000E-02 0.  1.
    8880023    1    1    2    0    0  0.22426062474E+03 -0.68584259194E+02 -0.23176074014E+03  0.73655948528E+03  0.65864270000E+03 0.  1.
    8880022    1    1    2    0    0 -0.22426062474E+03  0.68584259194E+02  0.21690365826E+04  0.21870317735E+04  0.15294330000E+03 0.  0.
<mgrwt>
<rscale>  0 0.55617040E+03</rscale>
<asrwt>0</asrwt>
<pdfrwt beam="1">  1        2 0.37391285E+00 0.69914722E+03</pdfrwt>
<pdfrwt beam="2">  1       -2 0.75870417E-01 0.69914722E+03</pdfrwt>
<totfact> 0.62827444E+00</totfact>
</mgrwt>
</event>
<event>
 4    1  0.8645356E-007  0.7416111E+03  0.7818608E-02  0.9855279E-01
          2   -1    0    0  501    0  0.00000000000E+00  0.00000000000E+00  0.23720111839E+04  0.23720111839E+04  0.25500000000E-02 0. -1.
         -2   -1    0    0    0  501 -0.00000000000E+00 -0.00000000000E+00 -0.14992345095E+03  0.14992345097E+03  0.25500000000E-02 0.  1.
    8880023    1    1    2    0    0 -0.25898284581E+03  0.22159581046E+03  0.10063508071E+04  0.12500915850E+04  0.65864270000E+03 0.  1.
    8880022    1    1    2    0    0  0.25898284581E+03 -0.22159581046E+03  0.12157369259E+04  0.12718430499E+04  0.15294330000E+03 0. -1.
<mgrwt>
<rscale>  0 0.62478498E+03</rscale>
<asrwt>0</asrwt>
<pdfrwt beam="1">  1        2 0.36492476E+00 0.74161110E+03</pdfrwt>
<pdfrwt beam="2">  1       -2 0.23065149E-01 0.74161110E+03</pdfrwt>
<totfact> 0.70896161E+01</totfact>
</mgrwt>
</event>
<event>
 4    1  0.8645356E-007  0.8082089E+03  0.7818608E-02  0.9693320E-01
          2   -1    0    0  501    0  0.00000000000E+00  0.00000000000E+00  0.11756820858E+04  0.11756820858E+04  0.25500000000E-02 0. -1.
         -2   -1    0    0    0  501 -0.00000000000E+00 -0.00000000000E+00 -0.10261354255E+04  0.10261354255E+04  0.25500000000E-02 0.  1.
    8880023    1    1    2    0    0  0.40872455011E+03 -0.22877003019E+03 -0.79676152553E+03  0.11349143666E+04  0.65864270000E+03 0.  1.
    8880022    1    1    2    0    0 -0.40872455011E+03  0.22877003019E+03  0.94630818588E+03  0.10669031447E+04  0.15294330000E+03 0.  0.
<mgrwt>
<rscale>  0 0.71415923E+03</rscale>
<asrwt>0</asrwt>
<pdfrwt beam="1">  1        2 0.18087417E+00 0.80820894E+03</pdfrwt>
<pdfrwt beam="2">  1       -2 0.15786699E+00 0.80820894E+03</pdfrwt>
<totfact> 0.51869941E+00</totfact>
</mgrwt>
</event>
<event>
 4    1  0.8645356E-007  0.8272905E+03  0.7818608E-02  0.9654627E-01
          2   -1    0    0  501    0  0.00000000000E+00  0.00000000000E+00  0.13384041265E+04  0.13384041265E+04  0.25500000000E-02 0. -1.
         -2   -1    0    0    0  501 -0.00000000000E+00 -0.00000000000E+00 -0.79408797521E+03  0.79408797521E+03  0.25500000000E-02 0.  1.
    8880023    1    1    2    0    0  0.45741129383E+03 -0.20340680767E+03 -0.49836078913E+03  0.96580179309E+03  0.65864270000E+03 0.  1.
    8880022    1    1    2    0    0 -0.45741129383E+03  0.20340680767E+03  0.10426769404E+04  0.11666903086E+04  0.15294330000E+03 0.  0.
<mgrwt>
<rscale>  0 0.73783728E+03</rscale>
<asrwt>0</asrwt>
<pdfrwt beam="1">  1        2 0.20590833E+00 0.82729053E+03</pdfrwt>
<pdfrwt beam="2">  1       -2 0.12216738E+00 0.82729053E+03</pdfrwt>
<totfact> 0.80706015E+00</totfact>
</mgrwt>
</event>
<event>
 4    1  0.8645356E-007  0.7280501E+03  0.7818608E-02  0.9896233E-01
          2   -1    0    0  501    0  0.00000000000E+00  0.00000000000E+00  0.22062507795E+04  0.22062507795E+04  0.25500000000E-02 0. -1.
         -2   -1    0    0    0  501 -0.00000000000E+00 -0.00000000000E+00 -0.19238468208E+03  0.19238468210E+03  0.25500000000E-02 0.  1.
    8880023    1    1    2    0    0 -0.27802169804E+03  0.13766123535E+03  0.60105384208E+03  0.94409883362E+03  0.65864270000E+03 0.  1.
    8880022    1    1    2    0    0  0.27802169804E+03 -0.13766123535E+03  0.14128122554E+04  0.14545366280E+04  0.15294330000E+03 0.  0.
<mgrwt>
<rscale>  0 0.60444213E+03</rscale>
<asrwt>0</asrwt>
<pdfrwt beam="1">  1        2 0.33942320E+00 0.72805006E+03</pdfrwt>
<pdfrwt beam="2">  1       -2 0.29597643E-01 0.72805006E+03</pdfrwt>
<totfact> 0.55796794E+01</totfact>
</mgrwt>
</event>
<event>
 4    1  0.8645356E-007  0.7470552E+03  0.7818608E-02  0.9839853E-01
         -2   -1    0    0    0  501 -0.00000000000E+00  0.00000000000E+00  0.16632760573E+04  0.16632760574E+04  0.25500000000E-02 0.  1.
          2   -1    0    0  501    0  0.00000000000E+00 -0.00000000000E+00 -0.33310309643E+03  0.33310309644E+03  0.25500000000E-02 0. -1.
    8880023    1    1    2    0    0 -0.18328215000E+03 -0.30114590067E+03  0.14174903135E+04  0.16023015306E+04  0.65864270000E+03 0.  1.
    8880022    1    1    2    0    0  0.18328215000E+03  0.30114590067E+03 -0.87317352555E+02  0.39407762316E+03  0.15294330000E+03 0.  0.
<mgrwt>
<rscale>  0 0.63266977E+03</rscale>
<asrwt>0</asrwt>
<pdfrwt beam="1">  1        2 0.51246631E-01 0.74705516E+03</pdfrwt>
<pdfrwt beam="2">  1       -2 0.25588862E+00 0.74705516E+03</pdfrwt>
<totfact> 0.59447799E+00</totfact>
</mgrwt>
</event>
<event>
 4    1  0.8645356E-007  0.7026811E+03  0.7818608E-02  0.9986255E-01
          2   -1    0    0  501    0  0.00000000000E+00  0.00000000000E+00  0.18459234848E+04  0.18459234848E+04  0.25500000000E-02 0. -1.
         -2   -1    0    0    0  501 -0.00000000000E+00 -0.00000000000E+00 -0.47014140335E+03  0.47014140336E+03  0.25500000000E-02 0.  1.
    8880023    1    1    2    0    0  0.12501702841E+03 -0.21052630033E+03 -0.18676112678E+03  0.72707668458E+03  0.65864270000E+03 0.  1.
    8880022    1    1    2    0    0 -0.12501702841E+03  0.21052630033E+03  0.15625432082E+04  0.15889882035E+04  0.15294330000E+03 0.  0.
<mgrwt>
<rscale>  0 0.56257038E+03</rscale>
<asrwt>0</asrwt>
<pdfrwt beam="1">  1        2 0.28398823E+00 0.70268114E+03</pdfrwt>
<pdfrwt beam="2">  1       -2 0.72329446E-01 0.70268114E+03</pdfrwt>
<totfact> 0.14617863E+01</totfact>
</mgrwt>
</event>
<event>
 4    1  0.8645356E-007  0.8346926E+03  0.7818608E-02  0.9640270E-01
         -2   -1    0    0    0  501 -0.00000000000E+00  0.00000000000E+00  0.46724254562E+03  0.46724254563E+03  0.25500000000E-02 0.  1.
          2   -1    0    0  501    0  0.00000000000E+00 -0.00000000000E+00 -0.11527599092E+04  0.11527599092E+04  0.25500000000E-02 0. -1.
    8880023    1    1    2    0    0  0.31908131608E+03 -0.40135851750E+03 -0.12309310937E+03  0.84372013469E+03  0.65864270000E+03 0.  1.
    8880022    1    1    2    0    0 -0.31908131608E+03  0.40135851750E+03 -0.56242425422E+03  0.77628232016E+03  0.15294330000E+03 0.  0.
<mgrwt>
<rscale>  0 0.74687222E+03</rscale>
<asrwt>0</asrwt>
<pdfrwt beam="1">  1        2 0.17734768E+00 0.83469261E+03</pdfrwt>
<pdfrwt beam="2">  1       -2 0.71883469E-01 0.83469261E+03</pdfrwt>
<totfact> 0.35814467E+01</totfact>
</mgrwt>
</event>
<event>
 4    1  0.8645356E-007  0.6868590E+03  0.7818608E-02  0.1005683E+00
         -2   -1    0    0    0  501 -0.00000000000E+00  0.00000000000E+00  0.25522002482E+03  0.25522002483E+03  0.25500000000E-02 0.  1.
          2   -1    0    0  501    0  0.00000000000E+00 -0.00000000000E+00 -0.27433503567E+04  0.27433503567E+04  0.25500000000E-02 0. -1.
    8880023    1    1    2    0    0 -0.19254349831E+03  0.29866940735E+02 -0.22624330292E+03  0.72316061236E+03  0.65864270000E+03 0.  1.
    8880022    1    1    2    0    0  0.19254349831E+03 -0.29866940735E+02 -0.22618870289E+04  0.22754097692E+04  0.15294330000E+03 0.  0.
<mgrwt>
<rscale>  0 0.53227175E+03</rscale>
<asrwt>0</asrwt>
<pdfrwt beam="1">  1        2 0.42205388E+00 0.68685897E+03</pdfrwt>
<pdfrwt beam="2">  1       -2 0.39264621E-01 0.68685897E+03</pdfrwt>
<totfact> 0.16334232E+01</totfact>
</mgrwt>
</event>
<event>
 4    1  0.8645356E-007  0.7278581E+03  0.7818608E-02  0.9896842E-01
         -2   -1    0    0    0  501 -0.00000000000E+00  0.00000000000E+00  0.55771671124E+03  0.55771671124E+03  0.25500000000E-02 0.  1.
          2   -1    0    0  501    0  0.00000000000E+00 -0.00000000000E+00 -0.57895248586E+03  0.57895248587E+03  0.25500000000E-02 0. -1.
    8880023    1    1    2    0    0  0.23138858188E+03 -0.20597690498E+03  0.16190201375E+03  0.74564712132E+03  0.65864270000E+03 0.  0.
    8880022    1    1    2    0    0 -0.23138858188E+03  0.20597690498E+03 -0.18313778838E+03  0.39102207579E+03  0.15294330000E+03 0.  0.
<mgrwt>
<rscale>  0 0.60414591E+03</rscale>
<asrwt>0</asrwt>
<pdfrwt beam="1">  1        2 0.89069613E-01 0.72785807E+03</pdfrwt>
<pdfrwt beam="2">  1       -2 0.85802572E-01 0.72785807E+03</pdfrwt>
<totfact> 0.61888669E+01</totfact>
</mgrwt>
</event>
<event>
 4    1  0.8645356E-007  0.7923115E+03  0.7818608E-02  0.9727673E-01
          2   -1    0    0  501    0  0.00000000000E+00  0.00000000000E+00  0.28346277746E+03  0.28346277747E+03  0.25500000000E-02 0. -1.
         -2   -1    0    0    0  501 -0.00000000000E+00 -0.00000000000E+00 -0.27248993345E+04  0.27248993346E+04  0.25500000000E-02 0.  1.
    8880023    1    1    2    0    0  0.19890590094E+03  0.39291706054E+03 -0.24147394160E+04  0.25414019807E+04  0.65864270000E+03 0.  1.
    8880022    1    1    2    0    0 -0.19890590094E+03 -0.39291706054E+03 -0.26697141071E+02  0.46696013133E+03  0.15294330000E+03 0.  0.
<mgrwt>
<rscale>  0 0.69392766E+03</rscale>
<asrwt>0</asrwt>
<pdfrwt beam="1">  1        2 0.43609660E-01 0.79231154E+03</pdfrwt>
<pdfrwt beam="2">  1       -2 0.41921526E+00 0.79231154E+03</pdfrwt>
<totfact> 0.68536330E-01</totfact>
</mgrwt>
</event>
<event>
 4    1  0.8645356E-007  0.7232086E+03  0.7818608E-02  0.9911875E-01
          2   -1    0    0  501    0  0.00000000000E+00  0.00000000000E+00  0.68436327097E+03  0.68436327098E+03  0.25500000000E-02 0. -1.
         -2   -1    0    0    0  501 -0.00000000000E+00 -0.00000000000E+00 -0.43436682725E+03  0.43436682726E+03  0.25500000000E-02 0.  1.
    8880023    1    1    2    0    0 -0.95771473546E+01  0.29854427791E+03  0.43084423182E+02  0.72449077386E+03  0.65864270000E+03 0.  1.
    8880022    1    1    2    0    0  0.95771473546E+01 -0.29854427791E+03  0.20691202054E+03  0.39423932438E+03  0.15294330000E+03 0.  0.
<mgrwt>
<rscale>  0 0.59689203E+03</rscale>
<asrwt>0</asrwt>
<pdfrwt beam="1">  1        2 0.10528666E+00 0.72320855E+03</pdfrwt>
<pdfrwt beam="2">  1       -2 0.66825666E-01 0.72320855E+03</pdfrwt>
<totfact> 0.87896789E+01</totfact>
</mgrwt>
</event>
<event>
 4    1  0.8645356E-007  0.6603796E+03  0.7818608E-02  0.1023771E+00
          2   -1    0    0  501    0  0.00000000000E+00  0.00000000000E+00  0.42347110205E+03  0.42347110205E+03  0.25500000000E-02 0. -1.
         -2   -1    0    0    0  501 -0.00000000000E+00 -0.00000000000E+00 -0.59531142401E+03  0.59531142401E+03  0.25500000000E-02 0.  1.
    8880023    1    1    2    0    0 -0.47569850486E+02  0.52998401440E+01 -0.37546745230E+03  0.75965583851E+03  0.65864270000E+03 0.  1.
    8880022    1    1    2    0    0  0.47569850486E+02 -0.52998401440E+01  0.20362713034E+03  0.25912668756E+03  0.15294330000E+03 0.  0.
<mgrwt>
<rscale>  0 0.46350046E+03</rscale>
<asrwt>0</asrwt>
<pdfrwt beam="1">  1        2 0.65149400E-01 0.66037958E+03</pdfrwt>
<pdfrwt beam="2">  1       -2 0.91586373E-01 0.66037958E+03</pdfrwt>
<totfact> 0.76881385E+01</totfact>
</mgrwt>
</event>
<event>
 4    1  0.8645356E-007  0.6592135E+03  0.7818608E-02  0.1024977E+00
         -2   -1    0    0    0  501 -0.00000000000E+00  0.00000000000E+00  0.41250764710E+03  0.41250764711E+03  0.25500000000E-02 0.  1.
          2   -1    0    0  501    0  0.00000000000E+00 -0.00000000000E+00 -0.57632686800E+03  0.57632686801E+03  0.25500000000E-02 0. -1.
    8880023    1    1    2    0    0 -0.27346131158E+02 -0.21013016756E+01  0.11545179334E+03  0.66924700164E+03  0.65864270000E+03 0.  1.
    8880022    1    1    2    0    0  0.27346131158E+02  0.21013016756E+01 -0.27927101424E+03  0.31958751347E+03  0.15294330000E+03 0.  0.
<mgrwt>
<rscale>  0 0.45932539E+03</rscale>
<asrwt>0</asrwt>
<pdfrwt beam="1">  1        2 0.88665672E-01 0.65921350E+03</pdfrwt>
<pdfrwt beam="2">  1       -2 0.63462715E-01 0.65921350E+03</pdfrwt>
<totfact> 0.12158597E+02</totfact>
</mgrwt>
</event>
<event>
 4    1  0.8645356E-007  0.6741037E+03  0.7818608E-02  0.1012877E+00
         -2   -1    0    0    0  501 -0.00000000000E+00  0.00000000000E+00  0.18717107542E+03  0.18717107544E+03  0.25500000000E-02 0.  1.
          2   -1    0    0  501    0  0.00000000000E+00 -0.00000000000E+00 -0.14381279423E+04  0.14381279423E+04  0.25500000000E-02 0. -1.
    8880023    1    1    2    0    0  0.11611304643E+03 -0.84399882961E+02 -0.48317782667E+03  0.82938326378E+03  0.65864270000E+03 0.  1.
    8880022    1    1    2    0    0 -0.11611304643E+03  0.84399882961E+02 -0.76777904020E+03  0.79591575395E+03  0.15294330000E+03 0. -1.
<mgrwt>
<rscale>  0 0.50346954E+03</rscale>
<asrwt>0</asrwt>
<pdfrwt beam="1">  1        2 0.22125045E+00 0.67410369E+03</pdfrwt>
<pdfrwt beam="2">  1       -2 0.28795551E-01 0.67410369E+03</pdfrwt>
<totfact> 0.15554648E+02</totfact>
</mgrwt>
</event>
<event>
 4    1  0.8645356E-007  0.7942665E+03  0.7818608E-02  0.9723333E-01
         -2   -1    0    0    0  501 -0.00000000000E+00  0.00000000000E+00  0.29397982036E+03  0.29397982037E+03  0.25500000000E-02 0.  1.
          2   -1    0    0  501    0  0.00000000000E+00 -0.00000000000E+00 -0.20627493631E+04  0.20627493631E+04  0.25500000000E-02 0. -1.
    8880023    1    1    2    0    0 -0.10974572429E+03 -0.43012206728E+03 -0.36049030858E+03  0.87224571401E+03  0.65864270000E+03 0.  0.
    8880022    1    1    2    0    0  0.10974572429E+03  0.43012206728E+03 -0.14082792342E+04  0.14844834695E+04  0.15294330000E+03 0.  0.
<mgrwt>
<rscale>  0 0.69644398E+03</rscale>
<asrwt>0</asrwt>
<pdfrwt beam="1">  1        2 0.31734605E+00 0.79426653E+03</pdfrwt>
<pdfrwt beam="2">  1       -2 0.45227666E-01 0.79426653E+03</pdfrwt>
<totfact> 0.29379134E+01</totfact>
</mgrwt>
</event>
<event>
 4    1  0.8645356E-007  0.7219929E+03  0.7818608E-02  0.9915900E-01
         -2   -1    0    0    0  501 -0.00000000000E+00  0.00000000000E+00  0.21379069183E+04  0.21379069183E+04  0.25500000000E-02 0.  1.
          2   -1    0    0  501    0  0.00000000000E+00 -0.00000000000E+00 -0.45182738726E+03  0.45182738727E+03  0.25500000000E-02 0. -1.
    8880023    1    1    2    0    0 -0.20589686365E+03 -0.21229692149E+03  0.20035621554E+04  0.21296795576E+04  0.65864270000E+03 0.  1.
    8880022    1    1    2    0    0  0.20589686365E+03  0.21229692149E+03 -0.31748262436E+03  0.46005474796E+03  0.15294330000E+03 0.  0.
<mgrwt>
<rscale>  0 0.59496877E+03</rscale>
<asrwt>0</asrwt>
<pdfrwt beam="1">  1        2 0.69511904E-01 0.72199287E+03</pdfrwt>
<pdfrwt beam="2">  1       -2 0.32890877E+00 0.72199287E+03</pdfrwt>
<totfact> 0.15376548E+00</totfact>
</mgrwt>
</event>
<event>
 4    1  0.8645356E-007  0.6685181E+03  0.7818608E-02  0.1016748E+00
         -2   -1    0    0    0  501 -0.00000000000E+00  0.00000000000E+00  0.14684545537E+03  0.14684545539E+03  0.25500000000E-02 0.  1.
          2   -1    0    0  501    0  0.00000000000E+00 -0.00000000000E+00 -0.38461400621E+04  0.38461400621E+04  0.25500000000E-02 0. -1.
    8880023    1    1    2    0    0 -0.30150989025E+02  0.11044048934E+03 -0.63270911010E+03  0.92045489194E+03  0.65864270000E+03 0.  1.
    8880022    1    1    2    0    0  0.30150989025E+02 -0.11044048934E+03 -0.30665854967E+04  0.30725306256E+04  0.15294330000E+03 0.  0.
<mgrwt>
<rscale>  0 0.48878542E+03</rscale>
<asrwt>0</asrwt>
<pdfrwt beam="1">  1        2 0.59171378E+00 0.66851806E+03</pdfrwt>
<pdfrwt beam="2">  1       -2 0.22591611E-01 0.66851806E+03</pdfrwt>
<totfact> 0.86757354E+00</totfact>
</mgrwt>
</event>
<event>
 4    1  0.8645356E-007  0.7202929E+03  0.7818608E-02  0.9921596E-01
          2   -1    0    0  501    0  0.00000000000E+00  0.00000000000E+00  0.99074307917E+03  0.99074307918E+03  0.25500000000E-02 0. -1.
         -2   -1    0    0    0  501 -0.00000000000E+00 -0.00000000000E+00 -0.37430724163E+03  0.37430724164E+03  0.25500000000E-02 0.  1.
    8880023    1    1    2    0    0 -0.17828385931E+03  0.23070868006E+03  0.72144559817E+03  0.10194633818E+04  0.65864270000E+03 0. -1.
    8880022    1    1    2    0    0  0.17828385931E+03 -0.23070868006E+03 -0.10500976063E+03  0.34558693897E+03  0.15294330000E+03 0.  0.
<mgrwt>
<rscale>  0 0.59225965E+03</rscale>
<asrwt>0</asrwt>
<pdfrwt beam="1">  1        2 0.15242201E+00 0.72029288E+03</pdfrwt>
<pdfrwt beam="2">  1       -2 0.57585730E-01 0.72029288E+03</pdfrwt>
<totfact> 0.73344430E+01</totfact>
</mgrwt>
</event>
<event>
 4    1  0.8645356E-007  0.7804055E+03  0.7818608E-02  0.9754885E-01
         -2   -1    0    0    0  501 -0.00000000000E+00  0.00000000000E+00  0.58222803846E+03  0.58222803846E+03  0.25500000000E-02 0.  1.
          2   -1    0    0  501    0  0.00000000000E+00 -0.00000000000E+00 -0.34397713900E+04  0.34397713900E+04  0.25500000000E-02 0. -1.
    8880023    1    1    2    0    0 -0.33397239870E+03 -0.25235888177E+03  0.29783258670E+03  0.83530654509E+03  0.65864270000E+03 0.  0.
    8880022    1    1    2    0    0  0.33397239870E+03  0.25235888177E+03 -0.31553759382E+04  0.31866928834E+04  0.15294330000E+03 0.  0.
<mgrwt>
<rscale>  0 0.67840891E+03</rscale>
<asrwt>0</asrwt>
<pdfrwt beam="1">  1        2 0.52919559E+00 0.78040552E+03</pdfrwt>
<pdfrwt beam="2">  1       -2 0.89573546E-01 0.78040552E+03</pdfrwt>
<totfact> 0.10314266E+00</totfact>
</mgrwt>
</event>
<event>
 4    1  0.8645356E-007  0.8873158E+03  0.7818608E-02  0.9546709E-01
         -2   -1    0    0    0  501 -0.00000000000E+00  0.00000000000E+00  0.83889749499E+03  0.83889749500E+03  0.25500000000E-02 0.  1.
          2   -1    0    0  501    0  0.00000000000E+00 -0.00000000000E+00 -0.67500640055E+03  0.67500640055E+03  0.25500000000E-02 0. -1.
    8880023    1    1    2    0    0 -0.53537455081E+02 -0.59215943617E+03  0.14937914554E+03  0.89980186281E+03  0.65864270000E+03 0. -1.
    8880022    1    1    2    0    0  0.53537455081E+02  0.59215943617E+03  0.14511948913E+02  0.61410203274E+03  0.15294330000E+03 0.  0.
<mgrwt>
<rscale>  0 0.80926071E+03</rscale>
<asrwt>0</asrwt>
<pdfrwt beam="1">  1        2 0.10384714E+00 0.88731576E+03</pdfrwt>
<pdfrwt beam="2">  1       -2 0.12906115E+00 0.88731576E+03</pdfrwt>
<totfact> 0.19011998E+01</totfact>
</mgrwt>
</event>
<event>
 4    1  0.8645356E-007  0.8953683E+03  0.7818608E-02  0.9533508E-01
         -2   -1    0    0    0  501 -0.00000000000E+00  0.00000000000E+00  0.21509001723E+03  0.21509001724E+03  0.25500000000E-02 0.  1.
          2   -1    0    0  501    0  0.00000000000E+00 -0.00000000000E+00 -0.28977305830E+04  0.28977305830E+04  0.25500000000E-02 0. -1.
    8880023    1    1    2    0    0 -0.51167180786E+02  0.60436421721E+03 -0.19742007116E+04  0.21677529479E+04  0.65864270000E+03 0. -1.
    8880022    1    1    2    0    0  0.51167180786E+02 -0.60436421721E+03 -0.70843985423E+03  0.94506765234E+03  0.15294330000E+03 0.  0.
<mgrwt>
<rscale>  0 0.81857839E+03</rscale>
<asrwt>0</asrwt>
<pdfrwt beam="1">  1        2 0.44580468E+00 0.89536830E+03</pdfrwt>
<pdfrwt beam="2">  1       -2 0.33090774E-01 0.89536830E+03</pdfrwt>
<totfact> 0.17766530E+01</totfact>
</mgrwt>
</event>
<event>
 4    1  0.8645356E-007  0.6826213E+03  0.7818608E-02  0.1007878E+00
         -2   -1    0    0    0  501 -0.00000000000E+00  0.00000000000E+00  0.13343998874E+03  0.13343998877E+03  0.25500000000E-02 0.  1.
          2   -1    0    0  501    0  0.00000000000E+00 -0.00000000000E+00 -0.35991713630E+04  0.35991713630E+04  0.25500000000E-02 0. -1.
    8880023    1    1    2    0    0  0.93406113425E+02  0.15309116268E+03 -0.77984228166E+03  0.10364004036E+04  0.65864270000E+03 0.  0.
    8880022    1    1    2    0    0 -0.93406113425E+02 -0.15309116268E+03 -0.26858890926E+04  0.26962109481E+04  0.15294330000E+03 0.  0.
<mgrwt>
<rscale>  0 0.52326726E+03</rscale>
<asrwt>0</asrwt>
<pdfrwt beam="1">  1        2 0.55371860E+00 0.68262128E+03</pdfrwt>
<pdfrwt beam="2">  1       -2 0.20529232E-01 0.68262128E+03</pdfrwt>
<totfact> 0.15444171E+01</totfact>
</mgrwt>
</event>
<event>
 4    1  0.8645356E-007  0.9318281E+03  0.7818608E-02  0.9476756E-01
          2   -1    0    0  501    0  0.00000000000E+00  0.00000000000E+00  0.24720121535E+04  0.24720121535E+04  0.25500000000E-02 0. -1.
         -2   -1    0    0    0  501 -0.00000000000E+00 -0.00000000000E+00 -0.36459204177E+03  0.36459204178E+03  0.25500000000E-02 0.  1.
    8880023    1    1    2    0    0 -0.53294248856E+03 -0.38789909519E+03  0.42689226204E+03  0.10249588352E+04  0.65864270000E+03 0.  0.
    8880022    1    1    2    0    0  0.53294248856E+03  0.38789909519E+03  0.16805278497E+04  0.18116453601E+04  0.15294330000E+03 0.  0.
<mgrwt>
<rscale>  0 0.86019400E+03</rscale>
<asrwt>0</asrwt>
<pdfrwt beam="1">  1        2 0.38030955E+00 0.93182810E+03</pdfrwt>
<pdfrwt beam="2">  1       -2 0.56091085E-01 0.93182810E+03</pdfrwt>
<totfact> 0.11000145E+01</totfact>
</mgrwt>
</event>
<event>
 4    1  0.8645356E-007  0.6675111E+03  0.7818608E-02  0.1017514E+00
         -2   -1    0    0    0  501 -0.00000000000E+00  0.00000000000E+00  0.55846183882E+03  0.55846183883E+03  0.25500000000E-02 0.  1.
          2   -1    0    0  501    0  0.00000000000E+00 -0.00000000000E+00 -0.26896865897E+04  0.26896865897E+04  0.25500000000E-02 0. -1.
    8880023    1    1    2    0    0  0.94847983694E+02  0.52580431675E+02  0.35419834917E+03  0.75566362796E+03  0.65864270000E+03 0.  1.
    8880022    1    1    2    0    0 -0.94847983694E+02 -0.52580431675E+02 -0.24854231000E+04  0.24924848005E+04  0.15294330000E+03 0.  0.
<mgrwt>
<rscale>  0 0.48594641E+03</rscale>
<asrwt>0</asrwt>
<pdfrwt beam="1">  1        2 0.41379793E+00 0.66751108E+03</pdfrwt>
<pdfrwt beam="2">  1       -2 0.85917207E-01 0.66751108E+03</pdfrwt>
<totfact> 0.34019721E+00</totfact>
</mgrwt>
</event>
<event>
 4    1  0.8645356E-007  0.7045057E+03  0.7818608E-02  0.9978999E-01
         -2   -1    0    0    0  501 -0.00000000000E+00  0.00000000000E+00  0.42900586940E+03  0.42900586941E+03  0.25500000000E-02 0.  1.
          2   -1    0    0  501    0  0.00000000000E+00 -0.00000000000E+00 -0.78876893104E+03  0.78876893104E+03  0.25500000000E-02 0. -1.
    8880023    1    1    2    0    0  0.95531614279E+02 -0.23106667207E+03  0.58617544669E+02  0.70694010996E+03  0.65864270000E+03 0.  0.
    8880022    1    1    2    0    0 -0.95531614279E+02  0.23106667207E+03 -0.41838060630E+03  0.51083469049E+03  0.15294330000E+03 0.  0.
<mgrwt>
<rscale>  0 0.56580750E+03</rscale>
<asrwt>0</asrwt>
<pdfrwt beam="1">  1        2 0.12134907E+00 0.70450572E+03</pdfrwt>
<pdfrwt beam="2">  1       -2 0.66000904E-01 0.70450572E+03</pdfrwt>
<totfact> 0.75354864E+01</totfact>
</mgrwt>
</event>
<event>
 4    1  0.8645356E-007  0.6836309E+03  0.7818608E-02  0.1007340E+00
         -2   -1    0    0    0  501 -0.00000000000E+00  0.00000000000E+00  0.34144816548E+03  0.34144816549E+03  0.25500000000E-02 0.  1.
          2   -1    0    0  501    0  0.00000000000E+00 -0.00000000000E+00 -0.79922931761E+03  0.79922931761E+03  0.25500000000E-02 0. -1.
    8880023    1    1    2    0    0 -0.12259715479E+02  0.18273120408E+03 -0.72458834954E+02  0.68746016801E+03  0.65864270000E+03 0.  0.
    8880022    1    1    2    0    0  0.12259715479E+02 -0.18273120408E+03 -0.38532231718E+03  0.45321731509E+03  0.15294330000E+03 0.  0.
<mgrwt>
<rscale>  0 0.52545609E+03</rscale>
<asrwt>0</asrwt>
<pdfrwt beam="1">  1        2 0.12295836E+00 0.68363089E+03</pdfrwt>
<pdfrwt beam="2">  1       -2 0.52530487E-01 0.68363089E+03</pdfrwt>
<totfact> 0.11984368E+02</totfact>
</mgrwt>
</event>
<event>
 4    1  0.8645356E-007  0.8267487E+03  0.7818608E-02  0.9655692E-01
          2   -1    0    0  501    0  0.00000000000E+00  0.00000000000E+00  0.24016434772E+04  0.24016434772E+04  0.25500000000E-02 0. -1.
         -2   -1    0    0    0  501 -0.00000000000E+00 -0.00000000000E+00 -0.82215221611E+03  0.82215221611E+03  0.25500000000E-02 0.  1.
    8880023    1    1    2    0    0 -0.86891662737E+02 -0.49209047234E+03 -0.57486241559E+03  0.10069658371E+04  0.65864270000E+03 0.  1.
    8880022    1    1    2    0    0  0.86891662737E+02  0.49209047234E+03  0.21543536767E+04  0.22168298562E+04  0.15294330000E+03 0.  0.
<mgrwt>
<rscale>  0 0.73717284E+03</rscale>
<asrwt>0</asrwt>
<pdfrwt beam="1">  1        2 0.36948361E+00 0.82674869E+03</pdfrwt>
<pdfrwt beam="2">  1       -2 0.12648496E+00 0.82674869E+03</pdfrwt>
<totfact> 0.19075593E+00</totfact>
</mgrwt>
</event>
<event>
 4    1  0.8645356E-007  0.1412782E+04  0.7818608E-02  0.8973814E-01
         -2   -1    0    0    0  501 -0.00000000000E+00  0.00000000000E+00  0.13863307553E+04  0.13863307553E+04  0.25500000000E-02 0.  1.
          2   -1    0    0  501    0  0.00000000000E+00 -0.00000000000E+00 -0.21547672735E+04  0.21547672735E+04  0.25500000000E-02 0. -1.
    8880023    1    1    2    0    0 -0.12182778170E+04  0.27918154921E+03  0.72477109720E+03  0.15878433570E+04  0.65864270000E+03 0.  0.
    8880022    1    1    2    0    0  0.12182778170E+04 -0.27918154921E+03 -0.14932076154E+04  0.19532546717E+04  0.15294330000E+03 0.  0.
<mgrwt>
<rscale>  0 0.13727087E+04</rscale>
<asrwt>0</asrwt>
<pdfrwt beam="1">  1        2 0.33150266E+00 0.14127821E+04</pdfrwt>
<pdfrwt beam="2">  1       -2 0.21328165E+00 0.14127821E+04</pdfrwt>
<totfact> 0.56582915E-01</totfact>
</mgrwt>
</event>
<event>
 4    1  0.8645356E-007  0.1032077E+04  0.7818608E-02  0.9340744E-01
          2   -1    0    0  501    0  0.00000000000E+00  0.00000000000E+00  0.13000961855E+04  0.13000961855E+04  0.25500000000E-02 0. -1.
         -2   -1    0    0    0  501 -0.00000000000E+00 -0.00000000000E+00 -0.87626955387E+03  0.87626955388E+03  0.25500000000E-02 0.  1.
    8880023    1    1    2    0    0 -0.53712604216E+03  0.58554931526E+03 -0.31660910543E+03  0.10795480155E+04  0.65864270000E+03 0.  1.
    8880022    1    1    2    0    0  0.53712604216E+03 -0.58554931526E+03  0.74043573705E+03  0.10968177239E+04  0.15294330000E+03 0.  0.
<mgrwt>
<rscale>  0 0.97116858E+03</rscale>
<asrwt>0</asrwt>
<pdfrwt beam="1">  1        2 0.20001480E+00 0.10320768E+04</pdfrwt>
<pdfrwt beam="2">  1       -2 0.13481070E+00 0.10320768E+04</pdfrwt>
<totfact> 0.64721866E+00</totfact>
</mgrwt>
</event>
<event>
 4    1  0.8645356E-007  0.7567312E+03  0.7818608E-02  0.9813645E-01
         -2   -1    0    0    0  501 -0.00000000000E+00  0.00000000000E+00  0.10378032730E+04  0.10378032730E+04  0.25500000000E-02 0.  1.
          2   -1    0    0  501    0  0.00000000000E+00 -0.00000000000E+00 -0.74460680586E+03  0.74460680586E+03  0.25500000000E-02 0. -1.
    8880023    1    1    2    0    0  0.87553703040E+02  0.36216885905E+03  0.82226240797E+03  0.11174782357E+04  0.65864270000E+03 0.  1.
    8880022    1    1    2    0    0 -0.87553703040E+02 -0.36216885905E+03 -0.52906594080E+03  0.66493184321E+03  0.15294330000E+03 0.  0.
<mgrwt>
<rscale>  0 0.64635407E+03</rscale>
<asrwt>0</asrwt>
<pdfrwt beam="1">  1        2 0.11455489E+00 0.75673122E+03</pdfrwt>
<pdfrwt beam="2">  1       -2 0.15966204E+00 0.75673122E+03</pdfrwt>
<totfact> 0.97400928E+00</totfact>
</mgrwt>
</event>
<event>
 4    1  0.8645356E-007  0.2051387E+04  0.7818608E-02  0.8594910E-01
          2   -1    0    0  501    0  0.00000000000E+00  0.00000000000E+00  0.28754292334E+04  0.28754292334E+04  0.25500000000E-02 0. -1.
         -2   -1    0    0    0  501 -0.00000000000E+00 -0.00000000000E+00 -0.18680455068E+04  0.18680455068E+04  0.25500000000E-02 0.  1.
    8880023    1    1    2    0    0  0.36008198085E+03 -0.19091150975E+04 -0.68465994769E+03  0.21626254735E+04  0.65864270000E+03 0.  0.
    8880022    1    1    2    0    0 -0.36008198085E+03  0.19091150975E+04  0.16920436743E+04  0.25808492666E+04  0.15294330000E+03 0.  0.
<mgrwt>
<rscale>  0 0.20252416E+04</rscale>
<asrwt>0</asrwt>
<pdfrwt beam="1">  1        2 0.44237373E+00 0.20513873E+04</pdfrwt>
<pdfrwt beam="2">  1       -2 0.28739162E+00 0.20513873E+04</pdfrwt>
<totfact> 0.69565737E-02</totfact>
</mgrwt>
</event>
<event>
 4    1  0.8645356E-007  0.7771734E+03  0.7818608E-02  0.9762519E-01
          2   -1    0    0  501    0  0.00000000000E+00  0.00000000000E+00  0.43579152321E+03  0.43579152322E+03  0.25500000000E-02 0. -1.
         -2   -1    0    0    0  501 -0.00000000000E+00 -0.00000000000E+00 -0.90424883052E+03  0.90424883052E+03  0.25500000000E-02 0.  1.
    8880023    1    1    2    0    0 -0.29282348583E+03  0.29059013477E+03 -0.45349487269E+03  0.89980888310E+03  0.65864270000E+03 0.  0.
    8880022    1    1    2    0    0  0.29282348583E+03 -0.29059013477E+03 -0.14962434620E+02  0.44023147064E+03  0.15294330000E+03 0.  0.
<mgrwt>
<rscale>  0 0.67413357E+03</rscale>
<asrwt>0</asrwt>
<pdfrwt beam="1">  1        2 0.67044850E-01 0.77717336E+03</pdfrwt>
<pdfrwt beam="2">  1       -2 0.13911520E+00 0.77717336E+03</pdfrwt>
<totfact> 0.26615978E+01</totfact>
</mgrwt>
</event>
<event>
 4    1  0.8645356E-007  0.1898401E+04  0.7818608E-02  0.8669973E-01
          2   -1    0    0  501    0  0.00000000000E+00  0.00000000000E+00  0.27866827631E+04  0.27866827631E+04  0.25500000000E-02 0. -1.
         -2   -1    0    0    0  501 -0.00000000000E+00 -0.00000000000E+00 -0.15436083914E+04  0.15436083914E+04  0.25500000000E-02 0.  1.
    8880023    1    1    2    0    0  0.40290327661E+03  0.17342965708E+04 -0.35690359404E+03  0.19316588797E+04  0.65864270000E+03 0.  0.
    8880022    1    1    2    0    0 -0.40290327661E+03 -0.17342965708E+04  0.15999779658E+04  0.23986322748E+04  0.15294330000E+03 0.  0.
<mgrwt>
<rscale>  0 0.18699260E+04</rscale>
<asrwt>0</asrwt>
<pdfrwt beam="1">  1        2 0.42872042E+00 0.18984009E+04</pdfrwt>
<pdfrwt beam="2">  1       -2 0.23747822E+00 0.18984009E+04</pdfrwt>
<totfact> 0.16255031E-01</totfact>
</mgrwt>
</event>
<event>
 4    1  0.8645356E-007  0.6669747E+03  0.7818608E-02  0.1017931E+00
          2   -1    0    0  501    0  0.00000000000E+00  0.00000000000E+00  0.32155426094E+04  0.32155426094E+04  0.25500000000E-02 0. -1.
         -2   -1    0    0    0  501 -0.00000000000E+00 -0.00000000000E+00 -0.72344890083E+03  0.72344890084E+03  0.25500000000E-02 0.  1.
    8880023    1    1    2    0    0  0.99048830614E+02 -0.35133915046E+02 -0.56630936814E+03  0.87496375327E+03  0.65864270000E+03 0.  1.
    8880022    1    1    2    0    0 -0.99048830614E+02  0.35133915046E+02  0.30584030767E+04  0.30640277569E+04  0.15294330000E+03 0.  0.
<mgrwt>
<rscale>  0 0.48440626E+03</rscale>
<asrwt>0</asrwt>
<pdfrwt beam="1">  1        2 0.49469886E+00 0.66697471E+03</pdfrwt>
<pdfrwt beam="2">  1       -2 0.11129983E+00 0.66697471E+03</pdfrwt>
<totfact> 0.88906971E-01</totfact>
</mgrwt>
</event>
<event>
 4    1  0.8645356E-007  0.8880615E+03  0.7818608E-02  0.9545475E-01
         -2   -1    0    0    0  501 -0.00000000000E+00  0.00000000000E+00  0.12622626364E+04  0.12622626364E+04  0.25500000000E-02 0.  1.
          2   -1    0    0  501    0  0.00000000000E+00 -0.00000000000E+00 -0.49655324117E+03  0.49655324118E+03  0.25500000000E-02 0. -1.
    8880023    1    1    2    0    0 -0.59498412807E+03 -0.28929710593E+02  0.71791735331E+03  0.11419538402E+04  0.65864270000E+03 0.  0.
    8880022    1    1    2    0    0  0.59498412807E+03  0.28929710593E+02  0.47792041897E+02  0.61686203732E+03  0.15294330000E+03 0.  0.
<mgrwt>
<rscale>  0 0.81012579E+03</rscale>
<asrwt>0</asrwt>
<pdfrwt beam="1">  1        2 0.76392807E-01 0.88806151E+03</pdfrwt>
<pdfrwt beam="2">  1       -2 0.19419425E+00 0.88806151E+03</pdfrwt>
<totfact> 0.90620870E+00</totfact>
</mgrwt>
</event>
<event>
 4    1  0.8645356E-007  0.6738687E+03  0.7818608E-02  0.1013029E+00
          2   -1    0    0  501    0  0.00000000000E+00  0.00000000000E+00  0.16638198499E+04  0.16638198499E+04  0.25500000000E-02 0. -1.
         -2   -1    0    0    0  501 -0.00000000000E+00 -0.00000000000E+00 -0.28991904341E+03  0.28991904342E+03  0.25500000000E-02 0.  1.
    8880023    1    1    2    0    0 -0.14222800329E+03 -0.77437576573E+01  0.12238491412E+03  0.68489199453E+03  0.65864270000E+03 0.  1.
    8880022    1    1    2    0    0  0.14222800329E+03  0.77437576573E+01  0.12515158923E+04  0.12688468988E+04  0.15294330000E+03 0.  0.
<mgrwt>
<rscale>  0 0.50288340E+03</rscale>
<asrwt>0</asrwt>
<pdfrwt beam="1">  1        2 0.25597229E+00 0.67386866E+03</pdfrwt>
<pdfrwt beam="2">  1       -2 0.44602929E-01 0.67386866E+03</pdfrwt>
<totfact> 0.50599053E+01</totfact>
</mgrwt>
</event>
<event>
 4    1  0.8645356E-007  0.7446895E+03  0.7818608E-02  0.9846492E-01
         -2   -1    0    0    0  501 -0.00000000000E+00  0.00000000000E+00  0.20738232577E+04  0.20738232577E+04  0.25500000000E-02 0.  1.
          2   -1    0    0  501    0  0.00000000000E+00 -0.00000000000E+00 -0.40827474288E+03  0.40827474289E+03  0.25500000000E-02 0. -1.
    8880023    1    1    2    0    0  0.24092296816E+03  0.25041640014E+03  0.18966656211E+04  0.20376218821E+04  0.65864270000E+03 0.  1.
    8880022    1    1    2    0    0 -0.24092296816E+03 -0.25041640014E+03 -0.23111710628E+03  0.44447611846E+03  0.15294330000E+03 0.  0.
<mgrwt>
<rscale>  0 0.62926121E+03</rscale>
<asrwt>0</asrwt>
<pdfrwt beam="1">  1        2 0.62811498E-01 0.74468950E+03</pdfrwt>
<pdfrwt beam="2">  1       -2 0.31904974E+00 0.74468950E+03</pdfrwt>
<totfact> 0.19734575E+00</totfact>
</mgrwt>
</event>
<event>
 4    1  0.8645356E-007  0.6845095E+03  0.7818608E-02  0.1006880E+00
         -2   -1    0    0    0  501 -0.00000000000E+00  0.00000000000E+00  0.77511567672E+02  0.77511567714E+02  0.25500000000E-02 0.  1.
          2   -1    0    0  501    0  0.00000000000E+00 -0.00000000000E+00 -0.27901123849E+04  0.27901123849E+04  0.25500000000E-02 0. -1.
    8880023    1    1    2    0    0  0.82240897024E+02 -0.16727078243E+03 -0.18763974707E+04  0.19973534375E+04  0.65864270000E+03 0.  0.
    8880022    1    1    2    0    0 -0.82240897024E+02  0.16727078243E+03 -0.83620334655E+03  0.87027051518E+03  0.15294330000E+03 0.  1.
<mgrwt>
<rscale>  0 0.52733802E+03</rscale>
<asrwt>0</asrwt>
<pdfrwt beam="1">  1        2 0.42924798E+00 0.68450952E+03</pdfrwt>
<pdfrwt beam="2">  1       -2 0.11924859E-01 0.68450952E+03</pdfrwt>
<totfact> 0.12730762E+02</totfact>
</mgrwt>
</event>
<event>
 4    1  0.8645356E-007  0.6629772E+03  0.7818608E-02  0.1021294E+00
          2   -1    0    0  501    0  0.00000000000E+00  0.00000000000E+00  0.13444530214E+04  0.13444530214E+04  0.25500000000E-02 0. -1.
         -2   -1    0    0    0  501 -0.00000000000E+00 -0.00000000000E+00 -0.16370226795E+03  0.16370226797E+03  0.25500000000E-02 0.  1.
    8880023    1    1    2    0    0  0.70402208065E+02 -0.27785831628E+02  0.57099434774E+03  0.87497044222E+03  0.65864270000E+03 0.  1.
    8880022    1    1    2    0    0 -0.70402208065E+02  0.27785831628E+02  0.60975640573E+03  0.63318484717E+03  0.15294330000E+03 0.  0.
<mgrwt>
<rscale>  0 0.47222414E+03</rscale>
<asrwt>0</asrwt>
<pdfrwt beam="1">  1        2 0.20683891E+00 0.66297717E+03</pdfrwt>
<pdfrwt beam="2">  1       -2 0.25184966E-01 0.66297717E+03</pdfrwt>
<totfact> 0.22442272E+02</totfact>
</mgrwt>
</event>
<event>
 4    1  0.8645356E-007  0.7327962E+03  0.7818608E-02  0.9881451E-01
         -2   -1    0    0    0  501 -0.00000000000E+00  0.00000000000E+00  0.59790682101E+03  0.59790682101E+03  0.25500000000E-02 0.  1.
          2   -1    0    0  501    0  0.00000000000E+00 -0.00000000000E+00 -0.79562615243E+03  0.79562615243E+03  0.25500000000E-02 0. -1.
    8880023    1    1    2    0    0  0.19645238780E+03 -0.25413873336E+03  0.29148668799E+03  0.78864106665E+03  0.65864270000E+03 0.  1.
    8880022    1    1    2    0    0 -0.19645238780E+03  0.25413873336E+03 -0.48920601941E+03  0.60489190680E+03  0.15294330000E+03 0.  0.
<mgrwt>
<rscale>  0 0.61168731E+03</rscale>
<asrwt>0</asrwt>
<pdfrwt beam="1">  1        2 0.12240402E+00 0.73279618E+03</pdfrwt>
<pdfrwt beam="2">  1       -2 0.91985664E-01 0.73279618E+03</pdfrwt>
<totfact> 0.35402839E+01</totfact>
</mgrwt>
</event>
<event>
 4    1  0.8645356E-007  0.6638602E+03  0.7818608E-02  0.1020509E+00
          2   -1    0    0  501    0  0.00000000000E+00  0.00000000000E+00  0.14363252061E+04  0.14363252061E+04  0.25500000000E-02 0. -1.
         -2   -1    0    0    0  501 -0.00000000000E+00 -0.00000000000E+00 -0.12243035139E+03  0.12243035142E+03  0.25500000000E-02 0.  1.
    8880023    1    1    2    0    0  0.48009356299E+02  0.67788272578E+02  0.10129245609E+04  0.12110848528E+04  0.65864270000E+03 0. -1.
    8880022    1    1    2    0    0 -0.48009356299E+02 -0.67788272578E+02  0.30097029372E+03  0.34767070470E+03  0.15294330000E+03 0.  0.
<mgrwt>
<rscale>  0 0.47503226E+03</rscale>
<asrwt>0</asrwt>
<pdfrwt beam="1">  1        2 0.22097310E+00 0.66386019E+03</pdfrwt>
<pdfrwt beam="2">  1       -2 0.18835440E-01 0.66386019E+03</pdfrwt>
<totfact> 0.33276644E+02</totfact>
</mgrwt>
</event>
<event>
 4    1  0.8645356E-007  0.7156744E+03  0.7818608E-02  0.9937503E-01
          2   -1    0    0  501    0  0.00000000000E+00  0.00000000000E+00  0.12996846934E+04  0.12996846934E+04  0.25500000000E-02 0. -1.
         -2   -1    0    0    0  501 -0.00000000000E+00 -0.00000000000E+00 -0.35225812566E+03  0.35225812567E+03  0.25500000000E-02 0.  1.
    8880023    1    1    2    0    0 -0.12608618652E+03 -0.24996396745E+03  0.10888451159E+04  0.13029864175E+04  0.65864270000E+03 0. -1.
    8880022    1    1    2    0    0  0.12608618652E+03  0.24996396745E+03 -0.14141854814E+03  0.34895640162E+03  0.15294330000E+03 0.  0.
<mgrwt>
<rscale>  0 0.58477640E+03</rscale>
<asrwt>0</asrwt>
<pdfrwt beam="1">  1        2 0.19995149E+00 0.71567445E+03</pdfrwt>
<pdfrwt beam="2">  1       -2 0.54193557E-01 0.71567445E+03</pdfrwt>
<totfact> 0.54195522E+01</totfact>
</mgrwt>
</event>
<event>
 4    1  0.8645356E-007  0.8226509E+03  0.7818608E-02  0.9663804E-01
          2   -1    0    0  501    0  0.00000000000E+00  0.00000000000E+00  0.31795300970E+04  0.31795300970E+04  0.25500000000E-02 0. -1.
         -2   -1    0    0    0  501 -0.00000000000E+00 -0.00000000000E+00 -0.22892525980E+03  0.22892525982E+03  0.25500000000E-02 0.  1.
    8880023    1    1    2    0    0  0.33112391573E+01  0.49288269810E+03  0.64378323848E+03  0.10446106369E+04  0.65864270000E+03 0.  1.
    8880022    1    1    2    0    0 -0.33112391573E+01 -0.49288269810E+03  0.23068215988E+04  0.23638447199E+04  0.15294330000E+03 0.  0.
<mgrwt>
<rscale>  0 0.73213373E+03</rscale>
<asrwt>0</asrwt>
<pdfrwt beam="1">  1        2 0.48915842E+00 0.82265091E+03</pdfrwt>
<pdfrwt beam="2">  1       -2 0.35219275E-01 0.82265091E+03</pdfrwt>
<totfact> 0.10678259E+01</totfact>
</mgrwt>
</event>
<event>
 4    1  0.8645356E-007  0.6683484E+03  0.7818608E-02  0.1016876E+00
         -2   -1    0    0    0  501 -0.00000000000E+00  0.00000000000E+00  0.70829634479E+03  0.70829634480E+03  0.25500000000E-02 0.  1.
          2   -1    0    0  501    0  0.00000000000E+00 -0.00000000000E+00 -0.34637819618E+03  0.34637819619E+03  0.25500000000E-02 0. -1.
    8880023    1    1    2    0    0  0.11159733225E+03 -0.20626783218E+02  0.48688137367E+03  0.82688760242E+03  0.65864270000E+03 0.  1.
    8880022    1    1    2    0    0 -0.11159733225E+03  0.20626783218E+02 -0.12496322505E+03  0.22778693857E+03  0.15294330000E+03 0.  0.
<mgrwt>
<rscale>  0 0.48831185E+03</rscale>
<asrwt>0</asrwt>
<pdfrwt beam="1">  1        2 0.53288954E-01 0.66834844E+03</pdfrwt>
<pdfrwt beam="2">  1       -2 0.10896867E+00 0.66834844E+03</pdfrwt>
<totfact> 0.63812825E+01</totfact>
</mgrwt>
</event>
<event>
 4    1  0.8645356E-007  0.1089863E+04  0.7818608E-02  0.9272427E-01
          2   -1    0    0  501    0  0.00000000000E+00  0.00000000000E+00  0.31307883266E+04  0.31307883266E+04  0.25500000000E-02 0. -1.
         -2   -1    0    0    0  501 -0.00000000000E+00 -0.00000000000E+00 -0.10068963558E+04  0.10068963558E+04  0.25500000000E-02 0.  1.
    8880023    1    1    2    0    0  0.60704117610E+03  0.62087993580E+03 -0.62120295578E+03  0.12544696898E+04  0.65864270000E+03 0.  1.
    8880022    1    1    2    0    0 -0.60704117610E+03 -0.62087993580E+03  0.27450949266E+04  0.28832149926E+04  0.15294330000E+03 0.  0.
<mgrwt>
<rscale>  0 0.10336137E+04</rscale>
<asrwt>0</asrwt>
<pdfrwt beam="1">  1        2 0.48165975E+00 0.10898629E+04</pdfrwt>
<pdfrwt beam="2">  1       -2 0.15490713E+00 0.10898629E+04</pdfrwt>
<totfact> 0.39701090E-01</totfact>
</mgrwt>
</event>
<event>
 4    1  0.8645356E-007  0.9806190E+03  0.7818608E-02  0.9407365E-01
          2   -1    0    0  501    0  0.00000000000E+00  0.00000000000E+00  0.34594974109E+04  0.34594974109E+04  0.25500000000E-02 0. -1.
         -2   -1    0    0    0  501 -0.00000000000E+00 -0.00000000000E+00 -0.26289083063E+03  0.26289083064E+03  0.25500000000E-02 0.  1.
    8880023    1    1    2    0    0 -0.63060211226E+03  0.36075533425E+03  0.98672678812E+03  0.13911302584E+04  0.65864270000E+03 0.  0.
    8880022    1    1    2    0    0  0.63060211226E+03 -0.36075533425E+03  0.22098797921E+04  0.23312579831E+04  0.15294330000E+03 0.  0.
<mgrwt>
<rscale>  0 0.91472047E+03</rscale>
<asrwt>0</asrwt>
<pdfrwt beam="1">  1        2 0.53223037E+00 0.98061901E+03</pdfrwt>
<pdfrwt beam="2">  1       -2 0.40444743E-01 0.98061901E+03</pdfrwt>
<totfact> 0.52161887E+00</totfact>
</mgrwt>
</event>
<event>
 4    1  0.8645356E-007  0.6776726E+03  0.7818608E-02  0.1010672E+00
         -2   -1    0    0    0  501 -0.00000000000E+00  0.00000000000E+00  0.15154095339E+04  0.15154095339E+04  0.25500000000E-02 0.  1.
          2   -1    0    0  501    0  0.00000000000E+00 -0.00000000000E+00 -0.10936928293E+04  0.10936928293E+04  0.25500000000E-02 0. -1.
    8880023    1    1    2    0    0  0.15913862819E+03  0.10240855331E+02  0.14270456787E+04  0.15797783242E+04  0.65864270000E+03 0.  0.
    8880022    1    1    2    0    0 -0.15913862819E+03 -0.10240855331E+02 -0.10053289741E+04  0.10293240390E+04  0.15294330000E+03 0. -1.
<mgrwt>
<rscale>  0 0.51208434E+03</rscale>
<asrwt>0</asrwt>
<pdfrwt beam="1">  1        2 0.16826044E+00 0.67767262E+03</pdfrwt>
<pdfrwt beam="2">  1       -2 0.23313993E+00 0.67767262E+03</pdfrwt>
<totfact> 0.18773214E+00</totfact>
</mgrwt>
</event>
<event>
 4    1  0.8645356E-007  0.6931421E+03  0.7818608E-02  0.1002694E+00
          2   -1    0    0  501    0  0.00000000000E+00  0.00000000000E+00  0.82707577635E+03  0.82707577635E+03  0.25500000000E-02 0. -1.
         -2   -1    0    0    0  501 -0.00000000000E+00 -0.00000000000E+00 -0.33914433352E+03  0.33914433353E+03  0.25500000000E-02 0.  1.
    8880023    1    1    2    0    0  0.13698152495E+03 -0.16694840692E+03  0.10544822586E+03  0.70111713954E+03  0.65864270000E+03 0.  1.
    8880022    1    1    2    0    0 -0.13698152495E+03  0.16694840692E+03  0.38248321697E+03  0.46510297035E+03  0.15294330000E+03 0.  0.
<mgrwt>
<rscale>  0 0.54484775E+03</rscale>
<asrwt>0</asrwt>
<pdfrwt beam="1">  1        2 0.12724243E+00 0.69314206E+03</pdfrwt>
<pdfrwt beam="2">  1       -2 0.52176052E-01 0.69314206E+03</pdfrwt>
<totfact> 0.11603206E+02</totfact>
</mgrwt>
</event>
<event>
 4    1  0.8645356E-007  0.7281291E+03  0.7818608E-02  0.9895982E-01
          2   -1    0    0  501    0  0.00000000000E+00  0.00000000000E+00  0.81979933952E+03  0.81979933952E+03  0.25500000000E-02 0. -1.
         -2   -1    0    0    0  501 -0.00000000000E+00 -0.00000000000E+00 -0.79064572060E+03  0.79064572061E+03  0.25500000000E-02 0.  1.
    8880023    1    1    2    0    0  0.14374915980E+03 -0.27513272087E+03 -0.56583479173E+03  0.92213938905E+03  0.65864270000E+03 0.  1.
    8880022    1    1    2    0    0 -0.14374915980E+03  0.27513272087E+03  0.59498841064E+03  0.68830567109E+03  0.15294330000E+03 0.  0.
<mgrwt>
<rscale>  0 0.60456407E+03</rscale>
<asrwt>0</asrwt>
<pdfrwt beam="1">  1        2 0.12612298E+00 0.72812914E+03</pdfrwt>
<pdfrwt beam="2">  1       -2 0.12163780E+00 0.72812914E+03</pdfrwt>
<totfact> 0.17407829E+01</totfact>
</mgrwt>
</event>
<event>
 4    1  0.8645356E-007  0.1578841E+04  0.7818608E-02  0.8855880E-01
         -2   -1    0    0    0  501 -0.00000000000E+00  0.00000000000E+00  0.53026530609E+04  0.53026530609E+04  0.25500000000E-02 0.  1.
          2   -1    0    0  501    0  0.00000000000E+00 -0.00000000000E+00 -0.83242135276E+03  0.83242135276E+03  0.25500000000E-02 0. -1.
    8880023    1    1    2    0    0 -0.13798399447E+04  0.39366469618E+03  0.44174106828E+04  0.46910827655E+04  0.65864270000E+03 0.  0.
    8880022    1    1    2    0    0  0.13798399447E+04 -0.39366469618E+03  0.52821025282E+02  0.14439916481E+04  0.15294330000E+03 0.  0.
<mgrwt>
<rscale>  0 0.15437337E+04</rscale>
<asrwt>0</asrwt>
<pdfrwt beam="1">  1        2 0.12806482E+00 0.15788415E+04</pdfrwt>
<pdfrwt beam="2">  1       -2 0.81579279E+00 0.15788415E+04</pdfrwt>
<totfact> 0.19492723E-03</totfact>
</mgrwt>
</event>
<event>
 4    1  0.8645356E-007  0.6811089E+03  0.7818608E-02  0.1008703E+00
         -2   -1    0    0    0  501 -0.00000000000E+00  0.00000000000E+00  0.81146602148E+03  0.81146602148E+03  0.25500000000E-02 0.  1.
          2   -1    0    0  501    0  0.00000000000E+00 -0.00000000000E+00 -0.65477700345E+03  0.65477700346E+03  0.25500000000E-02 0. -1.
    8880023    1    1    2    0    0  0.13331697910E+03  0.11102104685E+03  0.63736827486E+03  0.93281703126E+03  0.65864270000E+03 0.  1.
    8880022    1    1    2    0    0 -0.13331697910E+03 -0.11102104685E+03 -0.48067925683E+03  0.53342599367E+03  0.15294330000E+03 0.  0.
<mgrwt>
<rscale>  0 0.51993282E+03</rscale>
<asrwt>0</asrwt>
<pdfrwt beam="1">  1        2 0.10073492E+00 0.68110887E+03</pdfrwt>
<pdfrwt beam="2">  1       -2 0.12484093E+00 0.68110887E+03</pdfrwt>
<totfact> 0.21864504E+01</totfact>
</mgrwt>
</event>
<event>
 4    1  0.8645356E-007  0.9724481E+03  0.7818608E-02  0.9418526E-01
         -2   -1    0    0    0  501 -0.00000000000E+00  0.00000000000E+00  0.29869189687E+03  0.29869189688E+03  0.25500000000E-02 0.  1.
          2   -1    0    0  501    0  0.00000000000E+00 -0.00000000000E+00 -0.24305161205E+04  0.24305161205E+04  0.25500000000E-02 0. -1.
    8880023    1    1    2    0    0  0.32796231316E+03  0.63583470583E+03 -0.12254724669E+04  0.15644289774E+04  0.65864270000E+03 0. -1.
    8880022    1    1    2    0    0 -0.32796231316E+03 -0.63583470583E+03 -0.90635175671E+03  0.11647790399E+04  0.15294330000E+03 0.  1.
<mgrwt>
<rscale>  0 0.90566597E+03</rscale>
<asrwt>0</asrwt>
<pdfrwt beam="1">  1        2 0.37392554E+00 0.97244807E+03</pdfrwt>
<pdfrwt beam="2">  1       -2 0.45952601E-01 0.97244807E+03</pdfrwt>
<totfact> 0.17387143E+01</totfact>
</mgrwt>
</event>
<event>
 4    1  0.8645356E-007  0.7233848E+03  0.7818608E-02  0.9911295E-01
         -2   -1    0    0    0  501 -0.00000000000E+00  0.00000000000E+00  0.68313682841E+03  0.68313682842E+03  0.25500000000E-02 0.  1.
          2   -1    0    0  501    0  0.00000000000E+00 -0.00000000000E+00 -0.94631837399E+03  0.94631837399E+03  0.25500000000E-02 0. -1.
    8880023    1    1    2    0    0  0.22952705428E+03 -0.19181424662E+03  0.44242364803E+03  0.84795298481E+03  0.65864270000E+03 0.  1.
    8880022    1    1    2    0    0 -0.22952705428E+03  0.19181424662E+03 -0.70560519360E+03  0.78150221760E+03  0.15294330000E+03 0.  0.
<mgrwt>
<rscale>  0 0.59716992E+03</rscale>
<asrwt>0</asrwt>
<pdfrwt beam="1">  1        2 0.14558744E+00 0.72338481E+03</pdfrwt>
<pdfrwt beam="2">  1       -2 0.10509797E+00 0.72338481E+03</pdfrwt>
<totfact> 0.20399738E+01</totfact>
</mgrwt>
</event>
<event>
 4    1  0.8645356E-007  0.9956603E+03  0.7818608E-02  0.9387257E-01
         -2   -1    0    0    0  501 -0.00000000000E+00  0.00000000000E+00  0.11026782482E+04  0.11026782482E+04  0.25500000000E-02 0.  1.
          2   -1    0    0  501    0  0.00000000000E+00 -0.00000000000E+00 -0.77711731560E+03  0.77711731560E+03  0.25500000000E-02 0. -1.
    8880023    1    1    2    0    0 -0.74162616488E+03 -0.86717074654E+02  0.47490509443E+03  0.11031202448E+04  0.65864270000E+03 0.  1.
    8880022    1    1    2    0    0  0.74162616488E+03  0.86717074654E+02 -0.14934416184E+03  0.77667531901E+03  0.15294330000E+03 0.  0.
<mgrwt>
<rscale>  0 0.93131804E+03</rscale>
<asrwt>0</asrwt>
<pdfrwt beam="1">  1        2 0.11955651E+00 0.99566030E+03</pdfrwt>
<pdfrwt beam="2">  1       -2 0.16964281E+00 0.99566030E+03</pdfrwt>
<totfact> 0.76157118E+00</totfact>
</mgrwt>
</event>
<event>
 4    1  0.8645356E-007  0.7246234E+03  0.7818608E-02  0.9907242E-01
         -2   -1    0    0    0  501 -0.00000000000E+00  0.00000000000E+00  0.24397966709E+03  0.24397966710E+03  0.25500000000E-02 0.  1.
          2   -1    0    0  501    0  0.00000000000E+00 -0.00000000000E+00 -0.15428342765E+04  0.15428342765E+04  0.25500000000E-02 0. -1.
    8880023    1    1    2    0    0  0.12570521469E+03  0.27471268117E+03 -0.40310904984E+03  0.82920200827E+03  0.65864270000E+03 0.  1.
    8880022    1    1    2    0    0 -0.12570521469E+03 -0.27471268117E+03 -0.89574555959E+03  0.95761193536E+03  0.15294330000E+03 0.  0.
<mgrwt>
<rscale>  0 0.59911611E+03</rscale>
<asrwt>0</asrwt>
<pdfrwt beam="1">  1        2 0.23735911E+00 0.72462339E+03</pdfrwt>
<pdfrwt beam="2">  1       -2 0.37535334E-01 0.72462339E+03</pdfrwt>
<totfact> 0.82187532E+01</totfact>
</mgrwt>
</event>
<event>
 4    1  0.8645356E-007  0.7583168E+03  0.7818608E-02  0.9809485E-01
         -2   -1    0    0    0  501 -0.00000000000E+00  0.00000000000E+00  0.52314622035E+03  0.52314622036E+03  0.25500000000E-02 0.  1.
          2   -1    0    0  501    0  0.00000000000E+00 -0.00000000000E+00 -0.76933021841E+03  0.76933021842E+03  0.25500000000E-02 0. -1.
    8880023    1    1    2    0    0 -0.81448052306E+01 -0.37572305741E+03  0.92525675438E+02  0.76394067872E+03  0.65864270000E+03 0.  0.
    8880022    1    1    2    0    0  0.81448052306E+01  0.37572305741E+03 -0.33870967350E+03  0.52853576006E+03  0.15294330000E+03 0.  0.
<mgrwt>
<rscale>  0 0.64856013E+03</rscale>
<asrwt>0</asrwt>
<pdfrwt beam="1">  1        2 0.11835850E+00 0.75831679E+03</pdfrwt>
<pdfrwt beam="2">  1       -2 0.80484034E-01 0.75831679E+03</pdfrwt>
<totfact> 0.50096443E+01</totfact>
</mgrwt>
</event>
<event>
 4    1  0.8645356E-007  0.6625339E+03  0.7818608E-02  0.1021699E+00
          2   -1    0    0  501    0  0.00000000000E+00  0.00000000000E+00  0.20975099403E+04  0.20975099404E+04  0.25500000000E-02 0. -1.
         -2   -1    0    0    0  501 -0.00000000000E+00 -0.00000000000E+00 -0.85099088379E+02  0.85099088417E+02  0.25500000000E-02 0.  1.
    8880023    1    1    2    0    0  0.14487007603E+02  0.70221845526E+02  0.14267535107E+04  0.15730787544E+04  0.65864270000E+03 0.  0.
    8880022    1    1    2    0    0 -0.14487007603E+02 -0.70221845526E+02  0.58565734124E+03  0.60953027434E+03  0.15294330000E+03 0.  0.
<mgrwt>
<rscale>  0 0.47078630E+03</rscale>
<asrwt>0</asrwt>
<pdfrwt beam="1">  1        2 0.32269385E+00 0.66253391E+03</pdfrwt>
<pdfrwt beam="2">  1       -2 0.13092167E-01 0.66253391E+03</pdfrwt>
<totfact> 0.26847298E+02</totfact>
</mgrwt>
</event>
<event>
 4    1  0.8645356E-007  0.7014074E+03  0.7818608E-02  0.9991412E-01
         -2   -1    0    0    0  501 -0.00000000000E+00  0.00000000000E+00  0.28360338130E+03  0.28360338131E+03  0.25500000000E-02 0.  1.
          2   -1    0    0  501    0  0.00000000000E+00 -0.00000000000E+00 -0.21016589468E+04  0.21016589468E+04  0.25500000000E-02 0. -1.
    8880023    1    1    2    0    0  0.22756827841E+03  0.79842052298E+02 -0.18222538938E+03  0.72469191623E+03  0.65864270000E+03 0.  0.
    8880022    1    1    2    0    0 -0.22756827841E+03 -0.79842052298E+02 -0.16358301761E+04  0.16605704118E+04  0.15294330000E+03 0.  0.
<mgrwt>
<rscale>  0 0.56028399E+03</rscale>
<asrwt>0</asrwt>
<pdfrwt beam="1">  1        2 0.32333214E+00 0.70140736E+03</pdfrwt>
<pdfrwt beam="2">  1       -2 0.43631291E-01 0.70140736E+03</pdfrwt>
<totfact> 0.30418940E+01</totfact>
</mgrwt>
</event>
<event>
 4    1  0.8645356E-007  0.6748910E+03  0.7818608E-02  0.1012375E+00
          2   -1    0    0  501    0  0.00000000000E+00  0.00000000000E+00  0.77212072938E+03  0.77212072938E+03  0.25500000000E-02 0. -1.
         -2   -1    0    0    0  501 -0.00000000000E+00 -0.00000000000E+00 -0.10575601046E+04  0.10575601046E+04  0.25500000000E-02 0.  1.
    8880023    1    1    2    0    0 -0.42780205948E+02  0.14084554958E+03 -0.93113070030E+03  0.11499922618E+04  0.65864270000E+03 0.  1.
    8880022    1    1    2    0    0  0.42780205948E+02 -0.14084554958E+03  0.64569132509E+03  0.67968857219E+03  0.15294330000E+03 0.  0.
<mgrwt>
<rscale>  0 0.50541512E+03</rscale>
<asrwt>0</asrwt>
<pdfrwt beam="1">  1        2 0.11878780E+00 0.67489097E+03</pdfrwt>
<pdfrwt beam="2">  1       -2 0.16270155E+00 0.67489097E+03</pdfrwt>
<totfact> 0.89155883E+00</totfact>
</mgrwt>
</event>
<event>
 4    1  0.8645356E-007  0.7165769E+03  0.7818608E-02  0.9934344E-01
         -2   -1    0    0    0  501 -0.00000000000E+00  0.00000000000E+00  0.18575835075E+04  0.18575835075E+04  0.25500000000E-02 0.  1.
          2   -1    0    0  501    0  0.00000000000E+00 -0.00000000000E+00 -0.20109356388E+03  0.20109356390E+03  0.25500000000E-02 0. -1.
    8880023    1    1    2    0    0  0.35594277883E+02 -0.28000935922E+03  0.15706086249E+04  0.17263527603E+04  0.65864270000E+03 0.  1.
    8880022    1    1    2    0    0 -0.35594277883E+02  0.28000935922E+03  0.85881318700E+02  0.33232431115E+03  0.15294330000E+03 0.  0.
<mgrwt>
<rscale>  0 0.58625341E+03</rscale>
<asrwt>0</asrwt>
<pdfrwt beam="1">  1        2 0.30937472E-01 0.71657686E+03</pdfrwt>
<pdfrwt beam="2">  1       -2 0.28578208E+00 0.71657686E+03</pdfrwt>
<totfact> 0.69337768E+00</totfact>
</mgrwt>
</event>
<event>
 4    1  0.8645356E-007  0.9002414E+03  0.7818608E-02  0.9525644E-01
         -2   -1    0    0    0  501 -0.00000000000E+00  0.00000000000E+00  0.46076568522E+03  0.46076568523E+03  0.25500000000E-02 0.  1.
          2   -1    0    0  501    0  0.00000000000E+00 -0.00000000000E+00 -0.21337820156E+04  0.21337820156E+04  0.25500000000E-02 0. -1.
    8880023    1    1    2    0    0  0.18537458738E+02 -0.61341731256E+03 -0.10816524956E+03  0.90671625341E+03  0.65864270000E+03 0.  0.
    8880022    1    1    2    0    0 -0.18537458738E+02  0.61341731256E+03 -0.15648510808E+04  0.16878314474E+04  0.15294330000E+03 0. -1.
<mgrwt>
<rscale>  0 0.82419302E+03</rscale>
<asrwt>0</asrwt>
<pdfrwt beam="1">  1        2 0.32827415E+00 0.90024144E+03</pdfrwt>
<pdfrwt beam="2">  1       -2 0.70887030E-01 0.90024144E+03</pdfrwt>
<totfact> 0.10345388E+01</totfact>
</mgrwt>
</event>
<event>
 4    1  0.8645356E-007  0.7656091E+03  0.7818608E-02  0.9790797E-01
          2   -1    0    0  501    0  0.00000000000E+00  0.00000000000E+00  0.82081876693E+03  0.82081876694E+03  0.25500000000E-02 0. -1.
         -2   -1    0    0    0  501 -0.00000000000E+00 -0.00000000000E+00 -0.65801732646E+03  0.65801732646E+03  0.25500000000E-02 0.  1.
    8880023    1    1    2    0    0 -0.23643035009E+03 -0.31056031088E+03 -0.32839849119E+03  0.83306829997E+03  0.65864270000E+03 0.  0.
    8880022    1    1    2    0    0  0.23643035009E+03  0.31056031088E+03  0.49119993167E+03  0.64576779343E+03  0.15294330000E+03 0.  0.
<mgrwt>
<rscale>  0 0.65858785E+03</rscale>
<asrwt>0</asrwt>
<pdfrwt beam="1">  1        2 0.12627981E+00 0.76560905E+03</pdfrwt>
<pdfrwt beam="2">  1       -2 0.10123344E+00 0.76560905E+03</pdfrwt>
<totfact> 0.27046350E+01</totfact>
</mgrwt>
</event>
<event>
 4    1  0.8645356E-007  0.8630839E+03  0.7818608E-02  0.9588101E-01
         -2   -1    0    0    0  501 -0.00000000000E+00  0.00000000000E+00  0.27739385891E+03  0.27739385892E+03  0.25500000000E-02 0.  1.
          2   -1    0    0  501    0  0.00000000000E+00 -0.00000000000E+00 -0.20863608716E+04  0.20863608716E+04  0.25500000000E-02 0. -1.
    8880023    1    1    2    0    0  0.24558500787E+03 -0.50079106459E+03 -0.69318303897E+03  0.11069853740E+04  0.65864270000E+03 0. -1.
    8880022    1    1    2    0    0 -0.24558500787E+03  0.50079106459E+03 -0.11157839737E+04  0.12567693565E+04  0.15294330000E+03 0.  0.
<mgrwt>
<rscale>  0 0.78088762E+03</rscale>
<asrwt>0</asrwt>
<pdfrwt beam="1">  1        2 0.32097859E+00 0.86308394E+03</pdfrwt>
<pdfrwt beam="2">  1       -2 0.42675980E-01 0.86308394E+03</pdfrwt>
<totfact> 0.31741752E+01</totfact>
</mgrwt>
</event>
<event>
 4    1  0.8645356E-007  0.7654816E+03  0.7818608E-02  0.9791117E-01
         -2   -1    0    0    0  501 -0.00000000000E+00  0.00000000000E+00  0.49330986503E+03  0.49330986504E+03  0.25500000000E-02 0.  1.
          2   -1    0    0  501    0  0.00000000000E+00 -0.00000000000E+00 -0.94360180047E+03  0.94360180048E+03  0.25500000000E-02 0. -1.
    8880023    1    1    2    0    0 -0.30527252777E+03 -0.24281794925E+03  0.70251386729E+02  0.76869846903E+03  0.65864270000E+03 0.  1.
    8880022    1    1    2    0    0  0.30527252777E+03  0.24281794925E+03 -0.52054332217E+03  0.66821319649E+03  0.15294330000E+03 0.  0.
<mgrwt>
<rscale>  0 0.65841417E+03</rscale>
<asrwt>0</asrwt>
<pdfrwt beam="1">  1        2 0.14516951E+00 0.76548160E+03</pdfrwt>
<pdfrwt beam="2">  1       -2 0.75893825E-01 0.76548160E+03</pdfrwt>
<totfact> 0.43226539E+01</totfact>
</mgrwt>
</event>
<event>
 4    1  0.8645356E-007  0.6664605E+03  0.7818608E-02  0.1018338E+00
         -2   -1    0    0    0  501 -0.00000000000E+00  0.00000000000E+00  0.52566728185E+03  0.52566728185E+03  0.25500000000E-02 0.  1.
          2   -1    0    0  501    0  0.00000000000E+00 -0.00000000000E+00 -0.18037016653E+04  0.18037016653E+04  0.25500000000E-02 0. -1.
    8880023    1    1    2    0    0  0.97231815264E+02  0.30090239378E+02  0.30696678820E+03  0.73375626998E+03  0.65864270000E+03 0.  1.
    8880022    1    1    2    0    0 -0.97231815264E+02 -0.30090239378E+02 -0.15850011717E+04  0.15956126772E+04  0.15294330000E+03 0.  0.
<mgrwt>
<rscale>  0 0.48291070E+03</rscale>
<asrwt>0</asrwt>
<pdfrwt beam="1">  1        2 0.27749256E+00 0.66646054E+03</pdfrwt>
<pdfrwt beam="2">  1       -2 0.80871890E-01 0.66646054E+03</pdfrwt>
<totfact> 0.12091715E+01</totfact>
</mgrwt>
</event>
<event>
 4    1  0.8645356E-007  0.8236411E+03  0.7818608E-02  0.9661834E-01
         -2   -1    0    0    0  501 -0.00000000000E+00  0.00000000000E+00  0.22068766484E+03  0.22068766485E+03  0.25500000000E-02 0.  1.
          2   -1    0    0  501    0  0.00000000000E+00 -0.00000000000E+00 -0.36151986025E+04  0.36151986025E+04  0.25500000000E-02 0. -1.
    8880023    1    1    2    0    0  0.18093079729E+03  0.46025909359E+03 -0.66745028477E+03  0.10601294617E+04  0.65864270000E+03 0.  1.
    8880022    1    1    2    0    0 -0.18093079729E+03 -0.46025909359E+03 -0.27270606529E+04  0.27757568057E+04  0.15294330000E+03 0.  0.
<mgrwt>
<rscale>  0 0.73335365E+03</rscale>
<asrwt>0</asrwt>
<pdfrwt beam="1">  1        2 0.55618436E+00 0.82364106E+03</pdfrwt>
<pdfrwt beam="2">  1       -2 0.33951951E-01 0.82364106E+03</pdfrwt>
<totfact> 0.58568506E+00</totfact>
</mgrwt>
</event>
<event>
 4    1  0.8645356E-007  0.8389032E+03  0.7818608E-02  0.9632252E-01
         -2   -1    0    0    0  501 -0.00000000000E+00  0.00000000000E+00  0.70778681165E+03  0.70778681165E+03  0.25500000000E-02 0.  1.
          2   -1    0    0  501    0  0.00000000000E+00 -0.00000000000E+00 -0.13879764954E+04  0.13879764954E+04  0.25500000000E-02 0. -1.
    8880023    1    1    2    0    0  0.37624499735E+03 -0.35831270614E+03  0.36788074288E+03  0.91602114640E+03  0.65864270000E+03 0.  1.
    8880022    1    1    2    0    0 -0.37624499735E+03  0.35831270614E+03 -0.10480704266E+04  0.11797421606E+04  0.15294330000E+03 0.  0.
<mgrwt>
<rscale>  0 0.75197824E+03</rscale>
<asrwt>0</asrwt>
<pdfrwt beam="1">  1        2 0.21353485E+00 0.83890315E+03</pdfrwt>
<pdfrwt beam="2">  1       -2 0.10889028E+00 0.83890315E+03</pdfrwt>
<totfact> 0.10013166E+01</totfact>
</mgrwt>
</event>
<event>
 4    1  0.8645356E-007  0.8021687E+03  0.7818608E-02  0.9706126E-01
         -2   -1    0    0    0  501 -0.00000000000E+00  0.00000000000E+00  0.13167945153E+03  0.13167945155E+03  0.25500000000E-02 0.  1.
          2   -1    0    0  501    0  0.00000000000E+00 -0.00000000000E+00 -0.31363105109E+04  0.31363105109E+04  0.25500000000E-02 0. -1.
    8880023    1    1    2    0    0  0.15521999300E+03 -0.43077976553E+03 -0.19127408725E+04  0.20741389308E+04  0.65864270000E+03 0.  0.
    8880022    1    1    2    0    0 -0.15521999300E+03  0.43077976553E+03 -0.10918901868E+04  0.11938510316E+04  0.15294330000E+03 0.  1.
<mgrwt>
<rscale>  0 0.70653203E+03</rscale>
<asrwt>0</asrwt>
<pdfrwt beam="1">  1        2 0.48250925E+00 0.80216872E+03</pdfrwt>
<pdfrwt beam="2">  1       -2 0.20258380E-01 0.80216872E+03</pdfrwt>
<totfact> 0.31340960E+01</totfact>
</mgrwt>
</event>
<event>
 4    1  0.8645356E-007  0.6853805E+03  0.7818608E-02  0.1006430E+00
          2   -1    0    0  501    0  0.00000000000E+00  0.00000000000E+00  0.45586273348E+04  0.45586273348E+04  0.25500000000E-02 0. -1.
         -2   -1    0    0    0  501 -0.00000000000E+00 -0.00000000000E+00 -0.63768790661E+02  0.63768790712E+02  0.25500000000E-02 0.  1.
    8880023    1    1    2    0    0  0.18872351071E+03 -0.17878289470E+02  0.19700840106E+04  0.20858996648E+04  0.65864270000E+03 0.  0.
    8880022    1    1    2    0    0 -0.18872351071E+03  0.17878289470E+02  0.25247745336E+04  0.25364964607E+04  0.15294330000E+03 0.  0.
<mgrwt>
<rscale>  0 0.52918329E+03</rscale>
<asrwt>0</asrwt>
<pdfrwt beam="1">  1        2 0.70132732E+00 0.68538048E+03</pdfrwt>
<pdfrwt beam="2">  1       -2 0.98105826E-02 0.68538048E+03</pdfrwt>
<totfact> 0.87848548E+00</totfact>
</mgrwt>
</event>
<event>
 4    1  0.8645356E-007  0.6739618E+03  0.7818608E-02  0.1012969E+00
         -2   -1    0    0    0  501 -0.00000000000E+00  0.00000000000E+00  0.10718757779E+03  0.10718757782E+03  0.25500000000E-02 0.  1.
          2   -1    0    0  501    0  0.00000000000E+00 -0.00000000000E+00 -0.21420113697E+04  0.21420113697E+04  0.25500000000E-02 0. -1.
    8880023    1    1    2    0    0 -0.14174715090E+03  0.17947177823E+02 -0.10904886848E+04  0.12819477891E+04  0.65864270000E+03 0.  1.
    8880022    1    1    2    0    0  0.14174715090E+03 -0.17947177823E+02 -0.94433510712E+03  0.96725115846E+03  0.15294330000E+03 0.  1.
<mgrwt>
<rscale>  0 0.50311607E+03</rscale>
<asrwt>0</asrwt>
<pdfrwt beam="1">  1        2 0.32954018E+00 0.67396184E+03</pdfrwt>
<pdfrwt beam="2">  1       -2 0.16490398E-01 0.67396184E+03</pdfrwt>
<totfact> 0.17187698E+02</totfact>
</mgrwt>
</event>
<event>
 4    1  0.8645356E-007  0.7361877E+03  0.7818608E-02  0.9871194E-01
         -2   -1    0    0    0  501 -0.00000000000E+00  0.00000000000E+00  0.78333719615E+03  0.78333719615E+03  0.25500000000E-02 0.  1.
          2   -1    0    0  501    0  0.00000000000E+00 -0.00000000000E+00 -0.41200126062E+03  0.41200126063E+03  0.25500000000E-02 0. -1.
    8880023    1    1    2    0    0  0.32852267324E+03 -0.15327607707E+02  0.38814996375E+03  0.83224556653E+03  0.65864270000E+03 0.  0.
    8880022    1    1    2    0    0 -0.32852267324E+03  0.15327607707E+02 -0.16814028220E+02  0.36309289025E+03  0.15294330000E+03 0.  0.
<mgrwt>
<rscale>  0 0.61677861E+03</rscale>
<asrwt>0</asrwt>
<pdfrwt beam="1">  1        2 0.63384810E-01 0.73618767E+03</pdfrwt>
<pdfrwt beam="2">  1       -2 0.12051341E+00 0.73618767E+03</pdfrwt>
<totfact> 0.40906114E+01</totfact>
</mgrwt>
</event>
<event>
 4    1  0.8645356E-007  0.9500256E+03  0.7818608E-02  0.9450077E-01
         -2   -1    0    0    0  501 -0.00000000000E+00  0.00000000000E+00  0.49316582744E+03  0.49316582745E+03  0.25500000000E-02 0.  1.
          2   -1    0    0  501    0  0.00000000000E+00 -0.00000000000E+00 -0.17948784261E+04  0.17948784261E+04  0.25500000000E-02 0. -1.
    8880023    1    1    2    0    0 -0.91569508507E+02 -0.67849350587E+03 -0.18287652806E+03  0.96746702434E+03  0.65864270000E+03 0.  0.
    8880022    1    1    2    0    0  0.91569508507E+02  0.67849350587E+03 -0.11188360706E+04  0.13205772292E+04  0.15294330000E+03 0.  0.
<mgrwt>
<rscale>  0 0.88066648E+03</rscale>
<asrwt>0</asrwt>
<pdfrwt beam="1">  1        2 0.27613514E+00 0.95002559E+03</pdfrwt>
<pdfrwt beam="2">  1       -2 0.75871667E-01 0.95002559E+03</pdfrwt>
<totfact> 0.13589726E+01</totfact>
</mgrwt>
</event>
<event>
 4    1  0.8645356E-007  0.7105007E+03  0.7818608E-02  0.9956146E-01
          2   -1    0    0  501    0  0.00000000000E+00  0.00000000000E+00  0.99532144574E+03  0.99532144574E+03  0.25500000000E-02 0. -1.
         -2   -1    0    0    0  501 -0.00000000000E+00 -0.00000000000E+00 -0.80786507928E+03  0.80786507928E+03  0.25500000000E-02 0.  1.
    8880023    1    1    2    0    0  0.25311632303E+03 -0.83265381224E+02 -0.61765881305E+03  0.94144230428E+03  0.65864270000E+03 0.  0.
    8880022    1    1    2    0    0 -0.25311632303E+03  0.83265381224E+02  0.80511517951E+03  0.86174422074E+03  0.15294330000E+03 0.  0.
<mgrwt>
<rscale>  0 0.57615673E+03</rscale>
<asrwt>0</asrwt>
<pdfrwt beam="1">  1        2 0.15312638E+00 0.71050067E+03</pdfrwt>
<pdfrwt beam="2">  1       -2 0.12428694E+00 0.71050067E+03</pdfrwt>
<totfact> 0.12605794E+01</totfact>
</mgrwt>
</event>
<event>
 4    1  0.8645356E-007  0.9895500E+03  0.7818608E-02  0.9395359E-01
          2   -1    0    0  501    0  0.00000000000E+00  0.00000000000E+00  0.45253860453E+03  0.45253860454E+03  0.25500000000E-02 0. -1.
         -2   -1    0    0    0  501 -0.00000000000E+00 -0.00000000000E+00 -0.24351034392E+04  0.24351034392E+04  0.25500000000E-02 0.  1.
    8880023    1    1    2    0    0  0.68879481899E+03  0.26638446227E+03 -0.18826491131E+04  0.21268702062E+04  0.65864270000E+03 0.  1.
    8880022    1    1    2    0    0 -0.68879481899E+03 -0.26638446227E+03 -0.99915721513E+02  0.76077183756E+03  0.15294330000E+03 0.  0.
<mgrwt>
<rscale>  0 0.92458610E+03</rscale>
<asrwt>0</asrwt>
<pdfrwt beam="1">  1        2 0.69621325E-01 0.98954999E+03</pdfrwt>
<pdfrwt beam="2">  1       -2 0.37463129E+00 0.98954999E+03</pdfrwt>
<totfact> 0.76405684E-01</totfact>
</mgrwt>
</event>
<event>
 4    1  0.8645356E-007  0.6682565E+03  0.7818608E-02  0.1016945E+00
         -2   -1    0    0    0  501 -0.00000000000E+00  0.00000000000E+00  0.24943649496E+03  0.24943649497E+03  0.25500000000E-02 0.  1.
          2   -1    0    0  501    0  0.00000000000E+00 -0.00000000000E+00 -0.15033434259E+04  0.15033434259E+04  0.25500000000E-02 0. -1.
    8880023    1    1    2    0    0  0.11245494725E+03  0.10510379058E+02 -0.22299295260E+03  0.70448040881E+03  0.65864270000E+03 0.  1.
    8880022    1    1    2    0    0 -0.11245494725E+03 -0.10510379058E+02 -0.10309139783E+04  0.10482995121E+04  0.15294330000E+03 0.  0.
<mgrwt>
<rscale>  0 0.48805447E+03</rscale>
<asrwt>0</asrwt>
<pdfrwt beam="1">  1        2 0.23128360E+00 0.66825653E+03</pdfrwt>
<pdfrwt beam="2">  1       -2 0.38374846E-01 0.66825653E+03</pdfrwt>
<totfact> 0.83304405E+01</totfact>
</mgrwt>
</event>
<event>
 4    1  0.8645356E-007  0.7149913E+03  0.7818608E-02  0.9939913E-01
         -2   -1    0    0    0  501 -0.00000000000E+00  0.00000000000E+00  0.26137414502E+03  0.26137414503E+03  0.25500000000E-02 0.  1.
          2   -1    0    0  501    0  0.00000000000E+00 -0.00000000000E+00 -0.29785513863E+04  0.29785513863E+04  0.25500000000E-02 0. -1.
    8880023    1    1    2    0    0 -0.10866950025E+03  0.25611199230E+03 -0.25765774827E+03  0.76000008842E+03  0.65864270000E+03 0.  1.
    8880022    1    1    2    0    0  0.10866950025E+03 -0.25611199230E+03 -0.24595194930E+04  0.24799254429E+04  0.15294330000E+03 0.  0.
<mgrwt>
<rscale>  0 0.58365332E+03</rscale>
<asrwt>0</asrwt>
<pdfrwt beam="1">  1        2 0.45823865E+00 0.71499134E+03</pdfrwt>
<pdfrwt beam="2">  1       -2 0.40211409E-01 0.71499134E+03</pdfrwt>
<totfact> 0.11233597E+01</totfact>
</mgrwt>
</event>
<event>
 4    1  0.8645356E-007  0.1002003E+04  0.7818608E-02  0.9378942E-01
          2   -1    0    0  501    0  0.00000000000E+00  0.00000000000E+00  0.93171843075E+03  0.93171843075E+03  0.25500000000E-02 0. -1.
         -2   -1    0    0    0  501 -0.00000000000E+00 -0.00000000000E+00 -0.11745507398E+04  0.11745507398E+04  0.25500000000E-02 0.  1.
    8880023    1    1    2    0    0  0.48220287958E+02  0.75357471416E+03 -0.68892993190E+03  0.12159912431E+04  0.65864270000E+03 0.  0.
    8880022    1    1    2    0    0 -0.48220287958E+02 -0.75357471416E+03  0.44609762283E+03  0.89027792745E+03  0.15294330000E+03 0.  0.
<mgrwt>
<rscale>  0 0.93829150E+03</rscale>
<asrwt>0</asrwt>
<pdfrwt beam="1">  1        2 0.14334130E+00 0.10020031E+04</pdfrwt>
<pdfrwt beam="2">  1       -2 0.18070011E+00 0.10020031E+04</pdfrwt>
<totfact> 0.49627384E+00</totfact>
</mgrwt>
</event>
<event>
 4    1  0.8645356E-007  0.9708935E+03  0.7818608E-02  0.9420670E-01
         -2   -1    0    0    0  501 -0.00000000000E+00  0.00000000000E+00  0.51180692084E+03  0.51180692085E+03  0.25500000000E-02 0.  1.
          2   -1    0    0  501    0  0.00000000000E+00 -0.00000000000E+00 -0.19548076156E+04  0.19548076156E+04  0.25500000000E-02 0. -1.
    8880023    1    1    2    0    0 -0.58812910793E+03  0.40364347269E+03 -0.15056786907E+03  0.98249925705E+03  0.65864270000E+03 0.  1.
    8880022    1    1    2    0    0  0.58812910793E+03 -0.40364347269E+03 -0.12924328257E+04  0.14841152794E+04  0.15294330000E+03 0.  0.
<mgrwt>
<rscale>  0 0.90394005E+03</rscale>
<asrwt>0</asrwt>
<pdfrwt beam="1">  1        2 0.30073963E+00 0.97089346E+03</pdfrwt>
<pdfrwt beam="2">  1       -2 0.78739527E-01 0.97089346E+03</pdfrwt>
<totfact> 0.10191645E+01</totfact>
</mgrwt>
</event>
<event>
 4    1  0.8645356E-007  0.6760938E+03  0.7818608E-02  0.1011626E+00
          2   -1    0    0  501    0  0.00000000000E+00  0.00000000000E+00  0.23801682314E+04  0.23801682314E+04  0.25500000000E-02 0. -1.
         -2   -1    0    0    0  501 -0.00000000000E+00 -0.00000000000E+00 -0.21986501510E+03  0.21986501511E+03  0.25500000000E-02 0.  1.
    8880023    1    1    2    0    0 -0.52709718632E+02  0.14322824619E+03  0.32161146968E+03  0.74869004845E+03  0.65864270000E+03 0.  1.
    8880022    1    1    2    0    0  0.52709718632E+02 -0.14322824619E+03  0.18386917466E+04  0.18513431981E+04  0.15294330000E+03 0.  0.
<mgrwt>
<rscale>  0 0.50833683E+03</rscale>
<asrwt>0</asrwt>
<pdfrwt beam="1">  1        2 0.36617974E+00 0.67609382E+03</pdfrwt>
<pdfrwt beam="2">  1       -2 0.33825386E-01 0.67609382E+03</pdfrwt>
<totfact> 0.35071016E+01</totfact>
</mgrwt>
</event>
<event>
 4    1  0.8645356E-007  0.1249095E+04  0.7818608E-02  0.9110816E-01
          2   -1    0    0  501    0  0.00000000000E+00  0.00000000000E+00  0.17518362983E+04  0.17518362983E+04  0.25500000000E-02 0. -1.
         -2   -1    0    0    0  501 -0.00000000000E+00 -0.00000000000E+00 -0.88997215957E+03  0.88997215957E+03  0.25500000000E-02 0.  1.
    8880023    1    1    2    0    0  0.87531702489E+03 -0.60020629826E+03  0.94500708732E+03  0.15662937451E+04  0.65864270000E+03 0. -1.
    8880022    1    1    2    0    0 -0.87531702489E+03  0.60020629826E+03 -0.83142948580E+02  0.10755147128E+04  0.15294330000E+03 0.  0.
<mgrwt>
<rscale>  0 0.12023343E+04</rscale>
<asrwt>0</asrwt>
<pdfrwt beam="1">  1        2 0.26951327E+00 0.12490948E+04</pdfrwt>
<pdfrwt beam="2">  1       -2 0.13691880E+00 0.12490948E+04</pdfrwt>
<totfact> 0.33823752E+00</totfact>
</mgrwt>
</event>
<event>
 4    1  0.8645356E-007  0.6948779E+03  0.7818608E-02  0.1001915E+00
          2   -1    0    0  501    0  0.00000000000E+00  0.00000000000E+00  0.72771719739E+03  0.72771719740E+03  0.25500000000E-02 0. -1.
         -2   -1    0    0    0  501 -0.00000000000E+00 -0.00000000000E+00 -0.32422295500E+03  0.32422295501E+03  0.25500000000E-02 0.  1.
    8880023    1    1    2    0    0 -0.16247626183E+03  0.15048761595E+03  0.23100432880E+03  0.73226925676E+03  0.65864270000E+03 0.  1.
    8880022    1    1    2    0    0  0.16247626183E+03 -0.15048761595E+03  0.17248991360E+03  0.31967089564E+03  0.15294330000E+03 0. -1.
<mgrwt>
<rscale>  0 0.54818381E+03</rscale>
<asrwt>0</asrwt>
<pdfrwt beam="1">  1        2 0.11195649E+00 0.69487788E+03</pdfrwt>
<pdfrwt beam="2">  1       -2 0.49880455E-01 0.69487788E+03</pdfrwt>
<totfact> 0.15033347E+02</totfact>
</mgrwt>
</event>
<event>
 4    1  0.8645356E-007  0.7189881E+03  0.7818608E-02  0.9926025E-01
         -2   -1    0    0    0  501 -0.00000000000E+00  0.00000000000E+00  0.41307191611E+03  0.41307191612E+03  0.25500000000E-02 0.  1.
          2   -1    0    0  501    0  0.00000000000E+00 -0.00000000000E+00 -0.97591795472E+03  0.97591795472E+03  0.25500000000E-02 0. -1.
    8880023    1    1    2    0    0  0.23990462137E+03 -0.15993587849E+03  0.21901925724E+02  0.71932163404E+03  0.65864270000E+03 0.  1.
    8880022    1    1    2    0    0 -0.23990462137E+03  0.15993587849E+03 -0.58474796433E+03  0.66966823681E+03  0.15294330000E+03 0.  0.
<mgrwt>
<rscale>  0 0.59016427E+03</rscale>
<asrwt>0</asrwt>
<pdfrwt beam="1">  1        2 0.15014122E+00 0.71898812E+03</pdfrwt>
<pdfrwt beam="2">  1       -2 0.63549526E-01 0.71898812E+03</pdfrwt>
<totfact> 0.60876667E+01</totfact>
</mgrwt>
</event>
<event>
 4    1  0.8645356E-007  0.6971436E+03  0.7818608E-02  0.1000926E+00
         -2   -1    0    0    0  501 -0.00000000000E+00  0.00000000000E+00  0.55852200208E+03  0.55852200209E+03  0.25500000000E-02 0.  1.
          2   -1    0    0  501    0  0.00000000000E+00 -0.00000000000E+00 -0.71093897080E+03  0.71093897080E+03  0.25500000000E-02 0. -1.
    8880023    1    1    2    0    0  0.46007794255E+02  0.22379066186E+03  0.28472596467E+03  0.75304585431E+03  0.65864270000E+03 0.  1.
    8880022    1    1    2    0    0 -0.46007794255E+02 -0.22379066186E+03 -0.43714293339E+03  0.51641511858E+03  0.15294330000E+03 0.  0.
<mgrwt>
<rscale>  0 0.55245915E+03</rscale>
<asrwt>0</asrwt>
<pdfrwt beam="1">  1        2 0.10937523E+00 0.69714359E+03</pdfrwt>
<pdfrwt beam="2">  1       -2 0.85926461E-01 0.69714359E+03</pdfrwt>
<totfact> 0.48038147E+01</totfact>
</mgrwt>
</event>
<event>
 4    1  0.8645356E-007  0.9546682E+03  0.7818608E-02  0.9443429E-01
          2   -1    0    0  501    0  0.00000000000E+00  0.00000000000E+00  0.26991473775E+04  0.26991473775E+04  0.25500000000E-02 0. -1.
         -2   -1    0    0    0  501 -0.00000000000E+00 -0.00000000000E+00 -0.32008826010E+03  0.32008826011E+03  0.25500000000E-02 0.  1.
    8880023    1    1    2    0    0  0.33941699987E+02 -0.69023839649E+03  0.66121690717E+03  0.11612919907E+04  0.65864270000E+03 0.  1.
    8880022    1    1    2    0    0 -0.33941699987E+02  0.69023839649E+03  0.17178422102E+04  0.18579436469E+04  0.15294330000E+03 0.  0.
<mgrwt>
<rscale>  0 0.88586203E+03</rscale>
<asrwt>0</asrwt>
<pdfrwt beam="1">  1        2 0.41525344E+00 0.95466816E+03</pdfrwt>
<pdfrwt beam="2">  1       -2 0.49244348E-01 0.95466816E+03</pdfrwt>
<totfact> 0.10608527E+01</totfact>
</mgrwt>
</event>
<event>
 4    1  0.8645356E-007  0.9406487E+03  0.7818608E-02  0.9463698E-01
          2   -1    0    0  501    0  0.00000000000E+00  0.00000000000E+00  0.75270581074E+03  0.75270581075E+03  0.25500000000E-02 0. -1.
         -2   -1    0    0    0  501 -0.00000000000E+00 -0.00000000000E+00 -0.12617684966E+04  0.12617684966E+04  0.25500000000E-02 0.  1.
    8880023    1    1    2    0    0  0.66829364889E+03 -0.66282329497E+02 -0.83011486472E+03  0.12545559546E+04  0.65864270000E+03 0. -1.
    8880022    1    1    2    0    0 -0.66829364889E+03  0.66282329497E+02  0.32105217882E+03  0.75991835278E+03  0.15294330000E+03 0.  0.
<mgrwt>
<rscale>  0 0.87013940E+03</rscale>
<asrwt>0</asrwt>
<pdfrwt beam="1">  1        2 0.11580089E+00 0.94064869E+03</pdfrwt>
<pdfrwt beam="2">  1       -2 0.19411823E+00 0.94064869E+03</pdfrwt>
<totfact> 0.54223342E+00</totfact>
</mgrwt>
</event>
<event>
 4    1  0.8645356E-007  0.6817356E+03  0.7818608E-02  0.1008358E+00
         -2   -1    0    0    0  501 -0.00000000000E+00  0.00000000000E+00  0.17205207854E+03  0.17205207856E+03  0.25500000000E-02 0.  1.
          2   -1    0    0  501    0  0.00000000000E+00 -0.00000000000E+00 -0.13786405590E+04  0.13786405590E+04  0.25500000000E-02 0. -1.
    8880023    1    1    2    0    0  0.15121223800E+03 -0.89933779979E+02 -0.62798341226E+03  0.92689082315E+03  0.65864270000E+03 0.  1.
    8880022    1    1    2    0    0 -0.15121223800E+03  0.89933779979E+02 -0.57860506816E+03  0.62380181438E+03  0.15294330000E+03 0.  0.
<mgrwt>
<rscale>  0 0.52132291E+03</rscale>
<asrwt>0</asrwt>
<pdfrwt beam="1">  1        2 0.21209854E+00 0.68173560E+03</pdfrwt>
<pdfrwt beam="2">  1       -2 0.26469551E-01 0.68173560E+03</pdfrwt>
<totfact> 0.19586015E+02</totfact>
</mgrwt>
</event>
<event>
 4    1  0.8645356E-007  0.8595236E+03  0.7818608E-02  0.9594412E-01
          2   -1    0    0  501    0  0.00000000000E+00  0.00000000000E+00  0.10925966867E+04  0.10925966867E+04  0.25500000000E-02 0. -1.
         -2   -1    0    0    0  501 -0.00000000000E+00 -0.00000000000E+00 -0.85885891716E+03  0.85885891716E+03  0.25500000000E-02 0.  1.
    8880023    1    1    2    0    0 -0.53356039040E+03 -0.14242140110E+03 -0.52003649698E+03  0.10045987807E+04  0.65864270000E+03 0.  0.
    8880022    1    1    2    0    0  0.53356039040E+03  0.14242140110E+03  0.75377426654E+03  0.94685682319E+03  0.15294330000E+03 0.  0.
<mgrwt>
<rscale>  0 0.77667171E+03</rscale>
<asrwt>0</asrwt>
<pdfrwt beam="1">  1        2 0.16809180E+00 0.85952356E+03</pdfrwt>
<pdfrwt beam="2">  1       -2 0.13213214E+00 0.85952356E+03</pdfrwt>
<totfact> 0.92286953E+00</totfact>
</mgrwt>
</event>
<event>
 4    1  0.8645356E-007  0.7413355E+03  0.7818608E-02  0.9856074E-01
          2   -1    0    0  501    0  0.00000000000E+00  0.00000000000E+00  0.78125168080E+03  0.78125168081E+03  0.25500000000E-02 0. -1.
         -2   -1    0    0    0  501 -0.00000000000E+00 -0.00000000000E+00 -0.64913602747E+03  0.64913602747E+03  0.25500000000E-02 0.  1.
    8880023    1    1    2    0    0  0.31675756114E+03  0.12422856167E+03 -0.35081886242E+03  0.82015374691E+03  0.65864270000E+03 0.  1.
    8880022    1    1    2    0    0 -0.31675756114E+03 -0.12422856167E+03  0.48293451576E+03  0.61023396137E+03  0.15294330000E+03 0.  0.
<mgrwt>
<rscale>  0 0.62438188E+03</rscale>
<asrwt>0</asrwt>
<pdfrwt beam="1">  1        2 0.12019257E+00 0.74133548E+03</pdfrwt>
<pdfrwt beam="2">  1       -2 0.99867082E-01 0.74133548E+03</pdfrwt>
<totfact> 0.29890890E+01</totfact>
</mgrwt>
</event>
<event>
 4    1  0.8645356E-007  0.7655092E+03  0.7818608E-02  0.9791048E-01
         -2   -1    0    0    0  501 -0.00000000000E+00  0.00000000000E+00  0.55736938365E+03  0.55736938366E+03  0.25500000000E-02 0.  1.
          2   -1    0    0  501    0  0.00000000000E+00 -0.00000000000E+00 -0.16312551122E+04  0.16312551122E+04  0.25500000000E-02 0. -1.
    8880023    1    1    2    0    0 -0.28210807949E+03  0.26946079255E+03  0.24580533956E+03  0.80400532240E+03  0.65864270000E+03 0.  1.
    8880022    1    1    2    0    0  0.28210807949E+03 -0.26946079255E+03 -0.13196910681E+04  0.13846191734E+04  0.15294330000E+03 0.  0.
<mgrwt>
<rscale>  0 0.65845175E+03</rscale>
<asrwt>0</asrwt>
<pdfrwt beam="1">  1        2 0.25096232E+00 0.76550917E+03</pdfrwt>
<pdfrwt beam="2">  1       -2 0.85749137E-01 0.76550917E+03</pdfrwt>
<totfact> 0.12965204E+01</totfact>
</mgrwt>
</event>
<event>
 4    1  0.8645356E-007  0.6969649E+03  0.7818608E-02  0.1001003E+00
          2   -1    0    0  501    0  0.00000000000E+00  0.00000000000E+00  0.12785979741E+04  0.12785979741E+04  0.25500000000E-02 0. -1.
         -2   -1    0    0    0  501 -0.00000000000E+00 -0.00000000000E+00 -0.23374249764E+03  0.23374249765E+03  0.25500000000E-02 0.  1.
    8880023    1    1    2    0    0  0.21438072712E+03 -0.77400115784E+02  0.38173889887E+03  0.79466009542E+03  0.65864270000E+03 0.  1.
    8880022    1    1    2    0    0 -0.21438072712E+03  0.77400115784E+02  0.66311657763E+03  0.71768037637E+03  0.15294330000E+03 0.  1.
<mgrwt>
<rscale>  0 0.55212509E+03</rscale>
<asrwt>0</asrwt>
<pdfrwt beam="1">  1        2 0.19670738E+00 0.69696491E+03</pdfrwt>
<pdfrwt beam="2">  1       -2 0.35960384E-01 0.69696491E+03</pdfrwt>
<totfact> 0.12609443E+02</totfact>
</mgrwt>
</event>
<event>
 4    1  0.8645356E-007  0.1037732E+04  0.7818608E-02  0.9333777E-01
          2   -1    0    0  501    0  0.00000000000E+00  0.00000000000E+00  0.18958357184E+04  0.18958357184E+04  0.25500000000E-02 0. -1.
         -2   -1    0    0    0  501 -0.00000000000E+00 -0.00000000000E+00 -0.10465498870E+04  0.10465498870E+04  0.25500000000E-02 0.  1.
    8880023    1    1    2    0    0  0.39761863154E+03 -0.69640224618E+03 -0.65761523433E+03  0.12285538927E+04  0.65864270000E+03 0.  1.
    8880022    1    1    2    0    0 -0.39761863154E+03  0.69640224618E+03  0.15069010657E+04  0.17138317127E+04  0.15294330000E+03 0.  0.
<mgrwt>
<rscale>  0 0.97731872E+03</rscale>
<asrwt>0</asrwt>
<pdfrwt beam="1">  1        2 0.29166703E+00 0.10377316E+04</pdfrwt>
<pdfrwt beam="2">  1       -2 0.16100768E+00 0.10377316E+04</pdfrwt>
<totfact> 0.18737188E+00</totfact>
</mgrwt>
</event>
<event>
 4    1  0.8645356E-007  0.6785025E+03  0.7818608E-02  0.1010184E+00
          2   -1    0    0  501    0  0.00000000000E+00  0.00000000000E+00  0.34036024820E+03  0.34036024821E+03  0.25500000000E-02 0. -1.
         -2   -1    0    0    0  501 -0.00000000000E+00 -0.00000000000E+00 -0.14677899972E+04  0.14677899972E+04  0.25500000000E-02 0.  1.
    8880023    1    1    2    0    0 -0.14353976860E+03  0.77147449518E+02 -0.13385610175E+04  0.15007035677E+04  0.65864270000E+03 0.  1.
    8880022    1    1    2    0    0  0.14353976860E+03 -0.77147449518E+02  0.21113126848E+03  0.30744667779E+03  0.15294330000E+03 0.  0.
<mgrwt>
<rscale>  0 0.51401679E+03</rscale>
<asrwt>0</asrwt>
<pdfrwt beam="1">  1        2 0.52363116E-01 0.67850247E+03</pdfrwt>
<pdfrwt beam="2">  1       -2 0.22581384E+00 0.67850247E+03</pdfrwt>
<totfact> 0.89271288E+00</totfact>
</mgrwt>
</event>
<event>
 4    1  0.8645356E-007  0.8161763E+03  0.7818608E-02  0.9676853E-01
         -2   -1    0    0    0  501 -0.00000000000E+00  0.00000000000E+00  0.44315859993E+03  0.44315859994E+03  0.25500000000E-02 0.  1.
          2   -1    0    0  501    0  0.00000000000E+00 -0.00000000000E+00 -0.21362647479E+04  0.21362647479E+04  0.25500000000E-02 0. -1.
    8880023    1    1    2    0    0 -0.15444649460E+03  0.45659594359E+03 -0.39402830081E+01  0.81618582902E+03  0.65864270000E+03 0.  0.
    8880022    1    1    2    0    0  0.15444649460E+03 -0.45659594359E+03 -0.16891658649E+04  0.17632375188E+04  0.15294330000E+03 0.  0.
<mgrwt>
<rscale>  0 0.72411858E+03</rscale>
<asrwt>0</asrwt>
<pdfrwt beam="1">  1        2 0.32865611E+00 0.81617632E+03</pdfrwt>
<pdfrwt beam="2">  1       -2 0.68178248E-01 0.81617632E+03</pdfrwt>
<totfact> 0.11355950E+01</totfact>
</mgrwt>
</event>
<event>
 4    1  0.8645356E-007  0.6942612E+03  0.7818608E-02  0.1002190E+00
          2   -1    0    0  501    0  0.00000000000E+00  0.00000000000E+00  0.22184854236E+04  0.22184854236E+04  0.25500000000E-02 0. -1.
         -2   -1    0    0    0  501 -0.00000000000E+00 -0.00000000000E+00 -0.12048263931E+03  0.12048263934E+03  0.25500000000E-02 0.  1.
    8880023    1    1    2    0    0  0.98450833942E+02 -0.19620345733E+03  0.10606238480E+04  0.12676440812E+04  0.65864270000E+03 0.  1.
    8880022    1    1    2    0    0 -0.98450833942E+02  0.19620345733E+03  0.10373789363E+04  0.10713239817E+04  0.15294330000E+03 0.  0.
<mgrwt>
<rscale>  0 0.54700479E+03</rscale>
<asrwt>0</asrwt>
<pdfrwt beam="1">  1        2 0.34130539E+00 0.69426117E+03</pdfrwt>
<pdfrwt beam="2">  1       -2 0.18535794E-01 0.69426117E+03</pdfrwt>
<totfact> 0.12735472E+02</totfact>
</mgrwt>
</event>
<event>
 4    1  0.8645356E-007  0.1103147E+04  0.7818608E-02  0.9257560E-01
         -2   -1    0    0    0  501 -0.00000000000E+00  0.00000000000E+00  0.91797594017E+03  0.91797594017E+03  0.25500000000E-02 0.  1.
          2   -1    0    0  501    0  0.00000000000E+00 -0.00000000000E+00 -0.23165298128E+04  0.23165298128E+04  0.25500000000E-02 0. -1.
    8880023    1    1    2    0    0 -0.82246996291E+03 -0.32659926552E+03  0.44053615643E+03  0.11878578330E+04  0.65864270000E+03 0.  1.
    8880022    1    1    2    0    0  0.82246996291E+03  0.32659926552E+03 -0.18390900290E+04  0.20466479199E+04  0.15294330000E+03 0. -1.
<mgrwt>
<rscale>  0 0.10478563E+04</rscale>
<asrwt>0</asrwt>
<pdfrwt beam="1">  1        2 0.35638920E+00 0.11031474E+04</pdfrwt>
<pdfrwt beam="2">  1       -2 0.14122707E+00 0.11031474E+04</pdfrwt>
<totfact> 0.15397662E+00</totfact>
</mgrwt>
</event>
<event>
 4    1  0.8645356E-007  0.6676005E+03  0.7818608E-02  0.1017445E+00
         -2   -1    0    0    0  501 -0.00000000000E+00  0.00000000000E+00  0.29537767634E+03  0.29537767636E+03  0.25500000000E-02 0.  1.
          2   -1    0    0  501    0  0.00000000000E+00 -0.00000000000E+00 -0.75138050071E+03  0.75138050071E+03  0.25500000000E-02 0. -1.
    8880023    1    1    2    0    0  0.26151976733E+02  0.10581278300E+03 -0.14456277505E+03  0.68307310965E+03  0.65864270000E+03 0.  1.
    8880022    1    1    2    0    0 -0.26151976733E+02 -0.10581278300E+03 -0.31144004931E+03  0.36368506742E+03  0.15294330000E+03 0.  0.
<mgrwt>
<rscale>  0 0.48620134E+03</rscale>
<asrwt>0</asrwt>
<pdfrwt beam="1">  1        2 0.11559700E+00 0.66760054E+03</pdfrwt>
<pdfrwt beam="2">  1       -2 0.45442720E-01 0.66760054E+03</pdfrwt>
<totfact> 0.17433758E+02</totfact>
</mgrwt>
</event>
<event>
 4    1  0.8645356E-007  0.7004506E+03  0.7818608E-02  0.9995337E-01
         -2   -1    0    0    0  501 -0.00000000000E+00  0.00000000000E+00  0.32455121971E+03  0.32455121972E+03  0.25500000000E-02 0.  1.
          2   -1    0    0  501    0  0.00000000000E+00 -0.00000000000E+00 -0.96503421025E+03  0.96503421025E+03  0.25500000000E-02 0. -1.
    8880023    1    1    2    0    0 -0.94523104477E+02  0.21882922680E+03 -0.13967486313E+03  0.71424094074E+03  0.65864270000E+03 0.  1.
    8880022    1    1    2    0    0  0.94523104477E+02 -0.21882922680E+03 -0.50080812741E+03  0.57534448922E+03  0.15294330000E+03 0.  0.
<mgrwt>
<rscale>  0 0.55855172E+03</rscale>
<asrwt>0</asrwt>
<pdfrwt beam="1">  1        2 0.14846680E+00 0.70045061E+03</pdfrwt>
<pdfrwt beam="2">  1       -2 0.49930957E-01 0.70045061E+03</pdfrwt>
<totfact> 0.10242253E+02</totfact>
</mgrwt>
</event>
<event>
 4    1  0.8645356E-007  0.7362226E+03  0.7818608E-02  0.9871090E-01
          2   -1    0    0  501    0  0.00000000000E+00  0.00000000000E+00  0.31559071261E+04  0.31559071261E+04  0.25500000000E-02 0. -1.
         -2   -1    0    0    0  501 -0.00000000000E+00 -0.00000000000E+00 -0.21525886731E+03  0.21525886732E+03  0.25500000000E-02 0.  1.
    8880023    1    1    2    0    0  0.22792162621E+03 -0.23720296378E+03  0.46873625021E+03  0.87277568266E+03  0.65864270000E+03 0.  1.
    8880022    1    1    2    0    0 -0.22792162621E+03  0.23720296378E+03  0.24719120086E+04  0.24983903108E+04  0.15294330000E+03 0.  0.
<mgrwt>
<rscale>  0 0.61683070E+03</rscale>
<asrwt>0</asrwt>
<pdfrwt beam="1">  1        2 0.48552416E+00 0.73622260E+03</pdfrwt>
<pdfrwt beam="2">  1       -2 0.33116749E-01 0.73622260E+03</pdfrwt>
<totfact> 0.12608788E+01</totfact>
</mgrwt>
</event>
<event>
 4    1  0.8645356E-007  0.8406614E+03  0.7818608E-02  0.9628934E-01
          2   -1    0    0  501    0  0.00000000000E+00  0.00000000000E+00  0.34425211680E+04  0.34425211680E+04  0.25500000000E-02 0. -1.
         -2   -1    0    0    0  501 -0.00000000000E+00 -0.00000000000E+00 -0.18583118806E+03  0.18583118808E+03  0.25500000000E-02 0.  1.
    8880023    1    1    2    0    0  0.52172463851E+03 -0.26548646948E+02  0.99743619940E+03  0.13044503085E+04  0.65864270000E+03 0.  0.
    8880022    1    1    2    0    0 -0.52172463851E+03  0.26548646948E+02  0.22592537806E+04  0.23239020476E+04  0.15294330000E+03 0.  0.
<mgrwt>
<rscale>  0 0.75410363E+03</rscale>
<asrwt>0</asrwt>
<pdfrwt beam="1">  1        2 0.52961864E+00 0.84066143E+03</pdfrwt>
<pdfrwt beam="2">  1       -2 0.28589413E-01 0.84066143E+03</pdfrwt>
<totfact> 0.10594224E+01</totfact>
</mgrwt>
</event>
<event>
 4    1  0.1085821E-006  0.8057649E+03  0.7818608E-02  0.9698467E-01
          2   -1    0    0  501    0  0.00000000000E+00  0.00000000000E+00  0.19231369826E+04  0.19231369826E+04  0.25500000000E-02 0. -1.
         -2   -1    0    0    0  501 -0.00000000000E+00 -0.00000000000E+00 -0.12082619370E+04  0.12082619370E+04  0.25500000000E-02 0.  1.
    8880023    1    1    2    0    0 -0.29950761107E+03  0.35460119322E+03 -0.10366486509E+04  0.13129727518E+04  0.65864270000E+03 0.  0.
    8880022    1    1    2    0    0  0.29950761107E+03 -0.35460119322E+03  0.17515236965E+04  0.18184261678E+04  0.15294330000E+03 0. -1.
<mgrwt>
<rscale>  0 0.71108134E+03</rscale>
<asrwt>0</asrwt>
<pdfrwt beam="1">  1        2 0.29586723E+00 0.80576487E+03</pdfrwt>
<pdfrwt beam="2">  1       -2 0.18588645E+00 0.80576487E+03</pdfrwt>
<totfact> 0.12533758E+00</totfact>
</mgrwt>
</event>
<event>
 4    1  0.8645356E-007  0.7176598E+03  0.7818608E-02  0.9930585E-01
         -2   -1    0    0    0  501 -0.00000000000E+00  0.00000000000E+00  0.21274769197E+03  0.21274769199E+03  0.25500000000E-02 0.  1.
          2   -1    0    0  501    0  0.00000000000E+00 -0.00000000000E+00 -0.14399728095E+04  0.14399728095E+04  0.25500000000E-02 0. -1.
    8880023    1    1    2    0    0  0.14532512216E+03 -0.24516522329E+03 -0.55672614862E+03  0.90828387009E+03  0.65864270000E+03 0.  0.
    8880022    1    1    2    0    0 -0.14532512216E+03  0.24516522329E+03 -0.67049896888E+03  0.74443663137E+03  0.15294330000E+03 0.  0.
<mgrwt>
<rscale>  0 0.58801616E+03</rscale>
<asrwt>0</asrwt>
<pdfrwt beam="1">  1        2 0.22153427E+00 0.71765980E+03</pdfrwt>
<pdfrwt beam="2">  1       -2 0.32730415E-01 0.71765980E+03</pdfrwt>
<totfact> 0.12179696E+02</totfact>
</mgrwt>
</event>
<event>
 4    1  0.8645356E-007  0.6609113E+03  0.7818608E-02  0.1023242E+00
         -2   -1    0    0    0  501 -0.00000000000E+00  0.00000000000E+00  0.35516782852E+03  0.35516782853E+03  0.25500000000E-02 0.  1.
          2   -1    0    0  501    0  0.00000000000E+00 -0.00000000000E+00 -0.65895014877E+03  0.65895014878E+03  0.25500000000E-02 0. -1.
    8880023    1    1    2    0    0  0.18795191976E+02 -0.51383502635E+02  0.97758463358E+01  0.66098358302E+03  0.65864270000E+03 0.  1.
    8880022    1    1    2    0    0 -0.18795191976E+02  0.51383502635E+02 -0.31355816658E+03  0.35313439429E+03  0.15294330000E+03 0.  0.
<mgrwt>
<rscale>  0 0.46534749E+03</rscale>
<asrwt>0</asrwt>
<pdfrwt beam="1">  1        2 0.10137695E+00 0.66091129E+03</pdfrwt>
<pdfrwt beam="2">  1       -2 0.54641204E-01 0.66091129E+03</pdfrwt>
<totfact> 0.14152998E+02</totfact>
</mgrwt>
</event>
<event>
 4    1  0.8645356E-007  0.1097053E+04  0.7818608E-02  0.9264345E-01
          2   -1    0    0  501    0  0.00000000000E+00  0.00000000000E+00  0.25389649833E+04  0.25389649833E+04  0.25500000000E-02 0. -1.
         -2   -1    0    0    0  501 -0.00000000000E+00 -0.00000000000E+00 -0.44095000412E+03  0.44095000413E+03  0.25500000000E-02 0.  1.
    8880023    1    1    2    0    0 -0.31664963879E+03 -0.81819775395E+03  0.63617132686E+03  0.12681635232E+04  0.65864270000E+03 0.  0.
    8880022    1    1    2    0    0  0.31664963879E+03  0.81819775395E+03  0.14618436523E+04  0.17117514642E+04  0.15294330000E+03 0.  0.
<mgrwt>
<rscale>  0 0.10413268E+04</rscale>
<asrwt>0</asrwt>
<pdfrwt beam="1">  1        2 0.39061000E+00 0.10970528E+04</pdfrwt>
<pdfrwt beam="2">  1       -2 0.67838462E-01 0.10970528E+04</pdfrwt>
<totfact> 0.65768095E+00</totfact>
</mgrwt>
</event>
<event>
 4    1  0.8645356E-007  0.6919673E+03  0.7818608E-02  0.1003231E+00
          2   -1    0    0  501    0  0.00000000000E+00  0.00000000000E+00  0.12547781813E+04  0.12547781813E+04  0.25500000000E-02 0. -1.
         -2   -1    0    0    0  501 -0.00000000000E+00 -0.00000000000E+00 -0.23174029686E+03  0.23174029688E+03  0.25500000000E-02 0.  1.
    8880023    1    1    2    0    0 -0.19342499504E+03 -0.87151296011E+02  0.37356512504E+03  0.78636485553E+03  0.65864270000E+03 0.  0.
    8880022    1    1    2    0    0  0.19342499504E+03  0.87151296011E+02  0.64947275944E+03  0.70015362269E+03  0.15294330000E+03 0.  0.
<mgrwt>
<rscale>  0 0.54255827E+03</rscale>
<asrwt>0</asrwt>
<pdfrwt beam="1">  1        2 0.19304280E+00 0.69196733E+03</pdfrwt>
<pdfrwt beam="2">  1       -2 0.35652354E-01 0.69196733E+03</pdfrwt>
<totfact> 0.13237985E+02</totfact>
</mgrwt>
</event>
<event>
 4    1  0.8645356E-007  0.6598655E+03  0.7818608E-02  0.1024295E+00
         -2   -1    0    0    0  501 -0.00000000000E+00  0.00000000000E+00  0.42315765698E+03  0.42315765699E+03  0.25500000000E-02 0.  1.
          2   -1    0    0  501    0  0.00000000000E+00 -0.00000000000E+00 -0.66111612879E+03  0.66111612880E+03  0.25500000000E-02 0. -1.
    8880023    1    1    2    0    0 -0.40151709763E+02 -0.25072968328E+00  0.14001536453E+03  0.67455669238E+03  0.65864270000E+03 0.  1.
    8880022    1    1    2    0    0  0.40151709763E+02  0.25072968328E+00 -0.37797383634E+03  0.40971709341E+03  0.15294330000E+03 0.  0.
<mgrwt>
<rscale>  0 0.46168149E+03</rscale>
<asrwt>0</asrwt>
<pdfrwt beam="1">  1        2 0.10171017E+00 0.65986546E+03</pdfrwt>
<pdfrwt beam="2">  1       -2 0.65101178E-01 0.65986546E+03</pdfrwt>
<totfact> 0.97482841E+01</totfact>
</mgrwt>
</event>
<event>
 4    1  0.8645356E-007  0.6633516E+03  0.7818608E-02  0.1020958E+00
          2   -1    0    0  501    0  0.00000000000E+00  0.00000000000E+00  0.16491606169E+03  0.16491606171E+03  0.25500000000E-02 0. -1.
         -2   -1    0    0    0  501 -0.00000000000E+00 -0.00000000000E+00 -0.17232554859E+04  0.17232554859E+04  0.25500000000E-02 0.  1.
    8880023    1    1    2    0    0 -0.70619296409E+02 -0.35185949960E+02 -0.15810623549E+04  0.17145826059E+04  0.65864270000E+03 0.  1.
    8880022    1    1    2    0    0  0.70619296409E+02  0.35185949960E+02  0.22722930672E+02  0.17358894174E+03  0.15294330000E+03 0.  0.
<mgrwt>
<rscale>  0 0.47342379E+03</rscale>
<asrwt>0</asrwt>
<pdfrwt beam="1">  1        2 0.25371703E-01 0.66335160E+03</pdfrwt>
<pdfrwt beam="2">  1       -2 0.26511622E+00 0.66335160E+03</pdfrwt>
<totfact> 0.11625353E+01</totfact>
</mgrwt>
</event>
<event>
 4    1  0.8645356E-007  0.6794624E+03  0.7818608E-02  0.1009629E+00
          2   -1    0    0  501    0  0.00000000000E+00  0.00000000000E+00  0.18320765723E+03  0.18320765724E+03  0.25500000000E-02 0. -1.
         -2   -1    0    0    0  501 -0.00000000000E+00 -0.00000000000E+00 -0.14746453383E+04  0.14746453383E+04  0.25500000000E-02 0.  1.
    8880023    1    1    2    0    0 -0.70039390600E+02 -0.15150398674E+03 -0.12569665425E+04  0.14288576099E+04  0.65864270000E+03 0.  1.
    8880022    1    1    2    0    0  0.70039390600E+02  0.15150398674E+03 -0.34471138605E+02  0.22899538564E+03  0.15294330000E+03 0.  0.
<mgrwt>
<rscale>  0 0.51622196E+03</rscale>
<asrwt>0</asrwt>
<pdfrwt beam="1">  1        2 0.28185794E-01 0.67946242E+03</pdfrwt>
<pdfrwt beam="2">  1       -2 0.22686851E+00 0.67946242E+03</pdfrwt>
<totfact> 0.17562546E+01</totfact>
</mgrwt>
</event>
<event>
 4    1  0.8645356E-007  0.7450056E+03  0.7818608E-02  0.9845599E-01
         -2   -1    0    0    0  501 -0.00000000000E+00  0.00000000000E+00  0.18825095770E+03  0.18825095772E+03  0.25500000000E-02 0.  1.
          2   -1    0    0  501    0  0.00000000000E+00 -0.00000000000E+00 -0.22276441255E+04  0.22276441255E+04  0.25500000000E-02 0. -1.
    8880023    1    1    2    0    0 -0.34672743182E+03 -0.31674483678E+02 -0.69535413963E+03  0.10190931119E+04  0.65864270000E+03 0.  0.
    8880022    1    1    2    0    0  0.34672743182E+03  0.31674483678E+02 -0.13440390281E+04  0.13968019713E+04  0.15294330000E+03 0.  0.
<mgrwt>
<rscale>  0 0.62971824E+03</rscale>
<asrwt>0</asrwt>
<pdfrwt beam="1">  1        2 0.34271446E+00 0.74500563E+03</pdfrwt>
<pdfrwt beam="2">  1       -2 0.28961687E-01 0.74500563E+03</pdfrwt>
<totfact> 0.56406686E+01</totfact>
</mgrwt>
</event>
<event>
 4    1  0.8645356E-007  0.8415608E+03  0.7818608E-02  0.9627244E-01
          2   -1    0    0  501    0  0.00000000000E+00  0.00000000000E+00  0.26369919023E+04  0.26369919023E+04  0.25500000000E-02 0. -1.
         -2   -1    0    0    0  501 -0.00000000000E+00 -0.00000000000E+00 -0.19855854877E+03  0.19855854879E+03  0.25500000000E-02 0.  1.
    8880023    1    1    2    0    0  0.47692743944E+03  0.21669016979E+03  0.10629107104E+04  0.13557299866E+04  0.65864270000E+03 0.  1.
    8880022    1    1    2    0    0 -0.47692743944E+03 -0.21669016979E+03  0.13755226432E+04  0.14798204645E+04  0.15294330000E+03 0. -1.
<mgrwt>
<rscale>  0 0.75518929E+03</rscale>
<asrwt>0</asrwt>
<pdfrwt beam="1">  1        2 0.40569104E+00 0.84156082E+03</pdfrwt>
<pdfrwt beam="2">  1       -2 0.30547471E-01 0.84156082E+03</pdfrwt>
<totfact> 0.29650001E+01</totfact>
</mgrwt>
</event>
<event>
 4    1  0.8645356E-007  0.1574771E+04  0.7818608E-02  0.8858566E-01
          2   -1    0    0  501    0  0.00000000000E+00  0.00000000000E+00  0.12226716351E+04  0.12226716351E+04  0.25500000000E-02 0. -1.
         -2   -1    0    0    0  501 -0.00000000000E+00 -0.00000000000E+00 -0.22885188006E+04  0.22885188006E+04  0.25500000000E-02 0.  1.
    8880023    1    1    2    0    0  0.72436411517E+03  0.12334462985E+04 -0.13144915265E+04  0.20512901604E+04  0.65864270000E+03 0.  0.
    8880022    1    1    2    0    0 -0.72436411517E+03 -0.12334462985E+04  0.24864436104E+03  0.14599002753E+04  0.15294330000E+03 0.  0.
<mgrwt>
<rscale>  0 0.15395571E+04</rscale>
<asrwt>0</asrwt>
<pdfrwt beam="1">  1        2 0.18810333E+00 0.15747709E+04</pdfrwt>
<pdfrwt beam="2">  1       -2 0.35207982E+00 0.15747709E+04</pdfrwt>
<totfact> 0.25997583E-01</totfact>
</mgrwt>
</event>
<event>
 4    1  0.8645356E-007  0.1053581E+04  0.7818608E-02  0.9314589E-01
         -2   -1    0    0    0  501 -0.00000000000E+00  0.00000000000E+00  0.11079754265E+04  0.11079754265E+04  0.25500000000E-02 0.  1.
          2   -1    0    0  501    0  0.00000000000E+00 -0.00000000000E+00 -0.87988509318E+03  0.87988509318E+03  0.25500000000E-02 0. -1.
    8880023    1    1    2    0    0  0.81405170813E+03  0.11637329035E+03  0.41230834654E+03  0.11313846849E+04  0.65864270000E+03 0.  0.
    8880022    1    1    2    0    0 -0.81405170813E+03 -0.11637329035E+03 -0.18421801323E+03  0.85647583482E+03  0.15294330000E+03 0.  0.
<mgrwt>
<rscale>  0 0.99450812E+03</rscale>
<asrwt>0</asrwt>
<pdfrwt beam="1">  1        2 0.13536694E+00 0.10535811E+04</pdfrwt>
<pdfrwt beam="2">  1       -2 0.17045776E+00 0.10535811E+04</pdfrwt>
<totfact> 0.63159667E+00</totfact>
</mgrwt>
</event>
<event>
 4    1  0.8645356E-007  0.7787735E+03  0.7818608E-02  0.9758726E-01
          2   -1    0    0  501    0  0.00000000000E+00  0.00000000000E+00  0.32515187189E+04  0.32515187189E+04  0.25500000000E-02 0. -1.
         -2   -1    0    0    0  501 -0.00000000000E+00 -0.00000000000E+00 -0.11913481287E+03  0.11913481290E+03  0.25500000000E-02 0.  1.
    8880023    1    1    2    0    0  0.20289167462E+03 -0.36264701824E+03  0.22929412991E+04  0.24215837584E+04  0.65864270000E+03 0. -1.
    8880022    1    1    2    0    0 -0.20289167462E+03  0.36264701824E+03  0.83944260686E+03  0.94906977335E+03  0.15294330000E+03 0.  1.
<mgrwt>
<rscale>  0 0.67625365E+03</rscale>
<asrwt>0</asrwt>
<pdfrwt beam="1">  1        2 0.50023353E+00 0.77877346E+03</pdfrwt>
<pdfrwt beam="2">  1       -2 0.18328437E-01 0.77877346E+03</pdfrwt>
<totfact> 0.31629744E+01</totfact>
</mgrwt>
</event>
<event>
 4    1  0.8645356E-007  0.6885339E+03  0.7818608E-02  0.1004857E+00
         -2   -1    0    0    0  501 -0.00000000000E+00  0.00000000000E+00  0.23453902403E+03  0.23453902404E+03  0.25500000000E-02 0.  1.
          2   -1    0    0  501    0  0.00000000000E+00 -0.00000000000E+00 -0.15945785522E+04  0.15945785522E+04  0.25500000000E-02 0. -1.
    8880023    1    1    2    0    0 -0.17278578523E+03  0.10204785498E+03 -0.32063871463E+03  0.75953148971E+03  0.65864270000E+03 0.  1.
    8880022    1    1    2    0    0  0.17278578523E+03 -0.10204785498E+03 -0.10394008135E+04  0.10695860865E+04  0.15294330000E+03 0. -1.
<mgrwt>
<rscale>  0 0.53570735E+03</rscale>
<asrwt>0</asrwt>
<pdfrwt beam="1">  1        2 0.24531977E+00 0.68853388E+03</pdfrwt>
<pdfrwt beam="2">  1       -2 0.36082928E-01 0.68853388E+03</pdfrwt>
<totfact> 0.83324093E+01</totfact>
</mgrwt>
</event>
<event>
 4    1  0.8645356E-007  0.6995277E+03  0.7818608E-02  0.9999166E-01
          2   -1    0    0  501    0  0.00000000000E+00  0.00000000000E+00  0.15136110205E+04  0.15136110205E+04  0.25500000000E-02 0. -1.
         -2   -1    0    0    0  501 -0.00000000000E+00 -0.00000000000E+00 -0.15903984666E+03  0.15903984668E+03  0.25500000000E-02 0.  1.
    8880023    1    1    2    0    0 -0.11669065212E+03 -0.20472436580E+03  0.99684795836E+03  0.12178032816E+04  0.65864270000E+03 0.  1.
    8880022    1    1    2    0    0  0.11669065212E+03  0.20472436580E+03  0.35772321553E+03  0.45484758567E+03  0.15294330000E+03 0.  0.
<mgrwt>
<rscale>  0 0.55686812E+03</rscale>
<asrwt>0</asrwt>
<pdfrwt beam="1">  1        2 0.23286323E+00 0.69952768E+03</pdfrwt>
<pdfrwt beam="2">  1       -2 0.24467669E-01 0.69952768E+03</pdfrwt>
<totfact> 0.18943998E+02</totfact>
</mgrwt>
</event>
<event>
 4    1  0.8645356E-007  0.8899089E+03  0.7818608E-02  0.9542429E-01
          2   -1    0    0  501    0  0.00000000000E+00  0.00000000000E+00  0.25284967752E+04  0.25284967752E+04  0.25500000000E-02 0. -1.
         -2   -1    0    0    0  501 -0.00000000000E+00 -0.00000000000E+00 -0.27286074587E+03  0.27286074588E+03  0.25500000000E-02 0.  1.
    8880023    1    1    2    0    0 -0.70106609698E+02 -0.59431702771E+03  0.71515588334E+03  0.11416592354E+04  0.65864270000E+03 0.  1.
    8880022    1    1    2    0    0  0.70106609698E+02  0.59431702771E+03  0.15404801460E+04  0.16596982856E+04  0.15294330000E+03 0.  0.
<mgrwt>
<rscale>  0 0.81226686E+03</rscale>
<asrwt>0</asrwt>
<pdfrwt beam="1">  1        2 0.38899950E+00 0.88990891E+03</pdfrwt>
<pdfrwt beam="2">  1       -2 0.41978577E-01 0.88990891E+03</pdfrwt>
<totfact> 0.18494379E+01</totfact>
</mgrwt>
</event>
<event>
 4    1  0.8645356E-007  0.8781907E+03  0.7818608E-02  0.9561991E-01
          2   -1    0    0  501    0  0.00000000000E+00  0.00000000000E+00  0.58654559328E+03  0.58654559329E+03  0.25500000000E-02 0. -1.
         -2   -1    0    0    0  501 -0.00000000000E+00 -0.00000000000E+00 -0.93962826010E+03  0.93962826011E+03  0.25500000000E-02 0.  1.
    8880023    1    1    2    0    0 -0.52101409199E+03  0.25681306742E+03 -0.14257853090E+03  0.88968954101E+03  0.65864270000E+03 0. -1.
    8880022    1    1    2    0    0  0.52101409199E+03 -0.25681306742E+03 -0.21050413592E+03  0.63648431238E+03  0.15294330000E+03 0.  1.
<mgrwt>
<rscale>  0 0.79863800E+03</rscale>
<asrwt>0</asrwt>
<pdfrwt beam="1">  1        2 0.90237783E-01 0.87819066E+03</pdfrwt>
<pdfrwt beam="2">  1       -2 0.14455819E+00 0.87819066E+03</pdfrwt>
<totfact> 0.16884820E+01</totfact>
</mgrwt>
</event>
<event>
 4    1  0.8645356E-007  0.8216363E+03  0.7818608E-02  0.9665830E-01
         -2   -1    0    0    0  501 -0.00000000000E+00  0.00000000000E+00  0.58479138162E+03  0.58479138162E+03  0.25500000000E-02 0.  1.
          2   -1    0    0  501    0  0.00000000000E+00 -0.00000000000E+00 -0.99584500166E+03  0.99584500166E+03  0.25500000000E-02 0. -1.
    8880023    1    1    2    0    0 -0.47762904308E+03 -0.11465810924E+03  0.13247122580E+03  0.83224684844E+03  0.65864270000E+03 0.  1.
    8880022    1    1    2    0    0  0.47762904308E+03  0.11465810924E+03 -0.54352484584E+03  0.74838953485E+03  0.15294330000E+03 0.  0.
<mgrwt>
<rscale>  0 0.73088208E+03</rscale>
<asrwt>0</asrwt>
<pdfrwt beam="1">  1        2 0.15320692E+00 0.82163629E+03</pdfrwt>
<pdfrwt beam="2">  1       -2 0.89967905E-01 0.82163629E+03</pdfrwt>
<totfact> 0.27057361E+01</totfact>
</mgrwt>
</event>
<event>
 4    1  0.8645356E-007  0.9637345E+03  0.7818608E-02  0.9430623E-01
          2   -1    0    0  501    0  0.00000000000E+00  0.00000000000E+00  0.24958051212E+04  0.24958051212E+04  0.25500000000E-02 0. -1.
         -2   -1    0    0    0  501 -0.00000000000E+00 -0.00000000000E+00 -0.66222826649E+03  0.66222826650E+03  0.25500000000E-02 0.  1.
    8880023    1    1    2    0    0 -0.57645336214E+03 -0.40333040664E+03 -0.21430677769E+03  0.98727478286E+03  0.65864270000E+03 0.  1.
    8880022    1    1    2    0    0  0.57645336214E+03  0.40333040664E+03  0.20478836324E+04  0.21707586049E+04  0.15294330000E+03 0.  0.
<mgrwt>
<rscale>  0 0.89597843E+03</rscale>
<asrwt>0</asrwt>
<pdfrwt beam="1">  1        2 0.38397002E+00 0.96373446E+03</pdfrwt>
<pdfrwt beam="2">  1       -2 0.10188127E+00 0.96373446E+03</pdfrwt>
<totfact> 0.28037683E+00</totfact>
</mgrwt>
</event>
<event>
 4    1  0.8645356E-007  0.1071666E+04  0.7818608E-02  0.9293278E-01
          2   -1    0    0  501    0  0.00000000000E+00  0.00000000000E+00  0.14124356039E+04  0.14124356039E+04  0.25500000000E-02 0. -1.
         -2   -1    0    0    0  501 -0.00000000000E+00 -0.00000000000E+00 -0.66805720275E+03  0.66805720275E+03  0.25500000000E-02 0.  1.
    8880023    1    1    2    0    0  0.12538561541E+03 -0.83602441384E+03  0.29789240616E+03  0.11122987301E+04  0.65864270000E+03 0. -1.
    8880022    1    1    2    0    0 -0.12538561541E+03  0.83602441384E+03  0.44648599496E+03  0.96819407652E+03  0.15294330000E+03 0.  1.
<mgrwt>
<rscale>  0 0.10140407E+04</rscale>
<asrwt>0</asrwt>
<pdfrwt beam="1">  1        2 0.21729778E+00 0.10716663E+04</pdfrwt>
<pdfrwt beam="2">  1       -2 0.10277803E+00 0.10716663E+04</pdfrwt>
<totfact> 0.10883493E+01</totfact>
</mgrwt>
</event>
<event>
 4    1  0.1364348E-006  0.1154058E+04  0.7818608E-02  0.9203129E-01
          2   -1    0    0  501    0  0.00000000000E+00  0.00000000000E+00  0.23492265572E+04  0.23492265572E+04  0.25500000000E-02 0. -1.
         -2   -1    0    0    0  501 -0.00000000000E+00 -0.00000000000E+00 -0.14274348191E+04  0.14274348191E+04  0.25500000000E-02 0.  1.
    8880023    1    1    2    0    0 -0.21719532918E+03  0.92242407075E+03 -0.10648463927E+04  0.15702700480E+04  0.65864270000E+03 0.  0.
    8880022    1    1    2    0    0  0.21719532918E+03 -0.92242407075E+03  0.19866381309E+04  0.22063913283E+04  0.15294330000E+03 0.  0.
<mgrwt>
<rscale>  0 0.11021194E+04</rscale>
<asrwt>0</asrwt>
<pdfrwt beam="1">  1        2 0.36141947E+00 0.11540581E+04</pdfrwt>
<pdfrwt beam="2">  1       -2 0.21960536E+00 0.11540581E+04</pdfrwt>
<totfact> 0.41447397E-01</totfact>
</mgrwt>
</event>
<event>
 4    1  0.8645356E-007  0.1052075E+04  0.7818608E-02  0.9316391E-01
         -2   -1    0    0    0  501 -0.00000000000E+00  0.00000000000E+00  0.15308134589E+04  0.15308134589E+04  0.25500000000E-02 0.  1.
          2   -1    0    0  501    0  0.00000000000E+00 -0.00000000000E+00 -0.11977758713E+04  0.11977758713E+04  0.25500000000E-02 0. -1.
    8880023    1    1    2    0    0  0.51036937847E+03 -0.64231940917E+03  0.11514603703E+04  0.15597186658E+04  0.65864270000E+03 0.  0.
    8880022    1    1    2    0    0 -0.51036937847E+03  0.64231940917E+03 -0.81842278270E+03  0.11688706644E+04  0.15294330000E+03 0. -1.
<mgrwt>
<rscale>  0 0.99287742E+03</rscale>
<asrwt>0</asrwt>
<pdfrwt beam="1">  1        2 0.18427321E+00 0.10520748E+04</pdfrwt>
<pdfrwt beam="2">  1       -2 0.23550976E+00 0.10520748E+04</pdfrwt>
<totfact> 0.14836160E+00</totfact>
</mgrwt>
</event>
<event>
 4    1  0.8645356E-007  0.9075871E+03  0.7818608E-02  0.9513960E-01
          2   -1    0    0  501    0  0.00000000000E+00  0.00000000000E+00  0.19157408235E+04  0.19157408235E+04  0.25500000000E-02 0. -1.
         -2   -1    0    0    0  501 -0.00000000000E+00 -0.00000000000E+00 -0.34416319614E+03  0.34416319615E+03  0.25500000000E-02 0.  1.
    8880023    1    1    2    0    0  0.57796301518E+03  0.23635350976E+03  0.12396959683E+04  0.15364115752E+04  0.65864270000E+03 0. -1.
    8880022    1    1    2    0    0 -0.57796301518E+03 -0.23635350976E+03  0.33188165910E+03  0.72349244443E+03  0.15294330000E+03 0.  0.
<mgrwt>
<rscale>  0 0.83262393E+03</rscale>
<asrwt>0</asrwt>
<pdfrwt beam="1">  1        2 0.29472936E+00 0.90758715E+03</pdfrwt>
<pdfrwt beam="2">  1       -2 0.52948184E-01 0.90758715E+03</pdfrwt>
<totfact> 0.25345381E+01</totfact>
</mgrwt>
</event>
<event>
 4    1  0.8645356E-007  0.6760778E+03  0.7818608E-02  0.1011635E+00
          2   -1    0    0  501    0  0.00000000000E+00  0.00000000000E+00  0.27367219934E+04  0.27367219934E+04  0.25500000000E-02 0. -1.
         -2   -1    0    0    0  501 -0.00000000000E+00 -0.00000000000E+00 -0.91456273122E+02  0.91456273158E+02  0.25500000000E-02 0.  1.
    8880023    1    1    2    0    0  0.17479811181E+02 -0.15154335968E+03  0.12961433088E+04  0.14618716143E+04  0.65864270000E+03 0.  1.
    8880022    1    1    2    0    0 -0.17479811181E+02  0.15154335968E+03  0.13491224115E+04  0.13663066522E+04  0.15294330000E+03 0.  0.
<mgrwt>
<rscale>  0 0.50829822E+03</rscale>
<asrwt>0</asrwt>
<pdfrwt beam="1">  1        2 0.42103420E+00 0.67607776E+03</pdfrwt>
<pdfrwt beam="2">  1       -2 0.14070194E-01 0.67607776E+03</pdfrwt>
<totfact> 0.10401596E+02</totfact>
</mgrwt>
</event>
<event>
 4    1  0.8645356E-007  0.7003970E+03  0.7818608E-02  0.9995558E-01
          2   -1    0    0  501    0  0.00000000000E+00  0.00000000000E+00  0.42323347846E+04  0.42323347846E+04  0.25500000000E-02 0. -1.
         -2   -1    0    0    0  501 -0.00000000000E+00 -0.00000000000E+00 -0.14322037934E+03  0.14322037937E+03  0.25500000000E-02 0.  1.
    8880023    1    1    2    0    0 -0.22695180679E+03  0.72377940537E+02  0.75652320185E+03  0.10309622932E+04  0.65864270000E+03 0.  1.
    8880022    1    1    2    0    0  0.22695180679E+03 -0.72377940537E+02  0.33325912034E+04  0.33445928707E+04  0.15294330000E+03 0.  0.
<mgrwt>
<rscale>  0 0.55845419E+03</rscale>
<asrwt>0</asrwt>
<pdfrwt beam="1">  1        2 0.65112830E+00 0.70039696E+03</pdfrwt>
<pdfrwt beam="2">  1       -2 0.22033909E-01 0.70039696E+03</pdfrwt>
<totfact> 0.44251493E+00</totfact>
</mgrwt>
</event>
<event>
 4    1  0.8645356E-007  0.8218890E+03  0.7818608E-02  0.9665325E-01
          2   -1    0    0  501    0  0.00000000000E+00  0.00000000000E+00  0.88066970262E+03  0.88066970262E+03  0.25500000000E-02 0. -1.
         -2   -1    0    0    0  501 -0.00000000000E+00 -0.00000000000E+00 -0.98581773473E+03  0.98581773473E+03  0.25500000000E-02 0.  1.
    8880023    1    1    2    0    0 -0.44695851036E+03 -0.20474248324E+03 -0.70012899577E+03  0.10796676393E+04  0.65864270000E+03 0.  0.
    8880022    1    1    2    0    0  0.44695851036E+03  0.20474248324E+03  0.59498096367E+03  0.78681979803E+03  0.15294330000E+03 0.  0.
<mgrwt>
<rscale>  0 0.73119403E+03</rscale>
<asrwt>0</asrwt>
<pdfrwt beam="1">  1        2 0.13548765E+00 0.82188904E+03</pdfrwt>
<pdfrwt beam="2">  1       -2 0.15166427E+00 0.82188904E+03</pdfrwt>
<totfact> 0.88725374E+00</totfact>
</mgrwt>
</event>
<event>
 4    1  0.8645356E-007  0.9146532E+03  0.7818608E-02  0.9502906E-01
         -2   -1    0    0    0  501 -0.00000000000E+00  0.00000000000E+00  0.36333970807E+03  0.36333970808E+03  0.25500000000E-02 0.  1.
          2   -1    0    0  501    0  0.00000000000E+00 -0.00000000000E+00 -0.38815788662E+04  0.38815788662E+04  0.25500000000E-02 0. -1.
    8880023    1    1    2    0    0  0.59331073814E+03  0.22530571008E+03 -0.30218899434E+03  0.96328017189E+03  0.65864270000E+03 0.  0.
    8880022    1    1    2    0    0 -0.59331073814E+03 -0.22530571008E+03 -0.32160501637E+04  0.32816384023E+04  0.15294330000E+03 0.  0.
<mgrwt>
<rscale>  0 0.84069885E+03</rscale>
<asrwt>0</asrwt>
<pdfrwt beam="1">  1        2 0.59716595E+00 0.91465321E+03</pdfrwt>
<pdfrwt beam="2">  1       -2 0.55898419E-01 0.91465321E+03</pdfrwt>
<totfact> 0.13626704E+00</totfact>
</mgrwt>
</event>
<event>
 4    1  0.8645356E-007  0.7653654E+03  0.7818608E-02  0.9791410E-01
         -2   -1    0    0    0  501 -0.00000000000E+00  0.00000000000E+00  0.10189589757E+04  0.10189589757E+04  0.25500000000E-02 0.  1.
          2   -1    0    0  501    0  0.00000000000E+00 -0.00000000000E+00 -0.40008722945E+03  0.40008722946E+03  0.25500000000E-02 0. -1.
    8880023    1    1    2    0    0 -0.54616866152E+02  0.38599358461E+03  0.64295467413E+03  0.99958739922E+03  0.65864270000E+03 0.  0.
    8880022    1    1    2    0    0  0.54616866152E+02 -0.38599358461E+03 -0.24082927903E+02  0.41945880592E+03  0.15294330000E+03 0.  0.
<mgrwt>
<rscale>  0 0.65825584E+03</rscale>
<asrwt>0</asrwt>
<pdfrwt beam="1">  1        2 0.61551882E-01 0.76536544E+03</pdfrwt>
<pdfrwt beam="2">  1       -2 0.15676292E+00 0.76536544E+03</pdfrwt>
<totfact> 0.21424838E+01</totfact>
</mgrwt>
</event>
<event>
 4    1  0.8645356E-007  0.7866282E+03  0.7818608E-02  0.9740491E-01
         -2   -1    0    0    0  501 -0.00000000000E+00  0.00000000000E+00  0.23029071714E+03  0.23029071716E+03  0.25500000000E-02 0.  1.
          2   -1    0    0  501    0  0.00000000000E+00 -0.00000000000E+00 -0.23531522877E+04  0.23531522877E+04  0.25500000000E-02 0. -1.
    8880023    1    1    2    0    0  0.18616090786E+03 -0.38770848363E+03 -0.58789442473E+03  0.98204063703E+03  0.65864270000E+03 0.  0.
    8880022    1    1    2    0    0 -0.18616090786E+03  0.38770848363E+03 -0.15349671458E+04  0.16014023678E+04  0.15294330000E+03 0.  0.
<mgrwt>
<rscale>  0 0.68656292E+03</rscale>
<asrwt>0</asrwt>
<pdfrwt beam="1">  1        2 0.36202341E+00 0.78662822E+03</pdfrwt>
<pdfrwt beam="2">  1       -2 0.35429343E-01 0.78662822E+03</pdfrwt>
<totfact> 0.32733249E+01</totfact>
</mgrwt>
</event>
<event>
 4    1  0.8645356E-007  0.8614270E+03  0.7818608E-02  0.9591030E-01
         -2   -1    0    0    0  501 -0.00000000000E+00  0.00000000000E+00  0.14294795105E+04  0.14294795105E+04  0.25500000000E-02 0.  1.
          2   -1    0    0  501    0  0.00000000000E+00 -0.00000000000E+00 -0.10968918270E+04  0.10968918270E+04  0.25500000000E-02 0. -1.
    8880023    1    1    2    0    0  0.22264267044E+03 -0.50860255924E+03  0.12048698243E+04  0.14811373406E+04  0.65864270000E+03 0.  1.
    8880022    1    1    2    0    0 -0.22264267044E+03  0.50860255924E+03 -0.87228214078E+03  0.10452339968E+04  0.15294330000E+03 0.  0.
<mgrwt>
<rscale>  0 0.77892726E+03</rscale>
<asrwt>0</asrwt>
<pdfrwt beam="1">  1        2 0.16875259E+00 0.86142703E+03</pdfrwt>
<pdfrwt beam="2">  1       -2 0.21991992E+00 0.86142703E+03</pdfrwt>
<totfact> 0.21906652E+00</totfact>
</mgrwt>
</event>
<event>
 4    1  0.8645356E-007  0.1104544E+04  0.7818608E-02  0.9256014E-01
         -2   -1    0    0    0  501 -0.00000000000E+00  0.00000000000E+00  0.16897558182E+04  0.16897558182E+04  0.25500000000E-02 0.  1.
          2   -1    0    0  501    0  0.00000000000E+00 -0.00000000000E+00 -0.10009771737E+04  0.10009771737E+04  0.25500000000E-02 0. -1.
    8880023    1    1    2    0    0  0.88343424694E+03  0.75834004776E+02  0.12200930595E+04  0.16457959002E+04  0.65864270000E+03 0.  0.
    8880022    1    1    2    0    0 -0.88343424694E+03 -0.75834004776E+02 -0.53131441509E+03  0.10449370917E+04  0.15294330000E+03 0.  0.
<mgrwt>
<rscale>  0 0.10493514E+04</rscale>
<asrwt>0</asrwt>
<pdfrwt beam="1">  1        2 0.15399649E+00 0.11045438E+04</pdfrwt>
<pdfrwt beam="2">  1       -2 0.25996243E+00 0.11045438E+04</pdfrwt>
<totfact> 0.13834618E+00</totfact>
</mgrwt>
</event>
<event>
 4    1  0.8645356E-007  0.8038560E+03  0.7818608E-02  0.9702520E-01
          2   -1    0    0  501    0  0.00000000000E+00  0.00000000000E+00  0.40468466592E+04  0.40468466592E+04  0.25500000000E-02 0. -1.
         -2   -1    0    0    0  501 -0.00000000000E+00 -0.00000000000E+00 -0.21065328374E+03  0.21065328375E+03  0.25500000000E-02 0.  1.
    8880023    1    1    2    0    0 -0.39372212181E+03  0.23949357536E+03  0.64792227011E+03  0.10324668306E+04  0.65864270000E+03 0.  1.
    8880022    1    1    2    0    0  0.39372212181E+03 -0.23949357536E+03  0.31882711054E+04  0.32250331124E+04  0.15294330000E+03 0.  0.
<mgrwt>
<rscale>  0 0.70866964E+03</rscale>
<asrwt>0</asrwt>
<pdfrwt beam="1">  1        2 0.62259179E+00 0.80385601E+03</pdfrwt>
<pdfrwt beam="2">  1       -2 0.32408198E-01 0.80385601E+03</pdfrwt>
<totfact> 0.30451757E+00</totfact>
</mgrwt>
</event>
<event>
 4    1  0.8645356E-007  0.6606644E+03  0.7818608E-02  0.1023486E+00
          2   -1    0    0  501    0  0.00000000000E+00  0.00000000000E+00  0.10774237610E+04  0.10774237610E+04  0.25500000000E-02 0. -1.
         -2   -1    0    0    0  501 -0.00000000000E+00 -0.00000000000E+00 -0.31502663643E+03  0.31502663644E+03  0.25500000000E-02 0.  1.
    8880023    1    1    2    0    0  0.18302904997E+02  0.48293196329E+02  0.50623903821E+02  0.66260109798E+03  0.65864270000E+03 0.  1.
    8880022    1    1    2    0    0 -0.18302904997E+02 -0.48293196329E+02  0.71177322078E+03  0.72984929950E+03  0.15294330000E+03 0.  0.
<mgrwt>
<rscale>  0 0.46449404E+03</rscale>
<asrwt>0</asrwt>
<pdfrwt beam="1">  1        2 0.16575750E+00 0.66066439E+03</pdfrwt>
<pdfrwt beam="2">  1       -2 0.48465636E-01 0.66066439E+03</pdfrwt>
<totfact> 0.92723431E+01</totfact>
</mgrwt>
</event>
<event>
 4    1  0.8645356E-007  0.7240259E+03  0.7818608E-02  0.9909192E-01
         -2   -1    0    0    0  501 -0.00000000000E+00  0.00000000000E+00  0.58625154855E+03  0.58625154855E+03  0.25500000000E-02 0.  1.
          2   -1    0    0  501    0  0.00000000000E+00 -0.00000000000E+00 -0.75547430355E+03  0.75547430356E+03  0.25500000000E-02 0. -1.
    8880023    1    1    2    0    0 -0.29259490366E+03  0.69220824107E+02  0.28315075028E+03  0.77742385723E+03  0.65864270000E+03 0.  1.
    8880022    1    1    2    0    0  0.29259490366E+03 -0.69220824107E+02 -0.45237350528E+03  0.56430199489E+03  0.15294330000E+03 0.  0.
<mgrwt>
<rscale>  0 0.59817871E+03</rscale>
<asrwt>0</asrwt>
<pdfrwt beam="1">  1        2 0.11622682E+00 0.72402590E+03</pdfrwt>
<pdfrwt beam="2">  1       -2 0.90192545E-01 0.72402590E+03</pdfrwt>
<totfact> 0.39678725E+01</totfact>
</mgrwt>
</event>
<event>
 4    1  0.8645356E-007  0.7648455E+03  0.7818608E-02  0.9792721E-01
          2   -1    0    0  501    0  0.00000000000E+00  0.00000000000E+00  0.69259150870E+03  0.69259150870E+03  0.25500000000E-02 0. -1.
         -2   -1    0    0    0  501 -0.00000000000E+00 -0.00000000000E+00 -0.52228099717E+03  0.52228099718E+03  0.25500000000E-02 0.  1.
    8880023    1    1    2    0    0  0.27862019943E+03 -0.27119970905E+03  0.31329357608E+01  0.76485195905E+03  0.65864270000E+03 0.  0.
    8880022    1    1    2    0    0 -0.27862019943E+03  0.27119970905E+03  0.16717757576E+03  0.45002054683E+03  0.15294330000E+03 0.  0.
<mgrwt>
<rscale>  0 0.65754663E+03</rscale>
<asrwt>0</asrwt>
<pdfrwt beam="1">  1        2 0.10655254E+00 0.76484554E+03</pdfrwt>
<pdfrwt beam="2">  1       -2 0.80350923E-01 0.76484554E+03</pdfrwt>
<totfact> 0.57504309E+01</totfact>
</mgrwt>
</event>
<event>
 4    1  0.8645356E-007  0.6882062E+03  0.7818608E-02  0.1005017E+00
          2   -1    0    0  501    0  0.00000000000E+00  0.00000000000E+00  0.67282684589E+03  0.67282684589E+03  0.25500000000E-02 0. -1.
         -2   -1    0    0    0  501 -0.00000000000E+00 -0.00000000000E+00 -0.93316186359E+03  0.93316186360E+03  0.25500000000E-02 0.  1.
    8880023    1    1    2    0    0  0.19773082979E+03 -0.26835626638E+02 -0.77301652682E+03  0.10349794147E+04  0.65864270000E+03 0.  1.
    8880022    1    1    2    0    0 -0.19773082979E+03  0.26835626638E+02  0.51268150911E+03  0.57100929477E+03  0.15294330000E+03 0.  0.
<mgrwt>
<rscale>  0 0.53504039E+03</rscale>
<asrwt>0</asrwt>
<pdfrwt beam="1">  1        2 0.10351182E+00 0.68820625E+03</pdfrwt>
<pdfrwt beam="2">  1       -2 0.14356336E+00 0.68820625E+03</pdfrwt>
<totfact> 0.14792934E+01</totfact>
</mgrwt>
</event>
<event>
 4    1  0.8645356E-007  0.7903614E+03  0.7818608E-02  0.9732038E-01
         -2   -1    0    0    0  501 -0.00000000000E+00  0.00000000000E+00  0.37605833859E+03  0.37605833860E+03  0.25500000000E-02 0.  1.
          2   -1    0    0  501    0  0.00000000000E+00 -0.00000000000E+00 -0.21785179378E+04  0.21785179378E+04  0.25500000000E-02 0. -1.
    8880023    1    1    2    0    0 -0.23012435846E+03  0.37135399581E+03 -0.10760665105E+03  0.79765306253E+03  0.65864270000E+03 0.  1.
    8880022    1    1    2    0    0  0.23012435846E+03 -0.37135399581E+03 -0.16948529482E+04  0.17569232139E+04  0.15294330000E+03 0.  0.
<mgrwt>
<rscale>  0 0.69140910E+03</rscale>
<asrwt>0</asrwt>
<pdfrwt beam="1">  1        2 0.33515660E+00 0.79036145E+03</pdfrwt>
<pdfrwt beam="2">  1       -2 0.57855130E-01 0.79036145E+03</pdfrwt>
<totfact> 0.15336937E+01</totfact>
</mgrwt>
</event>
<event>
 4    1  0.8645356E-007  0.7365856E+03  0.7818608E-02  0.9870007E-01
          2   -1    0    0  501    0  0.00000000000E+00  0.00000000000E+00  0.25132273806E+04  0.25132273806E+04  0.25500000000E-02 0. -1.
         -2   -1    0    0    0  501 -0.00000000000E+00 -0.00000000000E+00 -0.14270367719E+03  0.14270367721E+03  0.25500000000E-02 0.  1.
    8880023    1    1    2    0    0  0.66512035135E+02 -0.32299277513E+03  0.10252943457E+04  0.12624527259E+04  0.65864270000E+03 0.  0.
    8880022    1    1    2    0    0 -0.66512035135E+02  0.32299277513E+03  0.13452293577E+04  0.13934783319E+04  0.15294330000E+03 0.  0.
<mgrwt>
<rscale>  0 0.61737161E+03</rscale>
<asrwt>0</asrwt>
<pdfrwt beam="1">  1        2 0.38665035E+00 0.73658563E+03</pdfrwt>
<pdfrwt beam="2">  1       -2 0.21954413E-01 0.73658563E+03</pdfrwt>
<totfact> 0.64486688E+01</totfact>
</mgrwt>
</event>
<event>
 4    1  0.8645356E-007  0.6785293E+03  0.7818608E-02  0.1010168E+00
          2   -1    0    0  501    0  0.00000000000E+00  0.00000000000E+00  0.36154364665E+03  0.36154364666E+03  0.25500000000E-02 0. -1.
         -2   -1    0    0    0  501 -0.00000000000E+00 -0.00000000000E+00 -0.88970968393E+03  0.88970968393E+03  0.25500000000E-02 0.  1.
    8880023    1    1    2    0    0 -0.52123341635E+02 -0.15451509741E+03 -0.69575661595E+03  0.97184321419E+03  0.65864270000E+03 0.  1.
    8880022    1    1    2    0    0  0.52123341635E+02  0.15451509741E+03  0.16759057867E+03  0.27941011640E+03  0.15294330000E+03 0.  0.
<mgrwt>
<rscale>  0 0.51407878E+03</rscale>
<asrwt>0</asrwt>
<pdfrwt beam="1">  1        2 0.55622100E-01 0.67852927E+03</pdfrwt>
<pdfrwt beam="2">  1       -2 0.13687841E+00 0.67852927E+03</pdfrwt>
<totfact> 0.34504744E+01</totfact>
</mgrwt>
</event>
<event>
 4    1  0.8645356E-007  0.7153591E+03  0.7818608E-02  0.9938614E-01
          2   -1    0    0  501    0  0.00000000000E+00  0.00000000000E+00  0.16633694494E+04  0.16633694494E+04  0.25500000000E-02 0. -1.
         -2   -1    0    0    0  501 -0.00000000000E+00 -0.00000000000E+00 -0.33077714632E+03  0.33077714633E+03  0.25500000000E-02 0.  1.
    8880023    1    1    2    0    0  0.27637716915E+03 -0.39295445727E+02  0.10144506224E+03  0.72251628259E+03  0.65864270000E+03 0.  1.
    8880022    1    1    2    0    0 -0.27637716915E+03  0.39295445727E+02  0.12311472408E+04  0.12716303131E+04  0.15294330000E+03 0.  0.
<mgrwt>
<rscale>  0 0.58425852E+03</rscale>
<asrwt>0</asrwt>
<pdfrwt beam="1">  1        2 0.25590299E+00 0.71535913E+03</pdfrwt>
<pdfrwt beam="2">  1       -2 0.50888792E-01 0.71535913E+03</pdfrwt>
<totfact> 0.38624949E+01</totfact>
</mgrwt>
</event>
<event>
 4    1  0.8645356E-007  0.7194497E+03  0.7818608E-02  0.9924452E-01
         -2   -1    0    0    0  501 -0.00000000000E+00  0.00000000000E+00  0.42785737541E+03  0.42785737541E+03  0.25500000000E-02 0.  1.
          2   -1    0    0  501    0  0.00000000000E+00 -0.00000000000E+00 -0.64207694989E+03  0.64207694990E+03  0.25500000000E-02 0. -1.
    8880023    1    1    2    0    0 -0.28919065682E+03  0.12903350236E+02 -0.17294900443E+03  0.73994546883E+03  0.65864270000E+03 0. -1.
    8880022    1    1    2    0    0  0.28919065682E+03 -0.12903350236E+02 -0.41270570054E+02  0.32998885649E+03  0.15294330000E+03 0.  1.
<mgrwt>
<rscale>  0 0.59090725E+03</rscale>
<asrwt>0</asrwt>
<pdfrwt beam="1">  1        2 0.98781069E-01 0.71944975E+03</pdfrwt>
<pdfrwt beam="2">  1       -2 0.65824212E-01 0.71944975E+03</pdfrwt>
<totfact> 0.98302947E+01</totfact>
</mgrwt>
</event>
<event>
 4    1  0.8645356E-007  0.7331358E+03  0.7818608E-02  0.9880413E-01
          2   -1    0    0  501    0  0.00000000000E+00  0.00000000000E+00  0.14128519470E+04  0.14128519470E+04  0.25500000000E-02 0. -1.
         -2   -1    0    0    0  501 -0.00000000000E+00 -0.00000000000E+00 -0.43461612178E+03  0.43461612179E+03  0.25500000000E-02 0.  1.
    8880023    1    1    2    0    0  0.10625994203E+03  0.30395179933E+03 -0.73646871205E+02  0.73682558282E+03  0.65864270000E+03 0.  1.
    8880022    1    1    2    0    0 -0.10625994203E+03 -0.30395179933E+03  0.10518826965E+04  0.11106424860E+04  0.15294330000E+03 0.  0.
<mgrwt>
<rscale>  0 0.61220023E+03</rscale>
<asrwt>0</asrwt>
<pdfrwt beam="1">  1        2 0.21736184E+00 0.73313578E+03</pdfrwt>
<pdfrwt beam="2">  1       -2 0.66864019E-01 0.73313578E+03</pdfrwt>
<totfact> 0.29916871E+01</totfact>
</mgrwt>
</event>
<event>
 4    1  0.8645356E-007  0.7354960E+03  0.7818608E-02  0.9873266E-01
         -2   -1    0    0    0  501 -0.00000000000E+00  0.00000000000E+00  0.38678449982E+03  0.38678449983E+03  0.25500000000E-02 0.  1.
          2   -1    0    0  501    0  0.00000000000E+00 -0.00000000000E+00 -0.26116480330E+04  0.26116480330E+04  0.25500000000E-02 0. -1.
    8880023    1    1    2    0    0  0.21202634702E+03 -0.24937730218E+03  0.89889990666E+01  0.73555096291E+03  0.65864270000E+03 0.  1.
    8880022    1    1    2    0    0 -0.21202634702E+03  0.24937730218E+03 -0.22338525323E+04  0.22628815699E+04  0.15294330000E+03 0.  0.
<mgrwt>
<rscale>  0 0.61574583E+03</rscale>
<asrwt>0</asrwt>
<pdfrwt beam="1">  1        2 0.40179199E+00 0.73549603E+03</pdfrwt>
<pdfrwt beam="2">  1       -2 0.59505309E-01 0.73549603E+03</pdfrwt>
<totfact> 0.83290852E+00</totfact>
</mgrwt>
</event>
<event>
 4    1  0.8645356E-007  0.1106936E+04  0.7818608E-02  0.9253373E-01
         -2   -1    0    0    0  501 -0.00000000000E+00  0.00000000000E+00  0.15513835668E+04  0.15513835668E+04  0.25500000000E-02 0.  1.
          2   -1    0    0  501    0  0.00000000000E+00 -0.00000000000E+00 -0.84464379653E+03  0.84464379654E+03  0.25500000000E-02 0. -1.
    8880023    1    1    2    0    0  0.88871658432E+03 -0.40975126018E+02  0.95264273692E+03  0.14604227192E+04  0.65864270000E+03 0.  0.
    8880022    1    1    2    0    0 -0.88871658432E+03  0.40975126018E+02 -0.24590296664E+03  0.93560464418E+03  0.15294330000E+03 0.  0.
<mgrwt>
<rscale>  0 0.10519110E+04</rscale>
<asrwt>0</asrwt>
<pdfrwt beam="1">  1        2 0.12994520E+00 0.11069356E+04</pdfrwt>
<pdfrwt beam="2">  1       -2 0.23867439E+00 0.11069356E+04</pdfrwt>
<totfact> 0.23791403E+00</totfact>
</mgrwt>
</event>
<event>
 4    1  0.8645356E-007  0.1022757E+04  0.7818608E-02  0.9352372E-01
         -2   -1    0    0    0  501 -0.00000000000E+00  0.00000000000E+00  0.93526265565E+03  0.93526265565E+03  0.25500000000E-02 0.  1.
          2   -1    0    0  501    0  0.00000000000E+00 -0.00000000000E+00 -0.19092220234E+04  0.19092220234E+04  0.25500000000E-02 0. -1.
    8880023    1    1    2    0    0  0.58572793843E+03 -0.51879062224E+03  0.52280479668E+03  0.11486322254E+04  0.65864270000E+03 0.  0.
    8880022    1    1    2    0    0 -0.58572793843E+03  0.51879062224E+03 -0.14967641644E+04  0.16958524536E+04  0.15294330000E+03 0.  0.
<mgrwt>
<rscale>  0 0.96101085E+03</rscale>
<asrwt>0</asrwt>
<pdfrwt beam="1">  1        2 0.29372646E+00 0.10227566E+04</pdfrwt>
<pdfrwt beam="2">  1       -2 0.14388656E+00 0.10227566E+04</pdfrwt>
<totfact> 0.24937213E+00</totfact>
</mgrwt>
</event>
<event>
 4    1  0.8645356E-007  0.7834398E+03  0.7818608E-02  0.9747818E-01
         -2   -1    0    0    0  501 -0.00000000000E+00  0.00000000000E+00  0.89879267204E+03  0.89879267204E+03  0.25500000000E-02 0.  1.
          2   -1    0    0  501    0  0.00000000000E+00 -0.00000000000E+00 -0.47753607335E+03  0.47753607336E+03  0.25500000000E-02 0. -1.
    8880023    1    1    2    0    0  0.19435655838E+03  0.37708511762E+03  0.48421613454E+03  0.92100115576E+03  0.65864270000E+03 0.  1.
    8880022    1    1    2    0    0 -0.19435655838E+03 -0.37708511762E+03 -0.62959535850E+02  0.45532758963E+03  0.15294330000E+03 0.  0.
<mgrwt>
<rscale>  0 0.68239717E+03</rscale>
<asrwt>0</asrwt>
<pdfrwt beam="1">  1        2 0.73467089E-01 0.78343976E+03</pdfrwt>
<pdfrwt beam="2">  1       -2 0.13827580E+00 0.78343976E+03</pdfrwt>
<totfact> 0.24334112E+01</totfact>
</mgrwt>
</event>
<event>
 4    1  0.8645356E-007  0.8868933E+03  0.7818608E-02  0.9547408E-01
         -2   -1    0    0    0  501 -0.00000000000E+00  0.00000000000E+00  0.46520195589E+03  0.46520195589E+03  0.25500000000E-02 0.  1.
          2   -1    0    0  501    0  0.00000000000E+00 -0.00000000000E+00 -0.22075685068E+04  0.22075685068E+04  0.25500000000E-02 0. -1.
    8880023    1    1    2    0    0 -0.30013655240E+02 -0.59318522705E+03 -0.67869310305E+02  0.88948635888E+03  0.65864270000E+03 0.  0.
    8880022    1    1    2    0    0  0.30013655240E+02  0.59318522705E+03 -0.16744972406E+04  0.17832841038E+04  0.15294330000E+03 0.  0.
<mgrwt>
<rscale>  0 0.80877046E+03</rscale>
<asrwt>0</asrwt>
<pdfrwt beam="1">  1        2 0.33962592E+00 0.88689331E+03</pdfrwt>
<pdfrwt beam="2">  1       -2 0.71569533E-01 0.88689331E+03</pdfrwt>
<totfact> 0.92370292E+00</totfact>
</mgrwt>
</event>
<event>
 4    1  0.8645356E-007  0.8615769E+03  0.7818608E-02  0.9590764E-01
          2   -1    0    0  501    0  0.00000000000E+00  0.00000000000E+00  0.22888296125E+04  0.22888296125E+04  0.25500000000E-02 0. -1.
         -2   -1    0    0    0  501 -0.00000000000E+00 -0.00000000000E+00 -0.35906871559E+03  0.35906871560E+03  0.25500000000E-02 0.  1.
    8880023    1    1    2    0    0 -0.54840247413E+03  0.88087140436E+02  0.18819725027E+04  0.20698152877E+04  0.65864270000E+03 0. -1.
    8880022    1    1    2    0    0  0.54840247413E+03 -0.88087140436E+02  0.47788394177E+02  0.57808304038E+03  0.15294330000E+03 0.  0.
<mgrwt>
<rscale>  0 0.77910474E+03</rscale>
<asrwt>0</asrwt>
<pdfrwt beam="1">  1        2 0.35212764E+00 0.86157694E+03</pdfrwt>
<pdfrwt beam="2">  1       -2 0.55241340E-01 0.86157694E+03</pdfrwt>
<totfact> 0.14531458E+01</totfact>
</mgrwt>
</event>
<event>
 4    1  0.8645356E-007  0.7027417E+03  0.7818608E-02  0.9986012E-01
          2   -1    0    0  501    0  0.00000000000E+00  0.00000000000E+00  0.18735692624E+04  0.18735692624E+04  0.25500000000E-02 0. -1.
         -2   -1    0    0    0  501 -0.00000000000E+00 -0.00000000000E+00 -0.59162888495E+03  0.59162888496E+03  0.25500000000E-02 0.  1.
    8880023    1    1    2    0    0  0.22089483859E+03 -0.10602422428E+03 -0.36585979578E+03  0.79227473914E+03  0.65864270000E+03 0.  1.
    8880022    1    1    2    0    0 -0.22089483859E+03  0.10602422428E+03  0.16478001732E+04  0.16729234082E+04  0.15294330000E+03 0.  0.
<mgrwt>
<rscale>  0 0.56267850E+03</rscale>
<asrwt>0</asrwt>
<pdfrwt beam="1">  1        2 0.28824143E+00 0.70274168E+03</pdfrwt>
<pdfrwt beam="2">  1       -2 0.91019828E-01 0.70274168E+03</pdfrwt>
<totfact> 0.84125854E+00</totfact>
</mgrwt>
</event>
<event>
 4    1  0.8645356E-007  0.9317555E+03  0.7818608E-02  0.9476865E-01
         -2   -1    0    0    0  501 -0.00000000000E+00  0.00000000000E+00  0.95558680954E+03  0.95558680955E+03  0.25500000000E-02 0.  1.
          2   -1    0    0  501    0  0.00000000000E+00 -0.00000000000E+00 -0.77372016048E+03  0.77372016049E+03  0.25500000000E-02 0. -1.
    8880023    1    1    2    0    0  0.64253929849E+03 -0.14663360298E+03 -0.19918547473E+03  0.95280807261E+03  0.65864270000E+03 0.  0.
    8880022    1    1    2    0    0 -0.64253929849E+03  0.14663360298E+03  0.38105212379E+03  0.77649889742E+03  0.15294330000E+03 0.  0.
<mgrwt>
<rscale>  0 0.86011200E+03</rscale>
<asrwt>0</asrwt>
<pdfrwt beam="1">  1        2 0.11903387E+00 0.93175553E+03</pdfrwt>
<pdfrwt beam="2">  1       -2 0.14701336E+00 0.93175553E+03</pdfrwt>
<totfact> 0.11353335E+01</totfact>
</mgrwt>
</event>
<event>
 4    1  0.8645356E-007  0.7231589E+03  0.7818608E-02  0.9912039E-01
          2   -1    0    0  501    0  0.00000000000E+00  0.00000000000E+00  0.18716114727E+04  0.18716114727E+04  0.25500000000E-02 0. -1.
         -2   -1    0    0    0  501 -0.00000000000E+00 -0.00000000000E+00 -0.44525979132E+03  0.44525979133E+03  0.25500000000E-02 0.  1.
    8880023    1    1    2    0    0  0.28909089875E+03  0.74666614895E+02 -0.12131480804E+03  0.73326403160E+03  0.65864270000E+03 0.  1.
    8880022    1    1    2    0    0 -0.28909089875E+03 -0.74666614895E+02  0.15476664894E+04  0.15836072324E+04  0.15294330000E+03 0.  0.
<mgrwt>
<rscale>  0 0.59681377E+03</rscale>
<asrwt>0</asrwt>
<pdfrwt beam="1">  1        2 0.28794023E+00 0.72315894E+03</pdfrwt>
<pdfrwt beam="2">  1       -2 0.68501505E-01 0.72315894E+03</pdfrwt>
<totfact> 0.15891804E+01</totfact>
</mgrwt>
</event>
<event>
 4    1  0.8645356E-007  0.6627152E+03  0.7818608E-02  0.1021532E+00
         -2   -1    0    0    0  501 -0.00000000000E+00  0.00000000000E+00  0.42543700740E+03  0.42543700741E+03  0.25500000000E-02 0.  1.
          2   -1    0    0  501    0  0.00000000000E+00 -0.00000000000E+00 -0.13539113730E+04  0.13539113730E+04  0.25500000000E-02 0. -1.
    8880023    1    1    2    0    0 -0.49014364442E+02 -0.54578915632E+02  0.15670614791E+03  0.68099066734E+03  0.65864270000E+03 0.  1.
    8880022    1    1    2    0    0  0.49014364442E+02  0.54578915632E+02 -0.10851805135E+04  0.10983577130E+04  0.15294330000E+03 0.  0.
<mgrwt>
<rscale>  0 0.47137680E+03</rscale>
<asrwt>0</asrwt>
<pdfrwt beam="1">  1        2 0.20829406E+00 0.66271523E+03</pdfrwt>
<pdfrwt beam="2">  1       -2 0.65451848E-01 0.66271523E+03</pdfrwt>
<totfact> 0.34106287E+01</totfact>
</mgrwt>
</event>
<event>
 4    1  0.8645356E-007  0.1364441E+04  0.7818608E-02  0.9011817E-01
          2   -1    0    0  501    0  0.00000000000E+00  0.00000000000E+00  0.19927205102E+04  0.19927205102E+04  0.25500000000E-02 0. -1.
         -2   -1    0    0    0  501 -0.00000000000E+00 -0.00000000000E+00 -0.99346366894E+03  0.99346366895E+03  0.25500000000E-02 0.  1.
    8880023    1    1    2    0    0 -0.11172374505E+04  0.42387489082E+03 -0.82709937914E+02  0.13669457136E+04  0.65864270000E+03 0.  0.
    8880022    1    1    2    0    0  0.11172374505E+04 -0.42387489082E+03  0.10819667792E+04  0.16192384655E+04  0.15294330000E+03 0.  0.
<mgrwt>
<rscale>  0 0.13226199E+04</rscale>
<asrwt>0</asrwt>
<pdfrwt beam="1">  1        2 0.30657238E+00 0.13644411E+04</pdfrwt>
<pdfrwt beam="2">  1       -2 0.15284057E+00 0.13644411E+04</pdfrwt>
<totfact> 0.18382783E+00</totfact>
</mgrwt>
</event>
<event>
 4    1  0.8645356E-007  0.6623830E+03  0.7818608E-02  0.1021838E+00
          2   -1    0    0  501    0  0.00000000000E+00  0.00000000000E+00  0.25843667902E+04  0.25843667902E+04  0.25500000000E-02 0. -1.
         -2   -1    0    0    0  501 -0.00000000000E+00 -0.00000000000E+00 -0.88138804536E+02  0.88138804573E+02  0.25500000000E-02 0.  1.
    8880023    1    1    2    0    0  0.20802195078E+02 -0.67144198810E+02  0.12471598124E+04  0.14121469041E+04  0.65864270000E+03 0.  1.
    8880022    1    1    2    0    0 -0.20802195078E+02  0.67144198810E+02  0.12490681732E+04  0.12603586907E+04  0.15294330000E+03 0.  0.
<mgrwt>
<rscale>  0 0.47029239E+03</rscale>
<asrwt>0</asrwt>
<pdfrwt beam="1">  1        2 0.39759488E+00 0.66238303E+03</pdfrwt>
<pdfrwt beam="2">  1       -2 0.13559817E-01 0.66238303E+03</pdfrwt>
<totfact> 0.13572091E+02</totfact>
</mgrwt>
</event>
<event>
 4    1  0.1920015E-006  0.1133952E+04  0.7818608E-02  0.9224164E-01
          2   -1    0    0  501    0  0.00000000000E+00  0.00000000000E+00  0.31087042513E+04  0.31087042513E+04  0.25500000000E-02 0. -1.
         -2   -1    0    0    0  501 -0.00000000000E+00 -0.00000000000E+00 -0.17926491272E+04  0.17926491272E+04  0.25500000000E-02 0.  1.
    8880023    1    1    2    0    0  0.23689678897E+03 -0.89214167571E+03 -0.15305956461E+04  0.19048805990E+04  0.65864270000E+03 0.  1.
    8880022    1    1    2    0    0 -0.23689678897E+03  0.89214167571E+03  0.28466507702E+04  0.29964727795E+04  0.15294330000E+03 0.  0.
<mgrwt>
<rscale>  0 0.10807459E+04</rscale>
<asrwt>0</asrwt>
<pdfrwt beam="1">  1        2 0.47826219E+00 0.11339520E+04</pdfrwt>
<pdfrwt beam="2">  1       -2 0.27579218E+00 0.11339520E+04</pdfrwt>
<totfact> 0.66419186E-02</totfact>
</mgrwt>
</event>
<event>
 4    1  0.8645356E-007  0.6850071E+03  0.7818608E-02  0.1006622E+00
          2   -1    0    0  501    0  0.00000000000E+00  0.00000000000E+00  0.11552644337E+04  0.11552644337E+04  0.25500000000E-02 0. -1.
         -2   -1    0    0    0  501 -0.00000000000E+00 -0.00000000000E+00 -0.18913014679E+03  0.18913014681E+03  0.25500000000E-02 0.  1.
    8880023    1    1    2    0    0 -0.18779397286E+03  0.12568843714E+02  0.63584864627E+03  0.93463268684E+03  0.65864270000E+03 0.  1.
    8880022    1    1    2    0    0  0.18779397286E+03 -0.12568843714E+02  0.33028564058E+03  0.40976189362E+03  0.15294330000E+03 0. -1.
<mgrwt>
<rscale>  0 0.52839469E+03</rscale>
<asrwt>0</asrwt>
<pdfrwt beam="1">  1        2 0.17773299E+00 0.68500712E+03</pdfrwt>
<pdfrwt beam="2">  1       -2 0.29096945E-01 0.68500712E+03</pdfrwt>
<totfact> 0.22192988E+02</totfact>
</mgrwt>
</event>
<event>
 4    1  0.8645356E-007  0.7070260E+03  0.7818608E-02  0.9969215E-01
          2   -1    0    0  501    0  0.00000000000E+00  0.00000000000E+00  0.11144948776E+04  0.11144948776E+04  0.25500000000E-02 0. -1.
         -2   -1    0    0    0  501 -0.00000000000E+00 -0.00000000000E+00 -0.55968053150E+03  0.55968053151E+03  0.25500000000E-02 0.  1.
    8880023    1    1    2    0    0 -0.24614392844E+02 -0.25587048903E+03 -0.30037473445E+03  0.76818667188E+03  0.65864270000E+03 0.  1.
    8880022    1    1    2    0    0  0.24614392844E+02  0.25587048903E+03  0.85518908052E+03  0.90598873721E+03  0.15294330000E+03 0.  0.
<mgrwt>
<rscale>  0 0.57020962E+03</rscale>
<asrwt>0</asrwt>
<pdfrwt beam="1">  1        2 0.17146075E+00 0.70702601E+03</pdfrwt>
<pdfrwt beam="2">  1       -2 0.86104697E-01 0.70702601E+03</pdfrwt>
<totfact> 0.25528127E+01</totfact>
</mgrwt>
</event>
<event>
 4    1  0.8645356E-007  0.7798408E+03  0.7818608E-02  0.9756211E-01
          2   -1    0    0  501    0  0.00000000000E+00  0.00000000000E+00  0.24226668444E+04  0.24226668444E+04  0.25500000000E-02 0. -1.
         -2   -1    0    0    0  501 -0.00000000000E+00 -0.00000000000E+00 -0.83933662262E+03  0.83933662263E+03  0.25500000000E-02 0.  1.
    8880023    1    1    2    0    0  0.24001084711E+03 -0.34166692501E+03 -0.63119547492E+03  0.10032743534E+04  0.65864270000E+03 0.  1.
    8880022    1    1    2    0    0 -0.24001084711E+03  0.34166692501E+03  0.22145256967E+04  0.22587291136E+04  0.15294330000E+03 0.  0.
<mgrwt>
<rscale>  0 0.67766399E+03</rscale>
<asrwt>0</asrwt>
<pdfrwt beam="1">  1        2 0.37271797E+00 0.77984082E+03</pdfrwt>
<pdfrwt beam="2">  1       -2 0.12912871E+00 0.77984082E+03</pdfrwt>
<totfact> 0.17771952E+00</totfact>
</mgrwt>
</event>
<event>
 4    1  0.8645356E-007  0.7831751E+03  0.7818608E-02  0.9748431E-01
          2   -1    0    0  501    0  0.00000000000E+00  0.00000000000E+00  0.83370238922E+03  0.83370238923E+03  0.25500000000E-02 0. -1.
         -2   -1    0    0    0  501 -0.00000000000E+00 -0.00000000000E+00 -0.67952206974E+03  0.67952206975E+03  0.25500000000E-02 0.  1.
    8880023    1    1    2    0    0 -0.18314554696E+03 -0.38211356960E+03 -0.33180058605E+03  0.85056152430E+03  0.65864270000E+03 0.  1.
    8880022    1    1    2    0    0  0.18314554696E+03  0.38211356960E+03  0.48598090552E+03  0.66266293468E+03  0.15294330000E+03 0.  0.
<mgrwt>
<rscale>  0 0.68205027E+03</rscale>
<asrwt>0</asrwt>
<pdfrwt beam="1">  1        2 0.12826191E+00 0.78317513E+03</pdfrwt>
<pdfrwt beam="2">  1       -2 0.10454186E+00 0.78317513E+03</pdfrwt>
<totfact> 0.24486607E+01</totfact>
</mgrwt>
</event>
<event>
 4    1  0.8645356E-007  0.7554558E+03  0.7818608E-02  0.9817017E-01
         -2   -1    0    0    0  501 -0.00000000000E+00  0.00000000000E+00  0.11906540019E+04  0.11906540019E+04  0.25500000000E-02 0.  1.
          2   -1    0    0  501    0  0.00000000000E+00 -0.00000000000E+00 -0.15813259906E+04  0.15813259906E+04  0.25500000000E-02 0. -1.
    8880023    1    1    2    0    0 -0.37064825021E+02  0.36814329489E+03  0.10405188761E+04  0.12858433126E+04  0.65864270000E+03 0.  1.
    8880022    1    1    2    0    0  0.37064825021E+02 -0.36814329489E+03 -0.14311908648E+04  0.14861366799E+04  0.15294330000E+03 0.  0.
<mgrwt>
<rscale>  0 0.64457251E+03</rscale>
<asrwt>0</asrwt>
<pdfrwt beam="1">  1        2 0.24328092E+00 0.75545582E+03</pdfrwt>
<pdfrwt beam="2">  1       -2 0.18317754E+00 0.75545582E+03</pdfrwt>
<totfact> 0.20300597E+00</totfact>
</mgrwt>
</event>
<event>
 4    1  0.8645356E-007  0.6959401E+03  0.7818608E-02  0.1001448E+00
          2   -1    0    0  501    0  0.00000000000E+00  0.00000000000E+00  0.12155365038E+04  0.12155365038E+04  0.25500000000E-02 0. -1.
         -2   -1    0    0    0  501 -0.00000000000E+00 -0.00000000000E+00 -0.33997017100E+03  0.33997017101E+03  0.25500000000E-02 0.  1.
    8880023    1    1    2    0    0 -0.12763989263E+03  0.18501486213E+03  0.63141155966E+02  0.69879857845E+03  0.65864270000E+03 0.  1.
    8880022    1    1    2    0    0  0.12763989263E+03 -0.18501486213E+03  0.81242517687E+03  0.85670809640E+03  0.15294330000E+03 0.  0.
<mgrwt>
<rscale>  0 0.55019902E+03</rscale>
<asrwt>0</asrwt>
<pdfrwt beam="1">  1        2 0.18700562E+00 0.69594012E+03</pdfrwt>
<pdfrwt beam="2">  1       -2 0.52303103E-01 0.69594012E+03</pdfrwt>
<totfact> 0.65389668E+01</totfact>
</mgrwt>
</event>
<event>
 4    1  0.8645356E-007  0.9863182E+03  0.7818608E-02  0.9399681E-01
          2   -1    0    0  501    0  0.00000000000E+00  0.00000000000E+00  0.23410857732E+04  0.23410857732E+04  0.25500000000E-02 0. -1.
         -2   -1    0    0    0  501 -0.00000000000E+00 -0.00000000000E+00 -0.34587198200E+03  0.34587198201E+03  0.25500000000E-02 0.  1.
    8880023    1    1    2    0    0 -0.40937124189E+03  0.60944939116E+03  0.14744927868E+04  0.17739652078E+04  0.65864270000E+03 0.  0.
    8880022    1    1    2    0    0  0.40937124189E+03 -0.60944939116E+03  0.52072100438E+03  0.91299254734E+03  0.15294330000E+03 0.  0.
<mgrwt>
<rscale>  0 0.92101973E+03</rscale>
<asrwt>0</asrwt>
<pdfrwt beam="1">  1        2 0.36016704E+00 0.98631819E+03</pdfrwt>
<pdfrwt beam="2">  1       -2 0.53211075E-01 0.98631819E+03</pdfrwt>
<totfact> 0.14458937E+01</totfact>
</mgrwt>
</event>
<event>
 4    1  0.8645356E-007  0.7740427E+03  0.7818608E-02  0.9770021E-01
         -2   -1    0    0    0  501 -0.00000000000E+00  0.00000000000E+00  0.13769863988E+04  0.13769863988E+04  0.25500000000E-02 0.  1.
          2   -1    0    0  501    0  0.00000000000E+00 -0.00000000000E+00 -0.34982953040E+03  0.34982953041E+03  0.25500000000E-02 0. -1.
    8880023    1    1    2    0    0  0.16183765960E+03 -0.37301542015E+03  0.10348717678E+04  0.12923241520E+04  0.65864270000E+03 0.  1.
    8880022    1    1    2    0    0 -0.16183765960E+03  0.37301542015E+03 -0.77148994658E+01  0.43449177716E+03  0.15294330000E+03 0. -1.
<mgrwt>
<rscale>  0 0.66996478E+03</rscale>
<asrwt>0</asrwt>
<pdfrwt beam="1">  1        2 0.53819927E-01 0.77404272E+03</pdfrwt>
<pdfrwt beam="2">  1       -2 0.21184406E+00 0.77404272E+03</pdfrwt>
<totfact> 0.10483571E+01</totfact>
</mgrwt>
</event>
<event>
 4    1  0.8645356E-007  0.7908322E+03  0.7818608E-02  0.9730981E-01
         -2   -1    0    0    0  501 -0.00000000000E+00  0.00000000000E+00  0.41117006874E+03  0.41117006875E+03  0.25500000000E-02 0.  1.
          2   -1    0    0  501    0  0.00000000000E+00 -0.00000000000E+00 -0.15161545646E+04  0.15161545646E+04  0.25500000000E-02 0. -1.
    8880023    1    1    2    0    0 -0.39362375836E+03 -0.19148309366E+03 -0.70853011174E+02  0.79399987013E+03  0.65864270000E+03 0.  1.
    8880022    1    1    2    0    0  0.39362375836E+03  0.19148309366E+03 -0.10341314846E+04  0.11333247632E+04  0.15294330000E+03 0.  0.
<mgrwt>
<rscale>  0 0.69201794E+03</rscale>
<asrwt>0</asrwt>
<pdfrwt beam="1">  1        2 0.23325454E+00 0.79083225E+03</pdfrwt>
<pdfrwt beam="2">  1       -2 0.63256935E-01 0.79083225E+03</pdfrwt>
<totfact> 0.29310683E+01</totfact>
</mgrwt>
</event>
<event>
 4    1  0.8645356E-007  0.1038335E+04  0.7818608E-02  0.9333037E-01
          2   -1    0    0  501    0  0.00000000000E+00  0.00000000000E+00  0.13821495795E+04  0.13821495795E+04  0.25500000000E-02 0. -1.
         -2   -1    0    0    0  501 -0.00000000000E+00 -0.00000000000E+00 -0.78093193286E+03  0.78093193286E+03  0.25500000000E-02 0.  1.
    8880023    1    1    2    0    0 -0.52547077543E+02 -0.80097998924E+03  0.81321651930E+03  0.13188864440E+04  0.65864270000E+03 0.  0.
    8880022    1    1    2    0    0  0.52547077543E+02  0.80097998924E+03 -0.21199887264E+03  0.84419506842E+03  0.15294330000E+03 0.  0.
<mgrwt>
<rscale>  0 0.97797484E+03</rscale>
<asrwt>0</asrwt>
<pdfrwt beam="1">  1        2 0.21263840E+00 0.10383354E+04</pdfrwt>
<pdfrwt beam="2">  1       -2 0.12014338E+00 0.10383354E+04</pdfrwt>
<totfact> 0.77618168E+00</totfact>
</mgrwt>
</event>
<event>
 4    1  0.8645356E-007  0.6775860E+03  0.7818608E-02  0.1010723E+00
         -2   -1    0    0    0  501 -0.00000000000E+00  0.00000000000E+00  0.34383780001E+03  0.34383780002E+03  0.25500000000E-02 0.  1.
          2   -1    0    0  501    0  0.00000000000E+00 -0.00000000000E+00 -0.20690098302E+04  0.20690098302E+04  0.25500000000E-02 0. -1.
    8880023    1    1    2    0    0  0.13334503816E+03 -0.86785202599E+02 -0.40132688470E+01  0.67759787720E+03  0.65864270000E+03 0.  1.
    8880022    1    1    2    0    0 -0.13334503816E+03  0.86785202599E+02 -0.17211587614E+04  0.17352497530E+04  0.15294330000E+03 0.  0.
<mgrwt>
<rscale>  0 0.51188116E+03</rscale>
<asrwt>0</asrwt>
<pdfrwt beam="1">  1        2 0.31830920E+00 0.67758599E+03</pdfrwt>
<pdfrwt beam="2">  1       -2 0.52898124E-01 0.67758599E+03</pdfrwt>
<totfact> 0.21567187E+01</totfact>
</mgrwt>
</event>
<event>
 4    1  0.8645356E-007  0.8698055E+03  0.7818608E-02  0.9576354E-01
          2   -1    0    0  501    0  0.00000000000E+00  0.00000000000E+00  0.14399932414E+04  0.14399932414E+04  0.25500000000E-02 0. -1.
         -2   -1    0    0    0  501 -0.00000000000E+00 -0.00000000000E+00 -0.93288744942E+03  0.93288744942E+03  0.25500000000E-02 0.  1.
    8880023    1    1    2    0    0 -0.13571146281E+03 -0.55166459377E+03 -0.64256655762E+03  0.10814126929E+04  0.65864270000E+03 0.  1.
    8880022    1    1    2    0    0  0.13571146281E+03  0.55166459377E+03  0.11496723496E+04  0.12914679979E+04  0.15294330000E+03 0.  0.
<mgrwt>
<rscale>  0 0.78881212E+03</rscale>
<asrwt>0</asrwt>
<pdfrwt beam="1">  1        2 0.22153742E+00 0.86980551E+03</pdfrwt>
<pdfrwt beam="2">  1       -2 0.14352115E+00 0.86980551E+03</pdfrwt>
<totfact> 0.46585426E+00</totfact>
</mgrwt>
</event>
<event>
 4    1  0.8645356E-007  0.8500367E+03  0.7818608E-02  0.9611538E-01
          2   -1    0    0  501    0  0.00000000000E+00  0.00000000000E+00  0.52190253808E+03  0.52190253808E+03  0.25500000000E-02 0. -1.
         -2   -1    0    0    0  501 -0.00000000000E+00 -0.00000000000E+00 -0.16644620002E+04  0.16644620002E+04  0.25500000000E-02 0.  1.
    8880023    1    1    2    0    0 -0.44773833252E+03  0.29712379166E+03 -0.13458630645E+04  0.15918259190E+04  0.65864270000E+03 0.  1.
    8880022    1    1    2    0    0  0.44773833252E+03 -0.29712379166E+03  0.20330360237E+03  0.59453861921E+03  0.15294330000E+03 0.  0.
<mgrwt>
<rscale>  0 0.76537204E+03</rscale>
<asrwt>0</asrwt>
<pdfrwt beam="1">  1        2 0.80292699E-01 0.85003669E+03</pdfrwt>
<pdfrwt beam="2">  1       -2 0.25607108E+00 0.85003669E+03</pdfrwt>
<totfact> 0.35141593E+00</totfact>
</mgrwt>
</event>
<event>
 4    1  0.8645356E-007  0.6676451E+03  0.7818608E-02  0.1017410E+00
         -2   -1    0    0    0  501 -0.00000000000E+00  0.00000000000E+00  0.45705432796E+03  0.45705432796E+03  0.25500000000E-02 0.  1.
          2   -1    0    0  501    0  0.00000000000E+00 -0.00000000000E+00 -0.18978081000E+04  0.18978081000E+04  0.25500000000E-02 0. -1.
    8880023    1    1    2    0    0 -0.32520890896E+02 -0.10431751262E+03  0.20500034871E+03  0.69840897834E+03  0.65864270000E+03 0.  1.
    8880022    1    1    2    0    0  0.32520890896E+02  0.10431751262E+03 -0.16457541208E+04  0.16564534496E+04  0.15294330000E+03 0.  0.
<mgrwt>
<rscale>  0 0.48632809E+03</rscale>
<asrwt>0</asrwt>
<pdfrwt beam="1">  1        2 0.29197047E+00 0.66764508E+03</pdfrwt>
<pdfrwt beam="2">  1       -2 0.70316051E-01 0.66764508E+03</pdfrwt>
<totfact> 0.14652116E+01</totfact>
</mgrwt>
</event>
<event>
 4    1  0.8645356E-007  0.7001425E+03  0.7818608E-02  0.9996611E-01
         -2   -1    0    0    0  501 -0.00000000000E+00  0.00000000000E+00  0.38579647260E+03  0.38579647261E+03  0.25500000000E-02 0.  1.
          2   -1    0    0  501    0  0.00000000000E+00 -0.00000000000E+00 -0.88614648293E+03  0.88614648293E+03  0.25500000000E-02 0. -1.
    8880023    1    1    2    0    0 -0.20834602261E+03  0.11393522114E+03 -0.31915838995E+01  0.70014976414E+03  0.65864270000E+03 0.  1.
    8880022    1    1    2    0    0  0.20834602261E+03 -0.11393522114E+03 -0.49715842643E+03  0.57179319141E+03  0.15294330000E+03 0. -1.
<mgrwt>
<rscale>  0 0.55799104E+03</rscale>
<asrwt>0</asrwt>
<pdfrwt beam="1">  1        2 0.13633023E+00 0.70014249E+03</pdfrwt>
<pdfrwt beam="2">  1       -2 0.59353304E-01 0.70014249E+03</pdfrwt>
<totfact> 0.80779440E+01</totfact>
</mgrwt>
</event>
<event>
 4    1  0.8645356E-007  0.7393954E+03  0.7818608E-02  0.9861712E-01
          2   -1    0    0  501    0  0.00000000000E+00  0.00000000000E+00  0.39071534158E+03  0.39071534159E+03  0.25500000000E-02 0. -1.
         -2   -1    0    0    0  501 -0.00000000000E+00 -0.00000000000E+00 -0.10228537410E+04  0.10228537410E+04  0.25500000000E-02 0.  1.
    8880023    1    1    2    0    0 -0.40720518999E+02  0.33352244875E+03 -0.72219571202E+03  0.10335725602E+04  0.65864270000E+03 0.  1.
    8880022    1    1    2    0    0  0.40720518999E+02 -0.33352244875E+03  0.90057312573E+02  0.37999652242E+03  0.15294330000E+03 0.  0.
<mgrwt>
<rscale>  0 0.62153328E+03</rscale>
<asrwt>0</asrwt>
<pdfrwt beam="1">  1        2 0.60110053E-01 0.73939542E+03</pdfrwt>
<pdfrwt beam="2">  1       -2 0.15736211E+00 0.73939542E+03</pdfrwt>
<totfact> 0.21825157E+01</totfact>
</mgrwt>
</event>
<event>
 4    1  0.8645356E-007  0.7870796E+03  0.7818608E-02  0.9739462E-01
          2   -1    0    0  501    0  0.00000000000E+00  0.00000000000E+00  0.26634442383E+04  0.26634442383E+04  0.25500000000E-02 0. -1.
         -2   -1    0    0    0  501 -0.00000000000E+00 -0.00000000000E+00 -0.19093121134E+03  0.19093121135E+03  0.25500000000E-02 0.  1.
    8880023    1    1    2    0    0 -0.19809031680E+03 -0.38268044626E+03  0.80714547037E+03  0.11273766514E+04  0.65864270000E+03 0.  0.
    8880022    1    1    2    0    0  0.19809031680E+03  0.38268044626E+03  0.16653675566E+04  0.17269987983E+04  0.15294330000E+03 0.  0.
<mgrwt>
<rscale>  0 0.68715063E+03</rscale>
<asrwt>0</asrwt>
<pdfrwt beam="1">  1        2 0.40976063E+00 0.78707960E+03</pdfrwt>
<pdfrwt beam="2">  1       -2 0.29374034E-01 0.78707960E+03</pdfrwt>
<totfact> 0.31011805E+01</totfact>
</mgrwt>
</event>
<event>
 4    1  0.8645356E-007  0.7617454E+03  0.7818608E-02  0.9800610E-01
         -2   -1    0    0    0  501 -0.00000000000E+00  0.00000000000E+00  0.56498942135E+03  0.56498942135E+03  0.25500000000E-02 0.  1.
          2   -1    0    0  501    0  0.00000000000E+00 -0.00000000000E+00 -0.95264258448E+03  0.95264258448E+03  0.25500000000E-02 0. -1.
    8880023    1    1    2    0    0 -0.34790414093E+03 -0.15940050552E+03 -0.67293195480E+03  0.10164120397E+04  0.65864270000E+03 0.  0.
    8880022    1    1    2    0    0  0.34790414093E+03  0.15940050552E+03  0.28527879167E+03  0.50121996611E+03  0.15294330000E+03 0.  0.
<mgrwt>
<rscale>  0 0.65329834E+03</rscale>
<asrwt>0</asrwt>
<pdfrwt beam="1">  1        2 0.14656040E+00 0.76174538E+03</pdfrwt>
<pdfrwt beam="2">  1       -2 0.86921450E-01 0.76174538E+03</pdfrwt>
<totfact> 0.31407398E+01</totfact>
</mgrwt>
</event>
<event>
 4    1  0.8645356E-007  0.1018671E+04  0.7818608E-02  0.9357528E-01
         -2   -1    0    0    0  501 -0.00000000000E+00  0.00000000000E+00  0.15777384429E+04  0.15777384429E+04  0.25500000000E-02 0.  1.
          2   -1    0    0  501    0  0.00000000000E+00 -0.00000000000E+00 -0.11914962615E+04  0.11914962615E+04  0.25500000000E-02 0. -1.
    8880023    1    1    2    0    0 -0.76589863352E+03  0.13145321238E+03 -0.83261950609E+03  0.13156542525E+04  0.65864270000E+03 0. -1.
    8880022    1    1    2    0    0  0.76589863352E+03 -0.13145321238E+03  0.12188616875E+04  0.14535804519E+04  0.15294330000E+03 0.  0.
<mgrwt>
<rscale>  0 0.95654964E+03</rscale>
<asrwt>0</asrwt>
<pdfrwt beam="1">  1        2 0.18330712E+00 0.10186711E+04</pdfrwt>
<pdfrwt beam="2">  1       -2 0.24272899E+00 0.10186711E+04</pdfrwt>
<totfact> 0.13567014E+00</totfact>
</mgrwt>
</event>
<event>
 4    1  0.8645356E-007  0.7508676E+03  0.7818608E-02  0.9829351E-01
         -2   -1    0    0    0  501 -0.00000000000E+00  0.00000000000E+00  0.14780407024E+03  0.14780407026E+03  0.25500000000E-02 0.  1.
          2   -1    0    0  501    0  0.00000000000E+00 -0.00000000000E+00 -0.27669800524E+04  0.27669800524E+04  0.25500000000E-02 0. -1.
    8880023    1    1    2    0    0 -0.27550734456E+03  0.23256740072E+03 -0.10093913901E+04  0.12580433528E+04  0.65864270000E+03 0.  0.
    8880022    1    1    2    0    0  0.27550734456E+03 -0.23256740072E+03 -0.16097845921E+04  0.16567407699E+04  0.15294330000E+03 0.  0.
<mgrwt>
<rscale>  0 0.63810898E+03</rscale>
<asrwt>0</asrwt>
<pdfrwt beam="1">  1        2 0.42568920E+00 0.75086756E+03</pdfrwt>
<pdfrwt beam="2">  1       -2 0.22739090E-01 0.75086756E+03</pdfrwt>
<totfact> 0.43157389E+01</totfact>
</mgrwt>
</event>
<event>
 4    1  0.8645356E-007  0.7915871E+03  0.7818608E-02  0.9729291E-01
          2   -1    0    0  501    0  0.00000000000E+00  0.00000000000E+00  0.15532269898E+04  0.15532269898E+04  0.25500000000E-02 0. -1.
         -2   -1    0    0    0  501 -0.00000000000E+00 -0.00000000000E+00 -0.47120096669E+03  0.47120096670E+03  0.25500000000E-02 0.  1.
    8880023    1    1    2    0    0 -0.40109055218E+03  0.17867942368E+03 -0.57519213760E+02  0.79367413572E+03  0.65864270000E+03 0.  0.
    8880022    1    1    2    0    0  0.40109055218E+03 -0.17867942368E+03  0.11395452369E+04  0.12307538208E+04  0.15294330000E+03 0.  0.
<mgrwt>
<rscale>  0 0.69299308E+03</rscale>
<asrwt>0</asrwt>
<pdfrwt beam="1">  1        2 0.23895799E+00 0.79158712E+03</pdfrwt>
<pdfrwt beam="2">  1       -2 0.72492458E-01 0.79158712E+03</pdfrwt>
<totfact> 0.20797497E+01</totfact>
</mgrwt>
</event>
<event>
 4    1  0.8645356E-007  0.7440419E+03  0.7818608E-02  0.9848326E-01
         -2   -1    0    0    0  501 -0.00000000000E+00  0.00000000000E+00  0.10866879394E+04  0.10866879394E+04  0.25500000000E-02 0.  1.
          2   -1    0    0  501    0  0.00000000000E+00 -0.00000000000E+00 -0.68158289056E+03  0.68158289056E+03  0.25500000000E-02 0. -1.
    8880023    1    1    2    0    0 -0.10742708272E+03  0.32901000483E+03  0.88560012466E+03  0.11566701986E+04  0.65864270000E+03 0.  1.
    8880022    1    1    2    0    0  0.10742708272E+03 -0.32901000483E+03 -0.48049507580E+03  0.61160063134E+03  0.15294330000E+03 0.  0.
<mgrwt>
<rscale>  0 0.62832346E+03</rscale>
<asrwt>0</asrwt>
<pdfrwt beam="1">  1        2 0.10485891E+00 0.74404191E+03</pdfrwt>
<pdfrwt beam="2">  1       -2 0.16718276E+00 0.74404191E+03</pdfrwt>
<totfact> 0.96242660E+00</totfact>
</mgrwt>
</event>
<event>
 4    1  0.8645356E-007  0.7829102E+03  0.7818608E-02  0.9749045E-01
         -2   -1    0    0    0  501 -0.00000000000E+00  0.00000000000E+00  0.43666425630E+03  0.43666425631E+03  0.25500000000E-02 0.  1.
          2   -1    0    0  501    0  0.00000000000E+00 -0.00000000000E+00 -0.94956486494E+03  0.94956486494E+03  0.25500000000E-02 0. -1.
    8880023    1    1    2    0    0  0.38414798402E+03 -0.17767520633E+03 -0.51333634807E+03  0.93619579420E+03  0.65864270000E+03 0. -1.
    8880022    1    1    2    0    0 -0.38414798402E+03  0.17767520633E+03  0.43573942760E+00  0.45003332705E+03  0.15294330000E+03 0.  0.
<mgrwt>
<rscale>  0 0.68170280E+03</rscale>
<asrwt>0</asrwt>
<pdfrwt beam="1">  1        2 0.14608690E+00 0.78291019E+03</pdfrwt>
<pdfrwt beam="2">  1       -2 0.67179117E-01 0.78291019E+03</pdfrwt>
<totfact> 0.55900857E+01</totfact>
</mgrwt>
</event>
<event>
 4    1  0.8645356E-007  0.1529876E+04  0.7818608E-02  0.8888822E-01
          2   -1    0    0  501    0  0.00000000000E+00  0.00000000000E+00  0.26398622700E+04  0.26398622700E+04  0.25500000000E-02 0. -1.
         -2   -1    0    0    0  501 -0.00000000000E+00 -0.00000000000E+00 -0.12822166535E+04  0.12822166535E+04  0.25500000000E-02 0.  1.
    8880023    1    1    2    0    0 -0.13312117619E+04 -0.36686043618E+03  0.18923817878E+04  0.24334400283E+04  0.65864270000E+03 0.  0.
    8880022    1    1    2    0    0  0.13312117619E+04  0.36686043618E+03 -0.53473617128E+03  0.14886388952E+04  0.15294330000E+03 0.  0.
<mgrwt>
<rscale>  0 0.14934470E+04</rscale>
<asrwt>0</asrwt>
<pdfrwt beam="1">  1        2 0.40613266E+00 0.15298763E+04</pdfrwt>
<pdfrwt beam="2">  1       -2 0.19726410E+00 0.15298763E+04</pdfrwt>
<totfact> 0.37459889E-01</totfact>
</mgrwt>
</event>
<event>
 4    1  0.8645356E-007  0.6777839E+03  0.7818608E-02  0.1010606E+00
         -2   -1    0    0    0  501 -0.00000000000E+00  0.00000000000E+00  0.10208277261E+03  0.10208277265E+03  0.25500000000E-02 0.  1.
          2   -1    0    0  501    0  0.00000000000E+00 -0.00000000000E+00 -0.21424401195E+04  0.21424401195E+04  0.25500000000E-02 0. -1.
    8880023    1    1    2    0    0 -0.91299305108E+02 -0.13132118456E+03 -0.12287702391E+04  0.14033058553E+04  0.65864270000E+03 0.  1.
    8880022    1    1    2    0    0  0.91299305108E+02  0.13132118456E+03 -0.81158710777E+03  0.84121703689E+03  0.15294330000E+03 0.  0.
<mgrwt>
<rscale>  0 0.51234493E+03</rscale>
<asrwt>0</asrwt>
<pdfrwt beam="1">  1        2 0.32960614E+00 0.67778391E+03</pdfrwt>
<pdfrwt beam="2">  1       -2 0.15705044E-01 0.67778391E+03</pdfrwt>
<totfact> 0.18658018E+02</totfact>
</mgrwt>
</event>
<event>
 4    1  0.8645356E-007  0.7490650E+03  0.7818608E-02  0.9834287E-01
         -2   -1    0    0    0  501 -0.00000000000E+00  0.00000000000E+00  0.49886710728E+03  0.49886710728E+03  0.25500000000E-02 0.  1.
          2   -1    0    0  501    0  0.00000000000E+00 -0.00000000000E+00 -0.14343079444E+04  0.14343079444E+04  0.25500000000E-02 0. -1.
    8880023    1    1    2    0    0 -0.25836244352E+03 -0.24604267225E+03  0.16435661428E+03  0.76688424922E+03  0.65864270000E+03 0.  1.
    8880022    1    1    2    0    0  0.25836244352E+03  0.24604267225E+03 -0.10997974514E+04  0.11662908025E+04  0.15294330000E+03 0.  0.
<mgrwt>
<rscale>  0 0.63554529E+03</rscale>
<asrwt>0</asrwt>
<pdfrwt beam="1">  1        2 0.22066276E+00 0.74906499E+03</pdfrwt>
<pdfrwt beam="2">  1       -2 0.76748786E-01 0.74906499E+03</pdfrwt>
<totfact> 0.21461801E+01</totfact>
</mgrwt>
</event>
<event>
 4    1  0.8645356E-007  0.7296343E+03  0.7818608E-02  0.9891240E-01
          2   -1    0    0  501    0  0.00000000000E+00  0.00000000000E+00  0.21971649147E+04  0.21971649147E+04  0.25500000000E-02 0. -1.
         -2   -1    0    0    0  501 -0.00000000000E+00 -0.00000000000E+00 -0.17690240365E+03  0.17690240367E+03  0.25500000000E-02 0.  1.
    8880023    1    1    2    0    0 -0.67837617028E+02  0.30651933054E+03  0.71000884236E+03  0.10180760309E+04  0.65864270000E+03 0.  1.
    8880022    1    1    2    0    0  0.67837617028E+02 -0.30651933054E+03  0.13102536687E+04  0.13559912874E+04  0.15294330000E+03 0.  0.
<mgrwt>
<rscale>  0 0.60687695E+03</rscale>
<asrwt>0</asrwt>
<pdfrwt beam="1">  1        2 0.33802537E+00 0.72963433E+03</pdfrwt>
<pdfrwt beam="2">  1       -2 0.27215755E-01 0.72963433E+03</pdfrwt>
<totfact> 0.65848157E+01</totfact>
</mgrwt>
</event>
<event>
 4    1  0.8645356E-007  0.6644697E+03  0.7818608E-02  0.1019983E+00
          2   -1    0    0  501    0  0.00000000000E+00  0.00000000000E+00  0.24725401208E+04  0.24725401208E+04  0.25500000000E-02 0. -1.
         -2   -1    0    0    0  501 -0.00000000000E+00 -0.00000000000E+00 -0.47055995143E+03  0.47055995143E+03  0.25500000000E-02 0.  1.
    8880023    1    1    2    0    0  0.66870046431E+02 -0.56905049652E+02 -0.23076517765E+03  0.70340071173E+03  0.65864270000E+03 0.  0.
    8880022    1    1    2    0    0 -0.66870046431E+02  0.56905049652E+02  0.22327453470E+04  0.22396993605E+04  0.15294330000E+03 0. -1.
<mgrwt>
<rscale>  0 0.47692925E+03</rscale>
<asrwt>0</asrwt>
<pdfrwt beam="1">  1        2 0.38039079E+00 0.66446971E+03</pdfrwt>
<pdfrwt beam="2">  1       -2 0.72393838E-01 0.66446971E+03</pdfrwt>
<totfact> 0.66429430E+00</totfact>
</mgrwt>
</event>
<event>
 4    1  0.8645356E-007  0.7480210E+03  0.7818608E-02  0.9837170E-01
          2   -1    0    0  501    0  0.00000000000E+00  0.00000000000E+00  0.97331531292E+03  0.97331531293E+03  0.25500000000E-02 0. -1.
         -2   -1    0    0    0  501 -0.00000000000E+00 -0.00000000000E+00 -0.11859735268E+04  0.11859735268E+04  0.25500000000E-02 0.  1.
    8880023    1    1    2    0    0 -0.55054553185E+02  0.35027730437E+03 -0.10196858594E+04  0.12646322200E+04  0.65864270000E+03 0.  0.
    8880022    1    1    2    0    0  0.55054553185E+02 -0.35027730437E+03  0.80702764545E+03  0.89465661978E+03  0.15294330000E+03 0. -1.
<mgrwt>
<rscale>  0 0.63405390E+03</rscale>
<asrwt>0</asrwt>
<pdfrwt beam="1">  1        2 0.14974082E+00 0.74802099E+03</pdfrwt>
<pdfrwt beam="2">  1       -2 0.18245746E+00 0.74802099E+03</pdfrwt>
<totfact> 0.46699032E+00</totfact>
</mgrwt>
</event>
<event>
 4    1  0.8645356E-007  0.8115718E+03  0.7818608E-02  0.9686312E-01
         -2   -1    0    0    0  501 -0.00000000000E+00  0.00000000000E+00  0.57238730063E+03  0.57238730064E+03  0.25500000000E-02 0.  1.
          2   -1    0    0  501    0  0.00000000000E+00 -0.00000000000E+00 -0.14133534354E+04  0.14133534354E+04  0.25500000000E-02 0. -1.
    8880023    1    1    2    0    0 -0.46526076675E+03  0.91493386012E+02  0.19634262022E+03  0.83498458162E+03  0.65864270000E+03 0.  1.
    8880022    1    1    2    0    0  0.46526076675E+03 -0.91493386012E+02 -0.10373087550E+04  0.11507561545E+04  0.15294330000E+03 0.  0.
<mgrwt>
<rscale>  0 0.71837641E+03</rscale>
<asrwt>0</asrwt>
<pdfrwt beam="1">  1        2 0.21743899E+00 0.81157182E+03</pdfrwt>
<pdfrwt beam="2">  1       -2 0.88059585E-01 0.81157182E+03</pdfrwt>
<totfact> 0.16040680E+01</totfact>
</mgrwt>
</event>
<event>
 4    1  0.8645356E-007  0.8977209E+03  0.7818608E-02  0.9529700E-01
         -2   -1    0    0    0  501 -0.00000000000E+00  0.00000000000E+00  0.62939001213E+03  0.62939001213E+03  0.25500000000E-02 0.  1.
          2   -1    0    0  501    0  0.00000000000E+00 -0.00000000000E+00 -0.19476524520E+04  0.19476524520E+04  0.25500000000E-02 0. -1.
    8880023    1    1    2    0    0 -0.98699512265E+02  0.60195597135E+03  0.21215946774E+03  0.92245023236E+03  0.65864270000E+03 0.  1.
    8880022    1    1    2    0    0  0.98699512265E+02 -0.60195597135E+03 -0.15304219076E+04  0.16545922318E+04  0.15294330000E+03 0. -1.
<mgrwt>
<rscale>  0 0.82129115E+03</rscale>
<asrwt>0</asrwt>
<pdfrwt beam="1">  1        2 0.29963884E+00 0.89772089E+03</pdfrwt>
<pdfrwt beam="2">  1       -2 0.96829233E-01 0.89772089E+03</pdfrwt>
<totfact> 0.64490798E+00</totfact>
</mgrwt>
</event>
<event>
 4    1  0.8645356E-007  0.7439327E+03  0.7818608E-02  0.9848636E-01
          2   -1    0    0  501    0  0.00000000000E+00  0.00000000000E+00  0.18118255974E+04  0.18118255974E+04  0.25500000000E-02 0. -1.
         -2   -1    0    0    0  501 -0.00000000000E+00 -0.00000000000E+00 -0.25880098185E+03  0.25880098186E+03  0.25500000000E-02 0.  1.
    8880023    1    1    2    0    0  0.34437973843E+03  0.32067080402E+02  0.37443301614E+03  0.83284812045E+03  0.65864270000E+03 0.  1.
    8880022    1    1    2    0    0 -0.34437973843E+03 -0.32067080402E+02  0.11785915994E+04  0.12377784588E+04  0.15294330000E+03 0.  0.
<mgrwt>
<rscale>  0 0.62816516E+03</rscale>
<asrwt>0</asrwt>
<pdfrwt beam="1">  1        2 0.27874239E+00 0.74393273E+03</pdfrwt>
<pdfrwt beam="2">  1       -2 0.39815537E-01 0.74393273E+03</pdfrwt>
<totfact> 0.52098461E+01</totfact>
</mgrwt>
</event>
<event>
 4    1  0.8645356E-007  0.6737306E+03  0.7818608E-02  0.1013119E+00
         -2   -1    0    0    0  501 -0.00000000000E+00  0.00000000000E+00  0.30181490615E+03  0.30181490616E+03  0.25500000000E-02 0.  1.
          2   -1    0    0  501    0  0.00000000000E+00 -0.00000000000E+00 -0.21310999411E+04  0.21310999411E+04  0.25500000000E-02 0. -1.
    8880023    1    1    2    0    0 -0.60988343799E+02  0.12799639737E+03 -0.88310734391E+02  0.67949367024E+03  0.65864270000E+03 0.  1.
    8880022    1    1    2    0    0  0.60988343799E+02 -0.12799639737E+03 -0.17409743006E+04  0.17534211771E+04  0.15294330000E+03 0.  0.
<mgrwt>
<rscale>  0 0.50253780E+03</rscale>
<asrwt>0</asrwt>
<pdfrwt beam="1">  1        2 0.32786152E+00 0.67373056E+03</pdfrwt>
<pdfrwt beam="2">  1       -2 0.46433064E-01 0.67373056E+03</pdfrwt>
<totfact> 0.26001987E+01</totfact>
</mgrwt>
</event>
<event>
 4    1  0.8645356E-007  0.7253923E+03  0.7818608E-02  0.9904745E-01
          2   -1    0    0  501    0  0.00000000000E+00  0.00000000000E+00  0.80202841559E+03  0.80202841559E+03  0.25500000000E-02 0. -1.
         -2   -1    0    0    0  501 -0.00000000000E+00 -0.00000000000E+00 -0.70129069858E+03  0.70129069859E+03  0.25500000000E-02 0.  1.
    8880023    1    1    2    0    0  0.21041638645E+03 -0.21933709135E+03 -0.45167784282E+03  0.85452144226E+03  0.65864270000E+03 0.  0.
    8880022    1    1    2    0    0 -0.21041638645E+03  0.21933709135E+03  0.55241555983E+03  0.64879767191E+03  0.15294330000E+03 0.  0.
<mgrwt>
<rscale>  0 0.60031858E+03</rscale>
<asrwt>0</asrwt>
<pdfrwt beam="1">  1        2 0.12338899E+00 0.72539232E+03</pdfrwt>
<pdfrwt beam="2">  1       -2 0.10789088E+00 0.72539232E+03</pdfrwt>
<totfact> 0.24033916E+01</totfact>
</mgrwt>
</event>
<event>
 4    1  0.8645356E-007  0.6845966E+03  0.7818608E-02  0.1006835E+00
          2   -1    0    0  501    0  0.00000000000E+00  0.00000000000E+00  0.10678015443E+04  0.10678015443E+04  0.25500000000E-02 0. -1.
         -2   -1    0    0    0  501 -0.00000000000E+00 -0.00000000000E+00 -0.41860079694E+03  0.41860079694E+03  0.25500000000E-02 0.  1.
    8880023    1    1    2    0    0 -0.13328814278E+03 -0.13075360940E+03 -0.10673810605E+03  0.69286756666E+03  0.65864270000E+03 0.  0.
    8880022    1    1    2    0    0  0.13328814278E+03  0.13075360940E+03  0.75593885345E+03  0.79353477463E+03  0.15294330000E+03 0.  0.
<mgrwt>
<rscale>  0 0.52752330E+03</rscale>
<asrwt>0</asrwt>
<pdfrwt beam="1">  1        2 0.16427716E+00 0.68459655E+03</pdfrwt>
<pdfrwt beam="2">  1       -2 0.64400124E-01 0.68459655E+03</pdfrwt>
<totfact> 0.51942784E+01</totfact>
</mgrwt>
</event>
<event>
 4    1  0.1303192E-006  0.7840727E+03  0.7818608E-02  0.9746356E-01
          2   -1    0    0  501    0  0.00000000000E+00  0.00000000000E+00  0.15424327522E+04  0.15424327522E+04  0.25500000000E-02 0. -1.
         -2   -1    0    0    0  501 -0.00000000000E+00 -0.00000000000E+00 -0.16976964587E+04  0.16976964587E+04  0.25500000000E-02 0.  1.
    8880023    1    1    2    0    0 -0.10081946855E+03 -0.41327383510E+03 -0.15700143818E+04  0.17549117338E+04  0.65864270000E+03 0.  1.
    8880022    1    1    2    0    0  0.10081946855E+03  0.41327383510E+03  0.14147506753E+04  0.14852174771E+04  0.15294330000E+03 0.  0.
<mgrwt>
<rscale>  0 0.68322615E+03</rscale>
<asrwt>0</asrwt>
<pdfrwt beam="1">  1        2 0.23729735E+00 0.78407272E+03</pdfrwt>
<pdfrwt beam="2">  1       -2 0.26118407E+00 0.78407272E+03</pdfrwt>
<totfact> 0.68459545E-01</totfact>
</mgrwt>
</event>
<event>
 4    1  0.8645356E-007  0.6845300E+03  0.7818608E-02  0.1006869E+00
         -2   -1    0    0    0  501 -0.00000000000E+00  0.00000000000E+00  0.84695571200E+02  0.84695571239E+02  0.25500000000E-02 0.  1.
          2   -1    0    0  501    0  0.00000000000E+00 -0.00000000000E+00 -0.29155777991E+04  0.29155777991E+04  0.25500000000E-02 0. -1.
    8880023    1    1    2    0    0 -0.81230235053E+02  0.16784754207E+03 -0.15149527879E+04  0.16624269320E+04  0.65864270000E+03 0.  0.
    8880022    1    1    2    0    0  0.81230235053E+02 -0.16784754207E+03 -0.13159294400E+04  0.13378464383E+04  0.15294330000E+03 0.  0.
<mgrwt>
<rscale>  0 0.52738168E+03</rscale>
<asrwt>0</asrwt>
<pdfrwt beam="1">  1        2 0.44855035E+00 0.68453002E+03</pdfrwt>
<pdfrwt beam="2">  1       -2 0.13030090E-01 0.68453002E+03</pdfrwt>
<totfact> 0.92565146E+01</totfact>
</mgrwt>
</event>
<event>
 4    1  0.8645356E-007  0.6805999E+03  0.7818608E-02  0.1008986E+00
          2   -1    0    0  501    0  0.00000000000E+00  0.00000000000E+00  0.23577353327E+04  0.23577353327E+04  0.25500000000E-02 0. -1.
         -2   -1    0    0    0  501 -0.00000000000E+00 -0.00000000000E+00 -0.20865782728E+03  0.20865782729E+03  0.25500000000E-02 0.  1.
    8880023    1    1    2    0    0  0.16107578841E+03 -0.58826534121E+02  0.37416582423E+03  0.77666996917E+03  0.65864270000E+03 0.  1.
    8880022    1    1    2    0    0 -0.16107578841E+03  0.58826534121E+02  0.17749116812E+04  0.17897231908E+04  0.15294330000E+03 0.  0.
<mgrwt>
<rscale>  0 0.51879489E+03</rscale>
<asrwt>0</asrwt>
<pdfrwt beam="1">  1        2 0.36272851E+00 0.68059987E+03</pdfrwt>
<pdfrwt beam="2">  1       -2 0.32101205E-01 0.68059987E+03</pdfrwt>
<totfact> 0.39802760E+01</totfact>
</mgrwt>
</event>
<event>
 4    1  0.8645356E-007  0.7368072E+03  0.7818608E-02  0.9869347E-01
         -2   -1    0    0    0  501 -0.00000000000E+00  0.00000000000E+00  0.36420406901E+03  0.36420406902E+03  0.25500000000E-02 0.  1.
          2   -1    0    0  501    0  0.00000000000E+00 -0.00000000000E+00 -0.12806982613E+04  0.12806982613E+04  0.25500000000E-02 0. -1.
    8880023    1    1    2    0    0 -0.29475301908E+03 -0.14898069145E+03 -0.90584953537E+02  0.74235465160E+03  0.65864270000E+03 0.  0.
    8880022    1    1    2    0    0  0.29475301908E+03  0.14898069145E+03 -0.82590923871E+03  0.90254767867E+03  0.15294330000E+03 0.  1.
<mgrwt>
<rscale>  0 0.61770132E+03</rscale>
<asrwt>0</asrwt>
<pdfrwt beam="1">  1        2 0.19703050E+00 0.73680716E+03</pdfrwt>
<pdfrwt beam="2">  1       -2 0.56031396E-01 0.73680716E+03</pdfrwt>
<totfact> 0.51755939E+01</totfact>
</mgrwt>
</event>
<event>
 4    1  0.8645356E-007  0.1206068E+04  0.7818608E-02  0.9151246E-01
         -2   -1    0    0    0  501 -0.00000000000E+00  0.00000000000E+00  0.14321461715E+04  0.14321461715E+04  0.25500000000E-02 0.  1.
          2   -1    0    0  501    0  0.00000000000E+00 -0.00000000000E+00 -0.12102184778E+04  0.12102184778E+04  0.25500000000E-02 0. -1.
    8880023    1    1    2    0    0  0.35780939874E+03 -0.94486093460E+03  0.81993830240E+03  0.14583891036E+04  0.65864270000E+03 0.  0.
    8880022    1    1    2    0    0 -0.35780939874E+03  0.94486093460E+03 -0.59801060867E+03  0.11839755456E+04  0.15294330000E+03 0.  0.
<mgrwt>
<rscale>  0 0.11571132E+04</rscale>
<asrwt>0</asrwt>
<pdfrwt beam="1">  1        2 0.18618746E+00 0.12060680E+04</pdfrwt>
<pdfrwt beam="2">  1       -2 0.22033018E+00 0.12060680E+04</pdfrwt>
<totfact> 0.17831397E+00</totfact>
</mgrwt>
</event>
<event>
 4    1  0.8645356E-007  0.7582994E+03  0.7818608E-02  0.9809530E-01
         -2   -1    0    0    0  501 -0.00000000000E+00  0.00000000000E+00  0.49436183714E+03  0.49436183714E+03  0.25500000000E-02 0.  1.
          2   -1    0    0  501    0  0.00000000000E+00 -0.00000000000E+00 -0.25049695945E+04  0.25049695945E+04  0.25500000000E-02 0. -1.
    8880023    1    1    2    0    0  0.19380134530E+03 -0.32194529354E+03  0.17347294253E+03  0.77788868196E+03  0.65864270000E+03 0.  1.
    8880022    1    1    2    0    0 -0.19380134530E+03  0.32194529354E+03 -0.21840806998E+04  0.22214427496E+04  0.15294330000E+03 0.  0.
<mgrwt>
<rscale>  0 0.64853594E+03</rscale>
<asrwt>0</asrwt>
<pdfrwt beam="1">  1        2 0.38537993E+00 0.75829937E+03</pdfrwt>
<pdfrwt beam="2">  1       -2 0.76055669E-01 0.75829937E+03</pdfrwt>
<totfact> 0.56116176E+00</totfact>
</mgrwt>
</event>
<event>
 4    1  0.8645356E-007  0.6980511E+03  0.7818608E-02  0.1000538E+00
          2   -1    0    0  501    0  0.00000000000E+00  0.00000000000E+00  0.11761076827E+04  0.11761076827E+04  0.25500000000E-02 0. -1.
         -2   -1    0    0    0  501 -0.00000000000E+00 -0.00000000000E+00 -0.25297092436E+03  0.25297092437E+03  0.25500000000E-02 0.  1.
    8880023    1    1    2    0    0  0.22642574473E+03 -0.46867553226E+02  0.32537561635E+03  0.77015886894E+03  0.65864270000E+03 0.  0.
    8880022    1    1    2    0    0 -0.22642574473E+03  0.46867553226E+02  0.59776114201E+03  0.65891973815E+03  0.15294330000E+03 0.  0.
<mgrwt>
<rscale>  0 0.55414797E+03</rscale>
<asrwt>0</asrwt>
<pdfrwt beam="1">  1        2 0.18093964E+00 0.69805114E+03</pdfrwt>
<pdfrwt beam="2">  1       -2 0.38918604E-01 0.69805114E+03</pdfrwt>
<totfact> 0.12434975E+02</totfact>
</mgrwt>
</event>
<event>
 4    1  0.8645356E-007  0.6615122E+03  0.7818608E-02  0.1022658E+00
         -2   -1    0    0    0  501 -0.00000000000E+00  0.00000000000E+00  0.50833317047E+03  0.50833317047E+03  0.25500000000E-02 0.  1.
          2   -1    0    0  501    0  0.00000000000E+00 -0.00000000000E+00 -0.41435505885E+03  0.41435505886E+03  0.25500000000E-02 0. -1.
    8880023    1    1    2    0    0  0.52530471432E+02  0.32073516210E+02  0.23875488019E+03  0.70327964562E+03  0.65864270000E+03 0.  1.
    8880022    1    1    2    0    0 -0.52530471432E+02 -0.32073516210E+02 -0.14477676857E+03  0.21940858371E+03  0.15294330000E+03 0.  0.
<mgrwt>
<rscale>  0 0.46739514E+03</rscale>
<asrwt>0</asrwt>
<pdfrwt beam="1">  1        2 0.63746932E-01 0.66151218E+03</pdfrwt>
<pdfrwt beam="2">  1       -2 0.78205103E-01 0.66151218E+03</pdfrwt>
<totfact> 0.11279829E+02</totfact>
</mgrwt>
</event>
<event>
 4    1  0.9515248E-007  0.7116878E+03  0.7818608E-02  0.9951786E-01
         -2   -1    0    0    0  501 -0.00000000000E+00  0.00000000000E+00  0.71058322571E+03  0.71058322571E+03  0.25500000000E-02 0.  1.
          2   -1    0    0  501    0  0.00000000000E+00 -0.00000000000E+00 -0.17017950051E+04  0.17017950051E+04  0.25500000000E-02 0. -1.
    8880023    1    1    2    0    0  0.62700439312E+02  0.26221753352E+03  0.51252273708E+03  0.87702858691E+03  0.65864270000E+03 0.  1.
    8880022    1    1    2    0    0 -0.62700439312E+02 -0.26221753352E+03 -0.15037345165E+04  0.15353496439E+04  0.15294330000E+03 0.  0.
<mgrwt>
<rscale>  0 0.57815844E+03</rscale>
<asrwt>0</asrwt>
<pdfrwt beam="1">  1        2 0.26181462E+00 0.71168784E+03</pdfrwt>
<pdfrwt beam="2">  1       -2 0.10932050E+00 0.71168784E+03</pdfrwt>
<totfact> 0.67549830E+00</totfact>
</mgrwt>
</event>
<event>
 4    1  0.8645356E-007  0.9349729E+03  0.7818608E-02  0.9472073E-01
          2   -1    0    0  501    0  0.00000000000E+00  0.00000000000E+00  0.30334167771E+04  0.30334167771E+04  0.25500000000E-02 0. -1.
         -2   -1    0    0    0  501 -0.00000000000E+00 -0.00000000000E+00 -0.43382050417E+03  0.43382050418E+03  0.25500000000E-02 0.  1.
    8880023    1    1    2    0    0 -0.54191368940E+03  0.38300615740E+03  0.17807384962E+03  0.95177973584E+03  0.65864270000E+03 0.  1.
    8880022    1    1    2    0    0  0.54191368940E+03 -0.38300615740E+03  0.24215224233E+04  0.25154575455E+04  0.15294330000E+03 0.  0.
<mgrwt>
<rscale>  0 0.86374480E+03</rscale>
<asrwt>0</asrwt>
<pdfrwt beam="1">  1        2 0.46667951E+00 0.93497292E+03</pdfrwt>
<pdfrwt beam="2">  1       -2 0.66741616E-01 0.93497292E+03</pdfrwt>
<totfact> 0.35348096E+00</totfact>
</mgrwt>
</event>
<event>
 4    1  0.8645356E-007  0.6693502E+03  0.7818608E-02  0.1016133E+00
         -2   -1    0    0    0  501 -0.00000000000E+00  0.00000000000E+00  0.15247679145E+03  0.15247679147E+03  0.25500000000E-02 0.  1.
          2   -1    0    0  501    0  0.00000000000E+00 -0.00000000000E+00 -0.12219313059E+04  0.12219313059E+04  0.25500000000E-02 0. -1.
    8880023    1    1    2    0    0 -0.11923154776E+03  0.18196016990E+01 -0.82830703506E+03  0.10649517470E+04  0.65864270000E+03 0.  1.
    8880022    1    1    2    0    0  0.11923154776E+03 -0.18196016990E+01 -0.24114747943E+03  0.30945635036E+03  0.15294330000E+03 0. -1.
<mgrwt>
<rscale>  0 0.49108264E+03</rscale>
<asrwt>0</asrwt>
<pdfrwt beam="1">  1        2 0.18798942E+00 0.66935019E+03</pdfrwt>
<pdfrwt beam="2">  1       -2 0.23457969E-01 0.66935019E+03</pdfrwt>
<totfact> 0.29983154E+02</totfact>
</mgrwt>
</event>
<event>
 4    1  0.8645356E-007  0.6773697E+03  0.7818608E-02  0.1010852E+00
         -2   -1    0    0    0  501 -0.00000000000E+00  0.00000000000E+00  0.34259766975E+03  0.34259766976E+03  0.25500000000E-02 0.  1.
          2   -1    0    0  501    0  0.00000000000E+00 -0.00000000000E+00 -0.14418561873E+04  0.14418561873E+04  0.25500000000E-02 0. -1.
    8880023    1    1    2    0    0  0.13468750341E+03 -0.82938699369E+02 -0.14415451934E+02  0.67752310879E+03  0.65864270000E+03 0.  1.
    8880022    1    1    2    0    0 -0.13468750341E+03  0.82938699369E+02 -0.10848430656E+04  0.11069307482E+04  0.15294330000E+03 0.  0.
<mgrwt>
<rscale>  0 0.51137274E+03</rscale>
<asrwt>0</asrwt>
<pdfrwt beam="1">  1        2 0.22182403E+00 0.67736973E+03</pdfrwt>
<pdfrwt beam="2">  1       -2 0.52707335E-01 0.67736973E+03</pdfrwt>
<totfact> 0.47865456E+01</totfact>
</mgrwt>
</event>
<event>
 4    1  0.8645356E-007  0.7708252E+03  0.7818608E-02  0.9777848E-01
          2   -1    0    0  501    0  0.00000000000E+00  0.00000000000E+00  0.40070390805E+04  0.40070390805E+04  0.25500000000E-02 0. -1.
         -2   -1    0    0    0  501 -0.00000000000E+00 -0.00000000000E+00 -0.16806859101E+03  0.16806859103E+03  0.25500000000E-02 0.  1.
    8880023    1    1    2    0    0 -0.38816934996E+02  0.39856551781E+03  0.81833673380E+03  0.11242092521E+04  0.65864270000E+03 0.  0.
    8880022    1    1    2    0    0  0.38816934996E+02 -0.39856551781E+03  0.30206337557E+04  0.30508984194E+04  0.15294330000E+03 0.  0.
<mgrwt>
<rscale>  0 0.66565038E+03</rscale>
<asrwt>0</asrwt>
<pdfrwt beam="1">  1        2 0.61646761E+00 0.77082516E+03</pdfrwt>
<pdfrwt beam="2">  1       -2 0.25856704E-01 0.77082516E+03</pdfrwt>
<totfact> 0.50067465E+00</totfact>
</mgrwt>
</event>
<event>
 4    1  0.8645356E-007  0.7905638E+03  0.7818608E-02  0.9731583E-01
          2   -1    0    0  501    0  0.00000000000E+00  0.00000000000E+00  0.17250871897E+04  0.17250871897E+04  0.25500000000E-02 0. -1.
         -2   -1    0    0    0  501 -0.00000000000E+00 -0.00000000000E+00 -0.39861063926E+03  0.39861063927E+03  0.25500000000E-02 0.  1.
    8880023    1    1    2    0    0 -0.75843335531E+02 -0.43061432879E+03  0.80800010070E+02  0.79468217521E+03  0.65864270000E+03 0.  0.
    8880022    1    1    2    0    0  0.75843335531E+02  0.43061432879E+03  0.12456765404E+04  0.13290156538E+04  0.15294330000E+03 0.  0.
<mgrwt>
<rscale>  0 0.69167084E+03</rscale>
<asrwt>0</asrwt>
<pdfrwt beam="1">  1        2 0.26539802E+00 0.79056380E+03</pdfrwt>
<pdfrwt beam="2">  1       -2 0.61324715E-01 0.79056380E+03</pdfrwt>
<totfact> 0.24016205E+01</totfact>
</mgrwt>
</event>
<event>
 4    1  0.8645356E-007  0.1043992E+04  0.7818608E-02  0.9326139E-01
          2   -1    0    0  501    0  0.00000000000E+00  0.00000000000E+00  0.36131871203E+04  0.36131871203E+04  0.25500000000E-02 0. -1.
         -2   -1    0    0    0  501 -0.00000000000E+00 -0.00000000000E+00 -0.38848066644E+03  0.38848066645E+03  0.25500000000E-02 0.  1.
    8880023    1    1    2    0    0 -0.22227075402E+03 -0.77891289671E+03  0.50487293421E+03  0.11596622244E+04  0.65864270000E+03 0.  0.
    8880022    1    1    2    0    0  0.22227075402E+03  0.77891289671E+03  0.27198335197E+04  0.28420055624E+04  0.15294330000E+03 0.  0.
<mgrwt>
<rscale>  0 0.98411700E+03</rscale>
<asrwt>0</asrwt>
<pdfrwt beam="1">  1        2 0.55587495E+00 0.10439922E+04</pdfrwt>
<pdfrwt beam="2">  1       -2 0.59766256E-01 0.10439922E+04</pdfrwt>
<totfact> 0.18218034E+00</totfact>
</mgrwt>
</event>
<event>
 4    1  0.8645356E-007  0.1001070E+04  0.7818608E-02  0.9380159E-01
          2   -1    0    0  501    0  0.00000000000E+00  0.00000000000E+00  0.23966927315E+04  0.23966927315E+04  0.25500000000E-02 0. -1.
         -2   -1    0    0    0  501 -0.00000000000E+00 -0.00000000000E+00 -0.53095567992E+03  0.53095567993E+03  0.25500000000E-02 0.  1.
    8880023    1    1    2    0    0  0.69782585465E+03 -0.28525451543E+03  0.10543058051E+03  0.10066066141E+04  0.65864270000E+03 0.  0.
    8880022    1    1    2    0    0 -0.69782585465E+03  0.28525451543E+03  0.17603064711E+04  0.19210417973E+04  0.15294330000E+03 0.  0.
<mgrwt>
<rscale>  0 0.93726659E+03</rscale>
<asrwt>0</asrwt>
<pdfrwt beam="1">  1        2 0.36872196E+00 0.10010701E+04</pdfrwt>
<pdfrwt beam="2">  1       -2 0.81685490E-01 0.10010701E+04</pdfrwt>
<totfact> 0.53082339E+00</totfact>
</mgrwt>
</event>
<event>
 4    1  0.8645356E-007  0.1149627E+04  0.7818608E-02  0.9207715E-01
          2   -1    0    0  501    0  0.00000000000E+00  0.00000000000E+00  0.39236184451E+04  0.39236184451E+04  0.25500000000E-02 0. -1.
         -2   -1    0    0    0  501 -0.00000000000E+00 -0.00000000000E+00 -0.63097388474E+03  0.63097388474E+03  0.25500000000E-02 0.  1.
    8880023    1    1    2    0    0 -0.19262277483E+03  0.92234951081E+03  0.24497134212E+02  0.11498880247E+04  0.65864270000E+03 0.  1.
    8880022    1    1    2    0    0  0.19262277483E+03 -0.92234951081E+03  0.32681474262E+04  0.34047043052E+04  0.15294330000E+03 0.  0.
<mgrwt>
<rscale>  0 0.10974149E+04</rscale>
<asrwt>0</asrwt>
<pdfrwt beam="1">  1        2 0.60363361E+00 0.11496271E+04</pdfrwt>
<pdfrwt beam="2">  1       -2 0.97072906E-01 0.11496271E+04</pdfrwt>
<totfact> 0.35601822E-01</totfact>
</mgrwt>
</event>
<event>
 4    1  0.8645356E-007  0.1543817E+04  0.7818608E-02  0.8879299E-01
         -2   -1    0    0    0  501 -0.00000000000E+00  0.00000000000E+00  0.98057227389E+03  0.98057227389E+03  0.25500000000E-02 0.  1.
          2   -1    0    0  501    0  0.00000000000E+00 -0.00000000000E+00 -0.22289143239E+04  0.22289143239E+04  0.25500000000E-02 0. -1.
    8880023    1    1    2    0    0  0.10805779210E+04 -0.88425766004E+03 -0.53324872284E+03  0.16333170725E+04  0.65864270000E+03 0. -1.
    8880022    1    1    2    0    0 -0.10805779210E+04  0.88425766004E+03 -0.71509332721E+03  0.15761695253E+04  0.15294330000E+03 0.  1.
<mgrwt>
<rscale>  0 0.15077745E+04</rscale>
<asrwt>0</asrwt>
<pdfrwt beam="1">  1        2 0.34290989E+00 0.15438168E+04</pdfrwt>
<pdfrwt beam="2">  1       -2 0.15085727E+00 0.15438168E+04</pdfrwt>
<totfact> 0.13802904E+00</totfact>
</mgrwt>
</event>
<event>
 4    1  0.8645356E-007  0.6631158E+03  0.7818608E-02  0.1021169E+00
          2   -1    0    0  501    0  0.00000000000E+00  0.00000000000E+00  0.52941481951E+03  0.52941481951E+03  0.25500000000E-02 0. -1.
         -2   -1    0    0    0  501 -0.00000000000E+00 -0.00000000000E+00 -0.36285540930E+03  0.36285540931E+03  0.25500000000E-02 0.  1.
    8880023    1    1    2    0    0 -0.58404991637E+02 -0.50012188891E+02  0.24106616480E+03  0.70557456315E+03  0.65864270000E+03 0.  0.
    8880022    1    1    2    0    0  0.58404991637E+02  0.50012188891E+02 -0.74506754591E+02  0.18669566567E+03  0.15294330000E+03 0.  0.
<mgrwt>
<rscale>  0 0.47266988E+03</rscale>
<asrwt>0</asrwt>
<pdfrwt beam="1">  1        2 0.81448434E-01 0.66311580E+03</pdfrwt>
<pdfrwt beam="2">  1       -2 0.55823909E-01 0.66311580E+03</pdfrwt>
<totfact> 0.17600772E+02</totfact>
</mgrwt>
</event>
<event>
 4    1  0.8645356E-007  0.7722206E+03  0.7818608E-02  0.9774439E-01
         -2   -1    0    0    0  501 -0.00000000000E+00  0.00000000000E+00  0.32243487641E+03  0.32243487642E+03  0.25500000000E-02 0.  1.
          2   -1    0    0  501    0  0.00000000000E+00 -0.00000000000E+00 -0.24246606920E+04  0.24246606920E+04  0.25500000000E-02 0. -1.
    8880023    1    1    2    0    0 -0.39163929217E+03 -0.95567560606E+02 -0.20149699008E+03  0.79807627272E+03  0.65864270000E+03 0.  1.
    8880022    1    1    2    0    0  0.39163929217E+03  0.95567560606E+02 -0.19007288255E+04  0.19490192957E+04  0.15294330000E+03 0.  0.
<mgrwt>
<rscale>  0 0.66752536E+03</rscale>
<asrwt>0</asrwt>
<pdfrwt beam="1">  1        2 0.37302471E+00 0.77222063E+03</pdfrwt>
<pdfrwt beam="2">  1       -2 0.49605367E-01 0.77222063E+03</pdfrwt>
<totfact> 0.15413295E+01</totfact>
</mgrwt>
</event>
<event>
 4    1  0.8645356E-007  0.6658278E+03  0.7818608E-02  0.1018849E+00
         -2   -1    0    0    0  501 -0.00000000000E+00  0.00000000000E+00  0.12827431850E+03  0.12827431853E+03  0.25500000000E-02 0.  1.
          2   -1    0    0  501    0  0.00000000000E+00 -0.00000000000E+00 -0.14628402116E+04  0.14628402116E+04  0.25500000000E-02 0. -1.
    8880023    1    1    2    0    0  0.94047875938E+02  0.25911079288E+02 -0.89432810996E+03  0.11149660809E+04  0.65864270000E+03 0.  1.
    8880022    1    1    2    0    0 -0.94047875938E+02 -0.25911079288E+02 -0.44023778316E+03  0.47614844927E+03  0.15294330000E+03 0.  0.
<mgrwt>
<rscale>  0 0.48104330E+03</rscale>
<asrwt>0</asrwt>
<pdfrwt beam="1">  1        2 0.22505233E+00 0.66582775E+03</pdfrwt>
<pdfrwt beam="2">  1       -2 0.19734512E-01 0.66582775E+03</pdfrwt>
<totfact> 0.29652508E+02</totfact>
</mgrwt>
</event>
<event>
 4    1  0.8645356E-007  0.7091984E+03  0.7818608E-02  0.9960990E-01
          2   -1    0    0  501    0  0.00000000000E+00  0.00000000000E+00  0.77229360918E+03  0.77229360918E+03  0.25500000000E-02 0. -1.
         -2   -1    0    0    0  501 -0.00000000000E+00 -0.00000000000E+00 -0.56911612228E+03  0.56911612228E+03  0.25500000000E-02 0.  1.
    8880023    1    1    2    0    0  0.25010960590E+03  0.81224337813E+02 -0.28653980655E+03  0.76489703557E+03  0.65864270000E+03 0.  1.
    8880022    1    1    2    0    0 -0.25010960590E+03 -0.81224337813E+02  0.48971729345E+03  0.57651269590E+03  0.15294330000E+03 0.  0.
<mgrwt>
<rscale>  0 0.57394368E+03</rscale>
<asrwt>0</asrwt>
<pdfrwt beam="1">  1        2 0.11881440E+00 0.70919843E+03</pdfrwt>
<pdfrwt beam="2">  1       -2 0.87556327E-01 0.70919843E+03</pdfrwt>
<totfact> 0.41333269E+01</totfact>
</mgrwt>
</event>
<event>
 4    1  0.8645356E-007  0.7151736E+03  0.7818608E-02  0.9939269E-01
         -2   -1    0    0    0  501 -0.00000000000E+00  0.00000000000E+00  0.41209232572E+03  0.41209232572E+03  0.25500000000E-02 0.  1.
          2   -1    0    0  501    0  0.00000000000E+00 -0.00000000000E+00 -0.75971747150E+03  0.75971747151E+03  0.25500000000E-02 0. -1.
    8880023    1    1    2    0    0 -0.26504231459E+03 -0.86113845871E+02 -0.20208986795E+02  0.71545903613E+03  0.65864270000E+03 0.  1.
    8880022    1    1    2    0    0  0.26504231459E+03  0.86113845871E+02 -0.32741615899E+03  0.45635076110E+03  0.15294330000E+03 0.  0.
<mgrwt>
<rscale>  0 0.58395333E+03</rscale>
<asrwt>0</asrwt>
<pdfrwt beam="1">  1        2 0.11687961E+00 0.71517357E+03</pdfrwt>
<pdfrwt beam="2">  1       -2 0.63398819E-01 0.71517357E+03</pdfrwt>
<totfact> 0.86202091E+01</totfact>
</mgrwt>
</event>
<event>
 4    1  0.8645356E-007  0.7001516E+03  0.7818608E-02  0.9996573E-01
         -2   -1    0    0    0  501 -0.00000000000E+00  0.00000000000E+00  0.54018593942E+03  0.54018593942E+03  0.25500000000E-02 0.  1.
          2   -1    0    0  501    0  0.00000000000E+00 -0.00000000000E+00 -0.21461883911E+04  0.21461883911E+04  0.25500000000E-02 0. -1.
    8880023    1    1    2    0    0  0.22899203389E+03 -0.62965796400E+02  0.29843485883E+03  0.76110157951E+03  0.65864270000E+03 0.  1.
    8880022    1    1    2    0    0 -0.22899203389E+03  0.62965796400E+02 -0.19044373105E+04  0.19252727510E+04  0.15294330000E+03 0.  0.
<mgrwt>
<rscale>  0 0.55800762E+03</rscale>
<asrwt>0</asrwt>
<pdfrwt beam="1">  1        2 0.33018282E+00 0.70015159E+03</pdfrwt>
<pdfrwt beam="2">  1       -2 0.83105531E-01 0.70015159E+03</pdfrwt>
<totfact> 0.73594853E+00</totfact>
</mgrwt>
</event>
<event>
 4    1  0.8645356E-007  0.7271055E+03  0.7818608E-02  0.9899238E-01
          2   -1    0    0  501    0  0.00000000000E+00  0.00000000000E+00  0.18891112283E+04  0.18891112283E+04  0.25500000000E-02 0. -1.
         -2   -1    0    0    0  501 -0.00000000000E+00 -0.00000000000E+00 -0.21437812358E+03  0.21437812359E+03  0.25500000000E-02 0.  1.
    8880023    1    1    2    0    0 -0.86695168496E+02 -0.29556069038E+03  0.50763066458E+03  0.88677577314E+03  0.65864270000E+03 0.  1.
    8880022    1    1    2    0    0  0.86695168496E+02  0.29556069038E+03  0.11671024401E+04  0.12167135788E+04  0.15294330000E+03 0.  0.
<mgrwt>
<rscale>  0 0.60298229E+03</rscale>
<asrwt>0</asrwt>
<pdfrwt beam="1">  1        2 0.29063249E+00 0.72710548E+03</pdfrwt>
<pdfrwt beam="2">  1       -2 0.32981250E-01 0.72710548E+03</pdfrwt>
<totfact> 0.67956652E+01</totfact>
</mgrwt>
</event>
<event>
 4    1  0.8645356E-007  0.7232519E+03  0.7818608E-02  0.9911732E-01
         -2   -1    0    0    0  501 -0.00000000000E+00  0.00000000000E+00  0.52385836279E+03  0.52385836280E+03  0.25500000000E-02 0.  1.
          2   -1    0    0  501    0  0.00000000000E+00 -0.00000000000E+00 -0.59710486342E+03  0.59710486343E+03  0.25500000000E-02 0. -1.
    8880023    1    1    2    0    0 -0.12060553461E+03  0.27338144847E+03  0.12075475827E+03  0.73326327418E+03  0.65864270000E+03 0.  0.
    8880022    1    1    2    0    0  0.12060553461E+03 -0.27338144847E+03 -0.19400125890E+03  0.38769995205E+03  0.15294330000E+03 0.  0.
<mgrwt>
<rscale>  0 0.59696040E+03</rscale>
<asrwt>0</asrwt>
<pdfrwt beam="1">  1        2 0.91862287E-01 0.72325190E+03</pdfrwt>
<pdfrwt beam="2">  1       -2 0.80593594E-01 0.72325190E+03</pdfrwt>
<totfact> 0.68752276E+01</totfact>
</mgrwt>
</event>
<event>
 4    1  0.1334953E-006  0.7032640E+03  0.7818608E-02  0.9983921E-01
         -2   -1    0    0    0  501 -0.00000000000E+00  0.00000000000E+00  0.98005239376E+03  0.98005239376E+03  0.25500000000E-02 0.  1.
          2   -1    0    0  501    0  0.00000000000E+00 -0.00000000000E+00 -0.13943978386E+04  0.13943978386E+04  0.25500000000E-02 0. -1.
    8880023    1    1    2    0    0 -0.94740501851E+02  0.22758356950E+03  0.83509565000E+03  0.10917714938E+04  0.65864270000E+03 0.  1.
    8880022    1    1    2    0    0  0.94740501851E+02 -0.22758356950E+03 -0.12494410948E+04  0.12826787385E+04  0.15294330000E+03 0.  0.
<mgrwt>
<rscale>  0 0.56360923E+03</rscale>
<asrwt>0</asrwt>
<pdfrwt beam="1">  1        2 0.21452275E+00 0.70326400E+03</pdfrwt>
<pdfrwt beam="2">  1       -2 0.15077729E+00 0.70326400E+03</pdfrwt>
<totfact> 0.44467611E+00</totfact>
</mgrwt>
</event>
<event>
 4    1  0.8645356E-007  0.8438478E+03  0.7818608E-02  0.9622967E-01
          2   -1    0    0  501    0  0.00000000000E+00  0.00000000000E+00  0.12698304373E+04  0.12698304373E+04  0.25500000000E-02 0. -1.
         -2   -1    0    0    0  501 -0.00000000000E+00 -0.00000000000E+00 -0.11966428166E+04  0.11966428166E+04  0.25500000000E-02 0.  1.
    8880023    1    1    2    0    0 -0.43016450171E+03 -0.30533173517E+03  0.10492579890E+04  0.13464848684E+04  0.65864270000E+03 0. -1.
    8880022    1    1    2    0    0  0.43016450171E+03  0.30533173517E+03 -0.97607036823E+03  0.11199883856E+04  0.15294330000E+03 0.  0.
<mgrwt>
<rscale>  0 0.75794542E+03</rscale>
<asrwt>0</asrwt>
<pdfrwt beam="1">  1        2 0.19535853E+00 0.84384784E+03</pdfrwt>
<pdfrwt beam="2">  1       -2 0.18409890E+00 0.84384784E+03</pdfrwt>
<totfact> 0.29602610E+00</totfact>
</mgrwt>
</event>
<event>
 4    1  0.8645356E-007  0.7571197E+03  0.7818608E-02  0.9812622E-01
          2   -1    0    0  501    0  0.00000000000E+00  0.00000000000E+00  0.45514280786E+03  0.45514280787E+03  0.25500000000E-02 0. -1.
         -2   -1    0    0    0  501 -0.00000000000E+00 -0.00000000000E+00 -0.79613584334E+03  0.79613584335E+03  0.25500000000E-02 0.  1.
    8880023    1    1    2    0    0 -0.13150107762E+03  0.34946749478E+03 -0.37772182225E+03  0.84611113016E+03  0.65864270000E+03 0.  0.
    8880022    1    1    2    0    0  0.13150107762E+03 -0.34946749478E+03  0.36728786771E+02  0.40516752105E+03  0.15294330000E+03 0. -1.
<mgrwt>
<rscale>  0 0.64689549E+03</rscale>
<asrwt>0</asrwt>
<pdfrwt beam="1">  1        2 0.70021970E-01 0.75711972E+03</pdfrwt>
<pdfrwt beam="2">  1       -2 0.12248244E+00 0.75711972E+03</pdfrwt>
<totfact> 0.35031872E+01</totfact>
</mgrwt>
</event>
<event>
 4    1  0.8645356E-007  0.8671875E+03  0.7818608E-02  0.9580904E-01
         -2   -1    0    0    0  501 -0.00000000000E+00  0.00000000000E+00  0.56773402016E+03  0.56773402017E+03  0.25500000000E-02 0.  1.
          2   -1    0    0  501    0  0.00000000000E+00 -0.00000000000E+00 -0.13753865466E+04  0.13753865466E+04  0.25500000000E-02 0. -1.
    8880023    1    1    2    0    0  0.39544744813E+03  0.40227510232E+03  0.90126510211E+02  0.87185832352E+03  0.65864270000E+03 0.  0.
    8880022    1    1    2    0    0 -0.39544744813E+03 -0.40227510232E+03 -0.89777903669E+03  0.10712622433E+04  0.15294330000E+03 0.  0.
<mgrwt>
<rscale>  0 0.78573082E+03</rscale>
<asrwt>0</asrwt>
<pdfrwt beam="1">  1        2 0.21159793E+00 0.86718749E+03</pdfrwt>
<pdfrwt beam="2">  1       -2 0.87343696E-01 0.86718749E+03</pdfrwt>
<totfact> 0.17072330E+01</totfact>
</mgrwt>
</event>
<event>
 4    1  0.8645356E-007  0.1216406E+04  0.7818608E-02  0.9141337E-01
          2   -1    0    0  501    0  0.00000000000E+00  0.00000000000E+00  0.29092377428E+04  0.29092377429E+04  0.25500000000E-02 0. -1.
         -2   -1    0    0    0  501 -0.00000000000E+00 -0.00000000000E+00 -0.81040697312E+03  0.81040697312E+03  0.25500000000E-02 0.  1.
    8880023    1    1    2    0    0 -0.75991900640E+03  0.68436659292E+03 -0.16814941811E+03  0.12279735188E+04  0.65864270000E+03 0.  0.
    8880022    1    1    2    0    0  0.75991900640E+03 -0.68436659292E+03  0.22669801878E+04  0.24916711972E+04  0.15294330000E+03 0.  0.
<mgrwt>
<rscale>  0 0.11679997E+04</rscale>
<asrwt>0</asrwt>
<pdfrwt beam="1">  1        2 0.44757504E+00 0.12164065E+04</pdfrwt>
<pdfrwt beam="2">  1       -2 0.12467799E+00 0.12164065E+04</pdfrwt>
<totfact> 0.94133249E-01</totfact>
</mgrwt>
</event>
<event>
 4    1  0.8645356E-007  0.7761869E+03  0.7818608E-02  0.9764872E-01
         -2   -1    0    0    0  501 -0.00000000000E+00  0.00000000000E+00  0.23918605391E+03  0.23918605393E+03  0.25500000000E-02 0.  1.
          2   -1    0    0  501    0  0.00000000000E+00 -0.00000000000E+00 -0.20006898675E+04  0.20006898675E+04  0.25500000000E-02 0. -1.
    8880023    1    1    2    0    0  0.26441550404E+03 -0.31422963350E+03 -0.54930776323E+03  0.95089696937E+03  0.65864270000E+03 0.  0.
    8880022    1    1    2    0    0 -0.26441550404E+03  0.31422963350E+03 -0.12121960503E+04  0.12889789520E+04  0.15294330000E+03 0.  0.
<mgrwt>
<rscale>  0 0.67282293E+03</rscale>
<asrwt>0</asrwt>
<pdfrwt beam="1">  1        2 0.30779843E+00 0.77618685E+03</pdfrwt>
<pdfrwt beam="2">  1       -2 0.36797856E-01 0.77618685E+03</pdfrwt>
<totfact> 0.47692306E+01</totfact>
</mgrwt>
</event>
<event>
 4    1  0.8645356E-007  0.8941193E+03  0.7818608E-02  0.9535539E-01
          2   -1    0    0  501    0  0.00000000000E+00  0.00000000000E+00  0.17149363850E+04  0.17149363850E+04  0.25500000000E-02 0. -1.
         -2   -1    0    0    0  501 -0.00000000000E+00 -0.00000000000E+00 -0.53390748182E+03  0.53390748182E+03  0.25500000000E-02 0.  1.
    8880023    1    1    2    0    0  0.59221898560E+03 -0.12213010977E+03 -0.21286193355E+02  0.89437262867E+03  0.65864270000E+03 0.  0.
    8880022    1    1    2    0    0 -0.59221898560E+03  0.12213010977E+03  0.12023150966E+04  0.13544712382E+04  0.15294330000E+03 0.  0.
<mgrwt>
<rscale>  0 0.81713646E+03</rscale>
<asrwt>0</asrwt>
<pdfrwt beam="1">  1        2 0.26383637E+00 0.89411929E+03</pdfrwt>
<pdfrwt beam="2">  1       -2 0.82139613E-01 0.89411929E+03</pdfrwt>
<totfact> 0.12657564E+01</totfact>
</mgrwt>
</event>
<event>
 4    1  0.8645356E-007  0.6768922E+03  0.7818608E-02  0.1011139E+00
          2   -1    0    0  501    0  0.00000000000E+00  0.00000000000E+00  0.13637119499E+04  0.13637119499E+04  0.25500000000E-02 0. -1.
         -2   -1    0    0    0  501 -0.00000000000E+00 -0.00000000000E+00 -0.17464392225E+03  0.17464392226E+03  0.25500000000E-02 0.  1.
    8880023    1    1    2    0    0  0.10368552664E+03 -0.11671424827E+03  0.58044878914E+03  0.89168599140E+03  0.65864270000E+03 0.  0.
    8880022    1    1    2    0    0 -0.10368552664E+03  0.11671424827E+03  0.60861923851E+03  0.64666988076E+03  0.15294330000E+03 0.  0.
<mgrwt>
<rscale>  0 0.51024396E+03</rscale>
<asrwt>0</asrwt>
<pdfrwt beam="1">  1        2 0.20980184E+00 0.67689224E+03</pdfrwt>
<pdfrwt beam="2">  1       -2 0.26868296E-01 0.67689224E+03</pdfrwt>
<totfact> 0.19442769E+02</totfact>
</mgrwt>
</event>
<event>
 4    1  0.8645356E-007  0.6865824E+03  0.7818608E-02  0.1005821E+00
          2   -1    0    0  501    0  0.00000000000E+00  0.00000000000E+00  0.24848134897E+04  0.24848134897E+04  0.25500000000E-02 0. -1.
         -2   -1    0    0    0  501 -0.00000000000E+00 -0.00000000000E+00 -0.12855761274E+03  0.12855761277E+03  0.25500000000E-02 0.  1.
    8880023    1    1    2    0    0  0.74382990582E+02 -0.17903160690E+03  0.87771459935E+03  0.11143510532E+04  0.65864270000E+03 0.  1.
    8880022    1    1    2    0    0 -0.74382990582E+02  0.17903160690E+03  0.14785412776E+04  0.14990200493E+04  0.15294330000E+03 0.  0.
<mgrwt>
<rscale>  0 0.53169804E+03</rscale>
<asrwt>0</asrwt>
<pdfrwt beam="1">  1        2 0.38227896E+00 0.68658237E+03</pdfrwt>
<pdfrwt beam="2">  1       -2 0.19778096E-01 0.68658237E+03</pdfrwt>
<totfact> 0.80934568E+01</totfact>
</mgrwt>
</event>
<event>
 4    1  0.8645356E-007  0.1266059E+04  0.7818608E-02  0.9095439E-01
          2   -1    0    0  501    0  0.00000000000E+00  0.00000000000E+00  0.20407528060E+04  0.20407528060E+04  0.25500000000E-02 0. -1.
         -2   -1    0    0    0  501 -0.00000000000E+00 -0.00000000000E+00 -0.89400467855E+03  0.89400467855E+03  0.25500000000E-02 0.  1.
    8880023    1    1    2    0    0 -0.16393837977E+03 -0.10687464841E+04 -0.10884145499E+03  0.12707287312E+04  0.65864270000E+03 0. -1.
    8880022    1    1    2    0    0  0.16393837977E+03  0.10687464841E+04  0.12555895824E+04  0.16640287534E+04  0.15294330000E+03 0.  0.
<mgrwt>
<rscale>  0 0.12201047E+04</rscale>
<asrwt>0</asrwt>
<pdfrwt beam="1">  1        2 0.31396197E+00 0.12660589E+04</pdfrwt>
<pdfrwt beam="2">  1       -2 0.13753918E+00 0.12660589E+04</pdfrwt>
<totfact> 0.23076572E+00</totfact>
</mgrwt>
</event>
<event>
 4    1  0.8645356E-007  0.9339474E+03  0.7818608E-02  0.9473596E-01
          2   -1    0    0  501    0  0.00000000000E+00  0.00000000000E+00  0.36764781222E+03  0.36764781223E+03  0.25500000000E-02 0. -1.
         -2   -1    0    0    0  501 -0.00000000000E+00 -0.00000000000E+00 -0.45998865803E+04  0.45998865803E+04  0.25500000000E-02 0.  1.
    8880023    1    1    2    0    0 -0.87465473636E+02 -0.65635159866E+03 -0.41831893128E+04  0.42861790284E+04  0.65864270000E+03 0.  1.
    8880022    1    1    2    0    0  0.87465473636E+02  0.65635159866E+03 -0.49049455234E+02  0.68135536412E+03  0.15294330000E+03 0.  0.
<mgrwt>
<rscale>  0 0.86258756E+03</rscale>
<asrwt>0</asrwt>
<pdfrwt beam="1">  1        2 0.56561205E-01 0.93394745E+03</pdfrwt>
<pdfrwt beam="2">  1       -2 0.70767482E+00 0.93394745E+03</pdfrwt>
<totfact> 0.19213758E-02</totfact>
</mgrwt>
</event>
<event>
 4    1  0.8645356E-007  0.7021512E+03  0.7818608E-02  0.9988391E-01
         -2   -1    0    0    0  501 -0.00000000000E+00  0.00000000000E+00  0.33800364293E+03  0.33800364294E+03  0.25500000000E-02 0.  1.
          2   -1    0    0  501    0  0.00000000000E+00 -0.00000000000E+00 -0.13481167504E+04  0.13481167504E+04  0.25500000000E-02 0. -1.
    8880023    1    1    2    0    0  0.53048403417E+02  0.23746996342E+03 -0.73010090457E+02  0.70593682168E+03  0.65864270000E+03 0.  1.
    8880022    1    1    2    0    0 -0.53048403417E+02 -0.23746996342E+03 -0.93710301699E+03  0.98018357163E+03  0.15294330000E+03 0.  0.
<mgrwt>
<rscale>  0 0.56162189E+03</rscale>
<asrwt>0</asrwt>
<pdfrwt beam="1">  1        2 0.20740257E+00 0.70215121E+03</pdfrwt>
<pdfrwt beam="2">  1       -2 0.52000561E-01 0.70215121E+03</pdfrwt>
<totfact> 0.55432621E+01</totfact>
</mgrwt>
</event>
<event>
 4    1  0.8645356E-007  0.6818028E+03  0.7818608E-02  0.1008322E+00
         -2   -1    0    0    0  501 -0.00000000000E+00  0.00000000000E+00  0.33186133308E+03  0.33186133309E+03  0.25500000000E-02 0.  1.
          2   -1    0    0  501    0  0.00000000000E+00 -0.00000000000E+00 -0.10144208563E+04  0.10144208563E+04  0.25500000000E-02 0. -1.
    8880023    1    1    2    0    0 -0.71435688235E+02 -0.16106455133E+03 -0.63545668851E+02  0.68475769842E+03  0.65864270000E+03 0.  1.
    8880022    1    1    2    0    0  0.71435688235E+02  0.16106455133E+03 -0.61901385432E+03  0.66152449093E+03  0.15294330000E+03 0.  0.
<mgrwt>
<rscale>  0 0.52147124E+03</rscale>
<asrwt>0</asrwt>
<pdfrwt beam="1">  1        2 0.15606475E+00 0.68180280E+03</pdfrwt>
<pdfrwt beam="2">  1       -2 0.51055590E-01 0.68180280E+03</pdfrwt>
<totfact> 0.91148736E+01</totfact>
</mgrwt>
</event>
<event>
 4    1  0.8645356E-007  0.6909639E+03  0.7818608E-02  0.1003698E+00
          2   -1    0    0  501    0  0.00000000000E+00  0.00000000000E+00  0.12386737141E+04  0.12386737141E+04  0.25500000000E-02 0. -1.
         -2   -1    0    0    0  501 -0.00000000000E+00 -0.00000000000E+00 -0.18943522953E+03  0.18943522955E+03  0.25500000000E-02 0.  1.
    8880023    1    1    2    0    0 -0.51720184504E+02  0.20235099721E+03  0.62813815761E+03  0.93380332772E+03  0.65864270000E+03 0.  0.
    8880022    1    1    2    0    0  0.51720184504E+02 -0.20235099721E+03  0.42110032691E+03  0.49430561588E+03  0.15294330000E+03 0.  1.
<mgrwt>
<rscale>  0 0.54058133E+03</rscale>
<asrwt>0</asrwt>
<pdfrwt beam="1">  1        2 0.19056518E+00 0.69096390E+03</pdfrwt>
<pdfrwt beam="2">  1       -2 0.29143882E-01 0.69096390E+03</pdfrwt>
<totfact> 0.19745262E+02</totfact>
</mgrwt>
</event>
<event>
 4    1  0.8645356E-007  0.7308191E+03  0.7818608E-02  0.9887546E-01
         -2   -1    0    0    0  501 -0.00000000000E+00  0.00000000000E+00  0.11165237628E+04  0.11165237628E+04  0.25500000000E-02 0.  1.
          2   -1    0    0  501    0  0.00000000000E+00 -0.00000000000E+00 -0.45318854279E+03  0.45318854280E+03  0.25500000000E-02 0. -1.
    8880023    1    1    2    0    0  0.31648355624E+03 -0.11155327307E+02  0.88977987851E+03  0.11514359388E+04  0.65864270000E+03 0.  1.
    8880022    1    1    2    0    0 -0.31648355624E+03  0.11155327307E+02 -0.22644465846E+03  0.41827636684E+03  0.15294330000E+03 0.  0.
<mgrwt>
<rscale>  0 0.60868686E+03</rscale>
<asrwt>0</asrwt>
<pdfrwt beam="1">  1        2 0.69721316E-01 0.73081905E+03</pdfrwt>
<pdfrwt beam="2">  1       -2 0.17177288E+00 0.73081905E+03</pdfrwt>
<totfact> 0.14528003E+01</totfact>
</mgrwt>
</event>
<event>
 4    1  0.8645356E-007  0.8803115E+03  0.7818608E-02  0.9558407E-01
         -2   -1    0    0    0  501 -0.00000000000E+00  0.00000000000E+00  0.17038031532E+04  0.17038031532E+04  0.25500000000E-02 0.  1.
          2   -1    0    0  501    0  0.00000000000E+00 -0.00000000000E+00 -0.42441405070E+03  0.42441405071E+03  0.25500000000E-02 0. -1.
    8880023    1    1    2    0    0 -0.55190901041E+03  0.19114007114E+03  0.12432709636E+04  0.15233748645E+04  0.65864270000E+03 0. -1.
    8880022    1    1    2    0    0  0.55190901041E+03 -0.19114007114E+03  0.36118138891E+02  0.60484233941E+03  0.15294330000E+03 0.  1.
<mgrwt>
<rscale>  0 0.80111321E+03</rscale>
<asrwt>0</asrwt>
<pdfrwt beam="1">  1        2 0.65294470E-01 0.88031147E+03</pdfrwt>
<pdfrwt beam="2">  1       -2 0.26212356E+00 0.88031147E+03</pdfrwt>
<totfact> 0.40871556E+00</totfact>
</mgrwt>
</event>
<event>
 4    1  0.8645356E-007  0.6739834E+03  0.7818608E-02  0.1012955E+00
         -2   -1    0    0    0  501 -0.00000000000E+00  0.00000000000E+00  0.19439279361E+03  0.19439279363E+03  0.25500000000E-02 0.  1.
          2   -1    0    0  501    0  0.00000000000E+00 -0.00000000000E+00 -0.16370272602E+04  0.16370272602E+04  0.25500000000E-02 0. -1.
    8880023    1    1    2    0    0  0.88915445900E+01  0.14270379695E+03 -0.43478774069E+03  0.80205611958E+03  0.65864270000E+03 0.  1.
    8880022    1    1    2    0    0 -0.88915445900E+01 -0.14270379695E+03 -0.10078467258E+04  0.10293639342E+04  0.15294330000E+03 0.  0.
<mgrwt>
<rscale>  0 0.50316988E+03</rscale>
<asrwt>0</asrwt>
<pdfrwt beam="1">  1        2 0.25185034E+00 0.67398341E+03</pdfrwt>
<pdfrwt beam="2">  1       -2 0.29906585E-01 0.67398341E+03</pdfrwt>
<totfact> 0.11260142E+02</totfact>
</mgrwt>
</event>
<event>
 4    1  0.8645356E-007  0.1089105E+04  0.7818608E-02  0.9273284E-01
          2   -1    0    0  501    0  0.00000000000E+00  0.00000000000E+00  0.11207834774E+04  0.11207834774E+04  0.25500000000E-02 0. -1.
         -2   -1    0    0    0  501 -0.00000000000E+00 -0.00000000000E+00 -0.96223220000E+03  0.96223220001E+03  0.25500000000E-02 0.  1.
    8880023    1    1    2    0    0  0.85792500882E+03 -0.12769196475E+03 -0.24166256015E+03  0.11155947104E+04  0.65864270000E+03 0.  0.
    8880022    1    1    2    0    0 -0.85792500882E+03  0.12769196475E+03  0.40021383753E+03  0.96742096700E+03  0.15294330000E+03 0.  1.
<mgrwt>
<rscale>  0 0.10328005E+04</rscale>
<asrwt>0</asrwt>
<pdfrwt beam="1">  1        2 0.17242823E+00 0.10891055E+04</pdfrwt>
<pdfrwt beam="2">  1       -2 0.14803572E+00 0.10891055E+04</pdfrwt>
<totfact> 0.64517202E+00</totfact>
</mgrwt>
</event>
<event>
 4    1  0.8645356E-007  0.9199904E+03  0.7818608E-02  0.9494674E-01
         -2   -1    0    0    0  501 -0.00000000000E+00  0.00000000000E+00  0.83063441270E+03  0.83063441270E+03  0.25500000000E-02 0.  1.
          2   -1    0    0  501    0  0.00000000000E+00 -0.00000000000E+00 -0.86164828840E+03  0.86164828840E+03  0.25500000000E-02 0. -1.
    8880023    1    1    2    0    0 -0.13379526719E+03  0.62822847028E+03  0.28106919128E+03  0.96196792095E+03  0.65864270000E+03 0. -1.
    8880022    1    1    2    0    0  0.13379526719E+03 -0.62822847028E+03 -0.31208306698E+03  0.73031478015E+03  0.15294330000E+03 0.  1.
<mgrwt>
<rscale>  0 0.84677649E+03</rscale>
<asrwt>0</asrwt>
<pdfrwt beam="1">  1        2 0.13256127E+00 0.91999043E+03</pdfrwt>
<pdfrwt beam="2">  1       -2 0.12778991E+00 0.91999043E+03</pdfrwt>
<totfact> 0.14116953E+01</totfact>
</mgrwt>
</event>
<event>
 4    1  0.8645356E-007  0.9416876E+03  0.7818608E-02  0.9462176E-01
         -2   -1    0    0    0  501 -0.00000000000E+00  0.00000000000E+00  0.54059750260E+03  0.54059750260E+03  0.25500000000E-02 0.  1.
          2   -1    0    0  501    0  0.00000000000E+00 -0.00000000000E+00 -0.23724100508E+04  0.23724100508E+04  0.25500000000E-02 0. -1.
    8880023    1    1    2    0    0 -0.67134988144E+03  0.47484226579E+02  0.14615883435E+02  0.94180106466E+03  0.65864270000E+03 0.  1.
    8880022    1    1    2    0    0  0.67134988144E+03 -0.47484226579E+02 -0.18464284316E+04  0.19712064887E+04  0.15294330000E+03 0.  0.
<mgrwt>
<rscale>  0 0.87130806E+03</rscale>
<asrwt>0</asrwt>
<pdfrwt beam="1">  1        2 0.36498615E+00 0.94168765E+03</pdfrwt>
<pdfrwt beam="2">  1       -2 0.83168848E-01 0.94168765E+03</pdfrwt>
<totfact> 0.53007199E+00</totfact>
</mgrwt>
</event>
<event>
 4    1  0.8645356E-007  0.1359294E+04  0.7818608E-02  0.9015976E-01
         -2   -1    0    0    0  501 -0.00000000000E+00  0.00000000000E+00  0.10497330287E+04  0.10497330287E+04  0.25500000000E-02 0.  1.
          2   -1    0    0  501    0  0.00000000000E+00 -0.00000000000E+00 -0.34662391920E+04  0.34662391920E+04  0.25500000000E-02 0. -1.
    8880023    1    1    2    0    0 -0.81141245148E+03 -0.86918327386E+03  0.43132411815E+03  0.14260857026E+04  0.65864270000E+03 0.  0.
    8880022    1    1    2    0    0  0.81141245148E+03  0.86918327386E+03 -0.28478302815E+04  0.30898865181E+04  0.15294330000E+03 0.  0.
<mgrwt>
<rscale>  0 0.13172767E+04</rscale>
<asrwt>0</asrwt>
<pdfrwt beam="1">  1        2 0.53326756E+00 0.13592939E+04</pdfrwt>
<pdfrwt beam="2">  1       -2 0.16149739E+00 0.13592939E+04</pdfrwt>
<totfact> 0.20433179E-01</totfact>
</mgrwt>
</event>
<event>
 4    1  0.8645356E-007  0.1033691E+04  0.7818608E-02  0.9338749E-01
          2   -1    0    0  501    0  0.00000000000E+00  0.00000000000E+00  0.52929745767E+03  0.52929745768E+03  0.25500000000E-02 0. -1.
         -2   -1    0    0    0  501 -0.00000000000E+00 -0.00000000000E+00 -0.16484068633E+04  0.16484068633E+04  0.25500000000E-02 0.  1.
    8880023    1    1    2    0    0 -0.79375178088E+03 -0.68301837040E+02 -0.45540601521E+03  0.11295626922E+04  0.65864270000E+03 0. -1.
    8880022    1    1    2    0    0  0.79375178088E+03  0.68301837040E+02 -0.66370339044E+03  0.10481416288E+04  0.15294330000E+03 0.  1.
<mgrwt>
<rscale>  0 0.97292520E+03</rscale>
<asrwt>0</asrwt>
<pdfrwt beam="1">  1        2 0.81430379E-01 0.10336911E+04</pdfrwt>
<pdfrwt beam="2">  1       -2 0.25360105E+00 0.10336911E+04</pdfrwt>
<totfact> 0.35065105E+00</totfact>
</mgrwt>
</event>
<event>
 4    1  0.8645356E-007  0.7449823E+03  0.7818608E-02  0.9845664E-01
          2   -1    0    0  501    0  0.00000000000E+00  0.00000000000E+00  0.33911435197E+04  0.33911435197E+04  0.25500000000E-02 0. -1.
         -2   -1    0    0    0  501 -0.00000000000E+00 -0.00000000000E+00 -0.12490394681E+03  0.12490394683E+03  0.25500000000E-02 0.  1.
    8880023    1    1    2    0    0  0.33373644172E+03 -0.99037739506E+02  0.28770734946E+04  0.29719607309E+04  0.65864270000E+03 0. -1.
    8880022    1    1    2    0    0 -0.33373644172E+03  0.99037739506E+02  0.38916607823E+03  0.54408673559E+03  0.15294330000E+03 0. -1.
<mgrwt>
<rscale>  0 0.62968459E+03</rscale>
<asrwt>0</asrwt>
<pdfrwt beam="1">  1        2 0.52171432E+00 0.74498234E+03</pdfrwt>
<pdfrwt beam="2">  1       -2 0.19215994E-01 0.74498234E+03</pdfrwt>
<totfact> 0.23739569E+01</totfact>
</mgrwt>
</event>
<event>
 4    1  0.8645356E-007  0.8050585E+03  0.7818608E-02  0.9699963E-01
         -2   -1    0    0    0  501 -0.00000000000E+00  0.00000000000E+00  0.62786391608E+03  0.62786391608E+03  0.25500000000E-02 0.  1.
          2   -1    0    0  501    0  0.00000000000E+00 -0.00000000000E+00 -0.83559340436E+03  0.83559340436E+03  0.25500000000E-02 0. -1.
    8880023    1    1    2    0    0  0.45422844332E+03 -0.89361542419E+02  0.19814010140E+03  0.82908302964E+03  0.65864270000E+03 0.  1.
    8880022    1    1    2    0    0 -0.45422844332E+03  0.89361542419E+02 -0.40586958968E+03  0.63437429080E+03  0.15294330000E+03 0.  0.
<mgrwt>
<rscale>  0 0.71018969E+03</rscale>
<asrwt>0</asrwt>
<pdfrwt beam="1">  1        2 0.12855283E+00 0.80505849E+03</pdfrwt>
<pdfrwt beam="2">  1       -2 0.96594448E-01 0.80505849E+03</pdfrwt>
<totfact> 0.29399341E+01</totfact>
</mgrwt>
</event>
<event>
 4    1  0.8645356E-007  0.7530627E+03  0.7818608E-02  0.9823410E-01
         -2   -1    0    0    0  501 -0.00000000000E+00  0.00000000000E+00  0.11186716426E+04  0.11186716426E+04  0.25500000000E-02 0.  1.
          2   -1    0    0  501    0  0.00000000000E+00 -0.00000000000E+00 -0.10198792819E+04  0.10198792819E+04  0.25500000000E-02 0. -1.
    8880023    1    1    2    0    0 -0.33808829207E+03 -0.13780237443E+03  0.94261807200E+03  0.12064958448E+04  0.65864270000E+03 0.  1.
    8880022    1    1    2    0    0  0.33808829207E+03  0.13780237443E+03 -0.84382571131E+03  0.93205507977E+03  0.15294330000E+03 0.  0.
<mgrwt>
<rscale>  0 0.64121211E+03</rscale>
<asrwt>0</asrwt>
<pdfrwt beam="1">  1        2 0.15690451E+00 0.75306268E+03</pdfrwt>
<pdfrwt beam="2">  1       -2 0.17210333E+00 0.75306268E+03</pdfrwt>
<totfact> 0.51394151E+00</totfact>
</mgrwt>
</event>
<event>
 4    1  0.8645356E-007  0.6817399E+03  0.7818608E-02  0.1008356E+00
         -2   -1    0    0    0  501 -0.00000000000E+00  0.00000000000E+00  0.41130609268E+03  0.41130609269E+03  0.25500000000E-02 0.  1.
          2   -1    0    0  501    0  0.00000000000E+00 -0.00000000000E+00 -0.58523530657E+03  0.58523530658E+03  0.25500000000E-02 0. -1.
    8880023    1    1    2    0    0  0.57725565066E+02  0.16621327404E+03  0.36180561383E+02  0.68269929882E+03  0.65864270000E+03 0.  0.
    8880022    1    1    2    0    0 -0.57725565066E+02 -0.16621327404E+03 -0.21010977528E+03  0.31384210045E+03  0.15294330000E+03 0.  0.
<mgrwt>
<rscale>  0 0.52133241E+03</rscale>
<asrwt>0</asrwt>
<pdfrwt beam="1">  1        2 0.90036202E-01 0.68173991E+03</pdfrwt>
<pdfrwt beam="2">  1       -2 0.63277860E-01 0.68173991E+03</pdfrwt>
<totfact> 0.11996532E+02</totfact>
</mgrwt>
</event>
<event>
 4    1  0.8645356E-007  0.6645386E+03  0.7818608E-02  0.1019924E+00
         -2   -1    0    0    0  501 -0.00000000000E+00  0.00000000000E+00  0.35132993230E+03  0.35132993231E+03  0.25500000000E-02 0.  1.
          2   -1    0    0  501    0  0.00000000000E+00 -0.00000000000E+00 -0.10173238263E+04  0.10173238263E+04  0.25500000000E-02 0. -1.
    8880023    1    1    2    0    0 -0.39354339427E+02 -0.79073458130E+02  0.15425968144E+02  0.66471764123E+03  0.65864270000E+03 0.  1.
    8880022    1    1    2    0    0  0.39354339427E+02  0.79073458130E+02 -0.68141986216E+03  0.70393611740E+03  0.15294330000E+03 0.  0.
<mgrwt>
<rscale>  0 0.47714169E+03</rscale>
<asrwt>0</asrwt>
<pdfrwt beam="1">  1        2 0.15651136E+00 0.66453862E+03</pdfrwt>
<pdfrwt beam="2">  1       -2 0.54050759E-01 0.66453862E+03</pdfrwt>
<totfact> 0.80861745E+01</totfact>
</mgrwt>
</event>
<event>
 4    1  0.8645356E-007  0.7098242E+03  0.7818608E-02  0.9958655E-01
         -2   -1    0    0    0  501 -0.00000000000E+00  0.00000000000E+00  0.37643220936E+03  0.37643220937E+03  0.25500000000E-02 0.  1.
          2   -1    0    0  501    0  0.00000000000E+00 -0.00000000000E+00 -0.93249591787E+03  0.93249591788E+03  0.25500000000E-02 0. -1.
    8880023    1    1    2    0    0 -0.16859403960E+03 -0.20400043486E+03 -0.42265110565E+02  0.71108134095E+03  0.65864270000E+03 0.  1.
    8880022    1    1    2    0    0  0.16859403960E+03  0.20400043486E+03 -0.51379859795E+03  0.59784678629E+03  0.15294330000E+03 0.  0.
<mgrwt>
<rscale>  0 0.57500935E+03</rscale>
<asrwt>0</asrwt>
<pdfrwt beam="1">  1        2 0.14346091E+00 0.70982416E+03</pdfrwt>
<pdfrwt beam="2">  1       -2 0.57912648E-01 0.70982416E+03</pdfrwt>
<totfact> 0.79143764E+01</totfact>
</mgrwt>
</event>
<event>
 4    1  0.8645356E-007  0.8112609E+03  0.7818608E-02  0.9686956E-01
          2   -1    0    0  501    0  0.00000000000E+00  0.00000000000E+00  0.17004817195E+04  0.17004817195E+04  0.25500000000E-02 0. -1.
         -2   -1    0    0    0  501 -0.00000000000E+00 -0.00000000000E+00 -0.32909994678E+03  0.32909994679E+03  0.25500000000E-02 0.  1.
    8880023    1    1    2    0    0 -0.44270686468E+03 -0.16835888320E+03  0.33083702301E+03  0.87612637425E+03  0.65864270000E+03 0.  0.
    8880022    1    1    2    0    0  0.44270686468E+03  0.16835888320E+03  0.10405447497E+04  0.11534552920E+04  0.15294330000E+03 0.  0.
<mgrwt>
<rscale>  0 0.71798738E+03</rscale>
<asrwt>0</asrwt>
<pdfrwt beam="1">  1        2 0.26161258E+00 0.81126092E+03</pdfrwt>
<pdfrwt beam="2">  1       -2 0.50630760E-01 0.81126092E+03</pdfrwt>
<totfact> 0.36837772E+01</totfact>
</mgrwt>
</event>
<event>
 4    1  0.8645356E-007  0.7275589E+03  0.7818608E-02  0.9897793E-01
          2   -1    0    0  501    0  0.00000000000E+00  0.00000000000E+00  0.13862448821E+04  0.13862448821E+04  0.25500000000E-02 0. -1.
         -2   -1    0    0    0  501 -0.00000000000E+00 -0.00000000000E+00 -0.20740767358E+03  0.20740767359E+03  0.25500000000E-02 0.  1.
    8880023    1    1    2    0    0  0.86178355520E+02  0.29682482873E+03  0.79822621921E+03  0.10800495318E+04  0.65864270000E+03 0.  1.
    8880022    1    1    2    0    0 -0.86178355520E+02 -0.29682482873E+03  0.38061098931E+03  0.51360302385E+03  0.15294330000E+03 0.  1.
<mgrwt>
<rscale>  0 0.60368375E+03</rscale>
<asrwt>0</asrwt>
<pdfrwt beam="1">  1        2 0.21326844E+00 0.72755886E+03</pdfrwt>
<pdfrwt beam="2">  1       -2 0.31908873E-01 0.72755886E+03</pdfrwt>
<totfact> 0.13685823E+02</totfact>
</mgrwt>
</event>
<event>
 4    1  0.8645356E-007  0.7505111E+03  0.7818608E-02  0.9830323E-01
          2   -1    0    0  501    0  0.00000000000E+00  0.00000000000E+00  0.16264649233E+04  0.16264649233E+04  0.25500000000E-02 0. -1.
         -2   -1    0    0    0  501 -0.00000000000E+00 -0.00000000000E+00 -0.54552087751E+03  0.54552087752E+03  0.25500000000E-02 0.  1.
    8880023    1    1    2    0    0 -0.34222405224E+03  0.11108278772E+03 -0.24509206952E+03  0.78951695135E+03  0.65864270000E+03 0.  1.
    8880022    1    1    2    0    0  0.34222405224E+03 -0.11108278772E+03  0.13260361153E+04  0.13824688494E+04  0.15294330000E+03 0.  0.
<mgrwt>
<rscale>  0 0.63760311E+03</rscale>
<asrwt>0</asrwt>
<pdfrwt beam="1">  1        2 0.25022537E+00 0.75051109E+03</pdfrwt>
<pdfrwt beam="2">  1       -2 0.83926290E-01 0.75051109E+03</pdfrwt>
<totfact> 0.13725227E+01</totfact>
</mgrwt>
</event>
<event>
 4    1  0.8645356E-007  0.7375296E+03  0.7818608E-02  0.9867202E-01
          2   -1    0    0  501    0  0.00000000000E+00  0.00000000000E+00  0.83936139472E+03  0.83936139473E+03  0.25500000000E-02 0. -1.
         -2   -1    0    0    0  501 -0.00000000000E+00 -0.00000000000E+00 -0.64265327152E+03  0.64265327153E+03  0.25500000000E-02 0.  1.
    8880023    1    1    2    0    0  0.12660559389E+03 -0.30677471099E+03 -0.35637542122E+03  0.81911741944E+03  0.65864270000E+03 0.  1.
    8880022    1    1    2    0    0 -0.12660559389E+03  0.30677471099E+03  0.55308354442E+03  0.66289724682E+03  0.15294330000E+03 0.  0.
<mgrwt>
<rscale>  0 0.61877463E+03</rscale>
<asrwt>0</asrwt>
<pdfrwt beam="1">  1        2 0.12913252E+00 0.73752960E+03</pdfrwt>
<pdfrwt beam="2">  1       -2 0.98869735E-01 0.73752960E+03</pdfrwt>
<totfact> 0.27829194E+01</totfact>
</mgrwt>
</event>
<event>
 4    1  0.8645356E-007  0.6611273E+03  0.7818608E-02  0.1023030E+00
         -2   -1    0    0    0  501 -0.00000000000E+00  0.00000000000E+00  0.40079904742E+03  0.40079904743E+03  0.25500000000E-02 0.  1.
          2   -1    0    0  501    0  0.00000000000E+00 -0.00000000000E+00 -0.17810870810E+04  0.17810870810E+04  0.25500000000E-02 0. -1.
    8880023    1    1    2    0    0 -0.25236248653E+01  0.57207624414E+02  0.12068717729E+03  0.67205258872E+03  0.65864270000E+03 0.  1.
    8880022    1    1    2    0    0  0.25236248653E+01 -0.57207624414E+02 -0.15009752109E+04  0.15098335397E+04  0.15294330000E+03 0.  0.
<mgrwt>
<rscale>  0 0.46608828E+03</rscale>
<asrwt>0</asrwt>
<pdfrwt beam="1">  1        2 0.27401339E+00 0.66112729E+03</pdfrwt>
<pdfrwt beam="2">  1       -2 0.61661393E-01 0.66112729E+03</pdfrwt>
<totfact> 0.22509688E+01</totfact>
</mgrwt>
</event>
<event>
 4    1  0.8645356E-007  0.1155688E+04  0.7818608E-02  0.9201449E-01
          2   -1    0    0  501    0  0.00000000000E+00  0.00000000000E+00  0.24444405509E+04  0.24444405509E+04  0.25500000000E-02 0. -1.
         -2   -1    0    0    0  501 -0.00000000000E+00 -0.00000000000E+00 -0.12331270255E+04  0.12331270255E+04  0.25500000000E-02 0.  1.
    8880023    1    1    2    0    0  0.20647635820E+03  0.92691507807E+03 -0.82874467305E+03  0.14221223533E+04  0.65864270000E+03 0.  0.
    8880022    1    1    2    0    0 -0.20647635820E+03 -0.92691507807E+03  0.20400581984E+04  0.22554452231E+04  0.15294330000E+03 0.  0.
<mgrwt>
<rscale>  0 0.11038488E+04</rscale>
<asrwt>0</asrwt>
<pdfrwt beam="1">  1        2 0.37606777E+00 0.11556878E+04</pdfrwt>
<pdfrwt beam="2">  1       -2 0.18971185E+00 0.11556878E+04</pdfrwt>
<totfact> 0.57270993E-01</totfact>
</mgrwt>
</event>
<event>
 4    1  0.8645356E-007  0.7617381E+03  0.7818608E-02  0.9800628E-01
         -2   -1    0    0    0  501 -0.00000000000E+00  0.00000000000E+00  0.26026663138E+03  0.26026663139E+03  0.25500000000E-02 0.  1.
          2   -1    0    0  501    0  0.00000000000E+00 -0.00000000000E+00 -0.15082557213E+04  0.15082557213E+04  0.25500000000E-02 0. -1.
    8880023    1    1    2    0    0  0.36964278903E+03  0.98989700773E+02 -0.48993379950E+03  0.90569315251E+03  0.65864270000E+03 0.  1.
    8880022    1    1    2    0    0 -0.36964278903E+03 -0.98989700773E+02 -0.75805529044E+03  0.86282920020E+03  0.15294330000E+03 0.  0.
<mgrwt>
<rscale>  0 0.65328836E+03</rscale>
<asrwt>0</asrwt>
<pdfrwt beam="1">  1        2 0.23203934E+00 0.76173812E+03</pdfrwt>
<pdfrwt beam="2">  1       -2 0.40041021E-01 0.76173812E+03</pdfrwt>
<totfact> 0.75514351E+01</totfact>
</mgrwt>
</event>
<event>
 4    1  0.8645356E-007  0.8738485E+03  0.7818608E-02  0.9569389E-01
          2   -1    0    0  501    0  0.00000000000E+00  0.00000000000E+00  0.18773926088E+04  0.18773926088E+04  0.25500000000E-02 0. -1.
         -2   -1    0    0    0  501 -0.00000000000E+00 -0.00000000000E+00 -0.51431862470E+03  0.51431862471E+03  0.25500000000E-02 0.  1.
    8880023    1    1    2    0    0 -0.57110402297E+03  0.60342250775E+02  0.15408492250E+04  0.17713914115E+04  0.65864270000E+03 0. -1.
    8880022    1    1    2    0    0  0.57110402297E+03 -0.60342250775E+02 -0.17777524090E+03  0.62031982201E+03  0.15294330000E+03 0.  1.
<mgrwt>
<rscale>  0 0.79355780E+03</rscale>
<asrwt>0</asrwt>
<pdfrwt beam="1">  1        2 0.28882963E+00 0.87384850E+03</pdfrwt>
<pdfrwt beam="2">  1       -2 0.79125943E-01 0.87384850E+03</pdfrwt>
<totfact> 0.11244134E+01</totfact>
</mgrwt>
</event>
<event>
 4    1  0.8645356E-007  0.7250404E+03  0.7818608E-02  0.9905886E-01
          2   -1    0    0  501    0  0.00000000000E+00  0.00000000000E+00  0.14229719467E+04  0.14229719467E+04  0.25500000000E-02 0. -1.
         -2   -1    0    0    0  501 -0.00000000000E+00 -0.00000000000E+00 -0.22877510317E+03  0.22877510318E+03  0.25500000000E-02 0.  1.
    8880023    1    1    2    0    0  0.17060831108E+03  0.25053180752E+03  0.50534475692E+03  0.88377424266E+03  0.65864270000E+03 0.  1.
    8880022    1    1    2    0    0 -0.17060831108E+03 -0.25053180752E+03  0.68885208664E+03  0.76797280725E+03  0.15294330000E+03 0.  0.
<mgrwt>
<rscale>  0 0.59976878E+03</rscale>
<asrwt>0</asrwt>
<pdfrwt beam="1">  1        2 0.21891876E+00 0.72504040E+03</pdfrwt>
<pdfrwt beam="2">  1       -2 0.35196169E-01 0.72504040E+03</pdfrwt>
<totfact> 0.10843754E+02</totfact>
</mgrwt>
</event>
<event>
 4    1  0.9093278E-007  0.6715611E+03  0.7818608E-02  0.1014568E+00
          2   -1    0    0  501    0  0.00000000000E+00  0.00000000000E+00  0.15284441246E+04  0.15284441246E+04  0.25500000000E-02 0. -1.
         -2   -1    0    0    0  501 -0.00000000000E+00 -0.00000000000E+00 -0.49420730631E+03  0.49420730631E+03  0.25500000000E-02 0.  1.
    8880023    1    1    2    0    0  0.31888210571E+02 -0.12715045343E+03 -0.25457423927E+03  0.71819380765E+03  0.65864270000E+03 0.  1.
    8880022    1    1    2    0    0 -0.31888210571E+02  0.12715045343E+03  0.12888110575E+04  0.13044576232E+04  0.15294330000E+03 0.  0.
<mgrwt>
<rscale>  0 0.49698979E+03</rscale>
<asrwt>0</asrwt>
<pdfrwt beam="1">  1        2 0.23514525E+00 0.67156109E+03</pdfrwt>
<pdfrwt beam="2">  1       -2 0.76031894E-01 0.67156109E+03</pdfrwt>
<totfact> 0.19615045E+01</totfact>
</mgrwt>
</event>
<event>
 4    1  0.8645356E-007  0.6932668E+03  0.7818608E-02  0.1002637E+00
         -2   -1    0    0    0  501 -0.00000000000E+00  0.00000000000E+00  0.43281479802E+03  0.43281479803E+03  0.25500000000E-02 0.  1.
          2   -1    0    0  501    0  0.00000000000E+00 -0.00000000000E+00 -0.85960794839E+03  0.85960794839E+03  0.25500000000E-02 0. -1.
    8880023    1    1    2    0    0  0.10361432164E+03  0.18992818196E+03  0.10222560380E+03  0.70076309997E+03  0.65864270000E+03 0.  1.
    8880022    1    1    2    0    0 -0.10361432164E+03 -0.18992818196E+03 -0.52901875417E+03  0.59165964644E+03  0.15294330000E+03 0.  0.
<mgrwt>
<rscale>  0 0.54508931E+03</rscale>
<asrwt>0</asrwt>
<pdfrwt beam="1">  1        2 0.13224738E+00 0.69326679E+03</pdfrwt>
<pdfrwt beam="2">  1       -2 0.66586892E-01 0.69326679E+03</pdfrwt>
<totfact> 0.65953977E+01</totfact>
</mgrwt>
</event>
<event>
 4    1  0.8645356E-007  0.7018806E+03  0.7818608E-02  0.9989487E-01
         -2   -1    0    0    0  501 -0.00000000000E+00  0.00000000000E+00  0.40071712937E+03  0.40071712938E+03  0.25500000000E-02 0.  1.
          2   -1    0    0  501    0  0.00000000000E+00 -0.00000000000E+00 -0.16184466271E+04  0.16184466271E+04  0.25500000000E-02 0. -1.
    8880023    1    1    2    0    0  0.17640500763E+02  0.24189874128E+03  0.64899764496E+02  0.70487472220E+03  0.65864270000E+03 0.  1.
    8880022    1    1    2    0    0 -0.17640500763E+02 -0.24189874128E+03 -0.12826292622E+04  0.13142890343E+04  0.15294330000E+03 0.  0.
<mgrwt>
<rscale>  0 0.56113608E+03</rscale>
<asrwt>0</asrwt>
<pdfrwt beam="1">  1        2 0.24899179E+00 0.70188061E+03</pdfrwt>
<pdfrwt beam="2">  1       -2 0.61648790E-01 0.70188061E+03</pdfrwt>
<totfact> 0.27470866E+01</totfact>
</mgrwt>
</event>
<event>
 4    1  0.8645356E-007  0.8409149E+03  0.7818608E-02  0.9628458E-01
         -2   -1    0    0    0  501 -0.00000000000E+00  0.00000000000E+00  0.10324011806E+04  0.10324011806E+04  0.25500000000E-02 0.  1.
          2   -1    0    0  501    0  0.00000000000E+00 -0.00000000000E+00 -0.15364534534E+04  0.15364534534E+04  0.25500000000E-02 0. -1.
    8880023    1    1    2    0    0 -0.47564816098E+03  0.21699403876E+03  0.79686143259E+03  0.11585015904E+04  0.65864270000E+03 0.  1.
    8880022    1    1    2    0    0  0.47564816098E+03 -0.21699403876E+03 -0.13009137054E+04  0.14103530437E+04  0.15294330000E+03 0.  0.
<mgrwt>
<rscale>  0 0.75440964E+03</rscale>
<asrwt>0</asrwt>
<pdfrwt beam="1">  1        2 0.23637746E+00 0.84091485E+03</pdfrwt>
<pdfrwt beam="2">  1       -2 0.15883095E+00 0.84091485E+03</pdfrwt>
<totfact> 0.31540730E+00</totfact>
</mgrwt>
</event>
<event>
 4    1  0.8645356E-007  0.6793809E+03  0.7818608E-02  0.1009676E+00
          2   -1    0    0  501    0  0.00000000000E+00  0.00000000000E+00  0.14981346170E+04  0.14981346170E+04  0.25500000000E-02 0. -1.
         -2   -1    0    0    0  501 -0.00000000000E+00 -0.00000000000E+00 -0.19009641700E+03  0.19009641701E+03  0.25500000000E-02 0.  1.
    8880023    1    1    2    0    0  0.11524432579E+03 -0.12027886338E+03  0.48511814086E+03  0.83480421444E+03  0.65864270000E+03 0.  1.
    8880022    1    1    2    0    0 -0.11524432579E+03  0.12027886338E+03  0.82292005911E+03  0.85342681954E+03  0.15294330000E+03 0.  0.
<mgrwt>
<rscale>  0 0.51603602E+03</rscale>
<asrwt>0</asrwt>
<pdfrwt beam="1">  1        2 0.23048224E+00 0.67938094E+03</pdfrwt>
<pdfrwt beam="2">  1       -2 0.29245604E-01 0.67938094E+03</pdfrwt>
<totfact> 0.13989139E+02</totfact>
</mgrwt>
</event>
<event>
 4    1  0.8645356E-007  0.1060898E+04  0.7818608E-02  0.9305894E-01
         -2   -1    0    0    0  501 -0.00000000000E+00  0.00000000000E+00  0.67459626063E+03  0.67459626064E+03  0.25500000000E-02 0.  1.
          2   -1    0    0  501    0  0.00000000000E+00 -0.00000000000E+00 -0.22609181226E+04  0.22609181226E+04  0.25500000000E-02 0. -1.
    8880023    1    1    2    0    0  0.57011872542E+03 -0.60552366379E+03  0.83088547552E+02  0.10641466917E+04  0.65864270000E+03 0.  1.
    8880022    1    1    2    0    0 -0.57011872542E+03  0.60552366379E+03 -0.16694104095E+04  0.18713676915E+04  0.15294330000E+03 0.  0.
<mgrwt>
<rscale>  0 0.10024206E+04</rscale>
<asrwt>0</asrwt>
<pdfrwt beam="1">  1        2 0.34783355E+00 0.10608980E+04</pdfrwt>
<pdfrwt beam="2">  1       -2 0.10378404E+00 0.10608980E+04</pdfrwt>
<totfact> 0.35928641E+00</totfact>
</mgrwt>
</event>
<event>
 4    1  0.8645356E-007  0.7416154E+03  0.7818608E-02  0.9855266E-01
          2   -1    0    0  501    0  0.00000000000E+00  0.00000000000E+00  0.17076201139E+04  0.17076201139E+04  0.25500000000E-02 0. -1.
         -2   -1    0    0    0  501 -0.00000000000E+00 -0.00000000000E+00 -0.56159482290E+03  0.56159482290E+03  0.25500000000E-02 0.  1.
    8880023    1    1    2    0    0 -0.32803613750E+03 -0.92603923033E+02 -0.28177864420E+03  0.79334267795E+03  0.65864270000E+03 0.  1.
    8880022    1    1    2    0    0  0.32803613750E+03  0.92603923033E+02  0.14278039352E+04  0.14758722588E+04  0.15294330000E+03 0.  0.
<mgrwt>
<rscale>  0 0.62479127E+03</rscale>
<asrwt>0</asrwt>
<pdfrwt beam="1">  1        2 0.26271079E+00 0.74161540E+03</pdfrwt>
<pdfrwt beam="2">  1       -2 0.86399203E-01 0.74161540E+03</pdfrwt>
<totfact> 0.11609590E+01</totfact>
</mgrwt>
</event>
<event>
 4    1  0.8645356E-007  0.8341473E+03  0.7818608E-02  0.9641316E-01
         -2   -1    0    0    0  501 -0.00000000000E+00  0.00000000000E+00  0.63272668694E+03  0.63272668694E+03  0.25500000000E-02 0.  1.
          2   -1    0    0  501    0  0.00000000000E+00 -0.00000000000E+00 -0.18481752067E+04  0.18481752067E+04  0.25500000000E-02 0. -1.
    8880023    1    1    2    0    0  0.50292201741E+03  0.95188785548E+02 -0.16123769639E+04  0.18153680454E+04  0.65864270000E+03 0. -1.
    8880022    1    1    2    0    0 -0.50292201741E+03 -0.95188785548E+02  0.39692844405E+03  0.66553384827E+03  0.15294330000E+03 0.  0.
<mgrwt>
<rscale>  0 0.74620917E+03</rscale>
<asrwt>0</asrwt>
<pdfrwt beam="1">  1        2 0.28433465E+00 0.83414727E+03</pdfrwt>
<pdfrwt beam="2">  1       -2 0.97342568E-01 0.83414727E+03</pdfrwt>
<totfact> 0.72821220E+00</totfact>
</mgrwt>
</event>
<event>
 4    1  0.8645356E-007  0.7080214E+03  0.7818608E-02  0.9965423E-01
          2   -1    0    0  501    0  0.00000000000E+00  0.00000000000E+00  0.35469507745E+03  0.35469507745E+03  0.25500000000E-02 0. -1.
         -2   -1    0    0    0  501 -0.00000000000E+00 -0.00000000000E+00 -0.83947301564E+03  0.83947301564E+03  0.25500000000E-02 0.  1.
    8880023    1    1    2    0    0 -0.21036582781E+03 -0.15241495313E+03 -0.53647306900E+03  0.88831169050E+03  0.65864270000E+03 0.  0.
    8880022    1    1    2    0    0  0.21036582781E+03  0.15241495313E+03  0.51695130813E+02  0.30585640260E+03  0.15294330000E+03 0.  0.
<mgrwt>
<rscale>  0 0.57192725E+03</rscale>
<asrwt>0</asrwt>
<pdfrwt beam="1">  1        2 0.54568473E-01 0.70802140E+03</pdfrwt>
<pdfrwt beam="2">  1       -2 0.12914969E+00 0.70802140E+03</pdfrwt>
<totfact> 0.40768579E+01</totfact>
</mgrwt>
</event>
<event>
 4    1  0.8645356E-007  0.6784659E+03  0.7818608E-02  0.1010205E+00
          2   -1    0    0  501    0  0.00000000000E+00  0.00000000000E+00  0.25081943394E+04  0.25081943394E+04  0.25500000000E-02 0. -1.
         -2   -1    0    0    0  501 -0.00000000000E+00 -0.00000000000E+00 -0.99205566282E+02  0.99205566315E+02  0.25500000000E-02 0.  1.
    8880023    1    1    2    0    0 -0.13492647554E+03 -0.91107713249E+02  0.12050843934E+04  0.13829477108E+04  0.65864270000E+03 0.  1.
    8880022    1    1    2    0    0  0.13492647554E+03  0.91107713249E+02  0.12039043797E+04  0.12244521949E+04  0.15294330000E+03 0.  0.
<mgrwt>
<rscale>  0 0.51393214E+03</rscale>
<asrwt>0</asrwt>
<pdfrwt beam="1">  1        2 0.38587605E+00 0.67846590E+03</pdfrwt>
<pdfrwt beam="2">  1       -2 0.15262395E-01 0.67846590E+03</pdfrwt>
<totfact> 0.12265583E+02</totfact>
</mgrwt>
</event>
<event>
 4    1  0.8645356E-007  0.1152169E+04  0.7818608E-02  0.9205081E-01
          2   -1    0    0  501    0  0.00000000000E+00  0.00000000000E+00  0.23856519743E+04  0.23856519743E+04  0.25500000000E-02 0. -1.
         -2   -1    0    0    0  501 -0.00000000000E+00 -0.00000000000E+00 -0.55393940927E+03  0.55393940927E+03  0.25500000000E-02 0.  1.
    8880023    1    1    2    0    0  0.47561967532E+03 -0.81698733278E+03  0.40498748723E+03  0.12212728805E+04  0.65864270000E+03 0.  0.
    8880022    1    1    2    0    0 -0.47561967532E+03  0.81698733278E+03  0.14267250778E+04  0.17183185031E+04  0.15294330000E+03 0.  0.
<mgrwt>
<rscale>  0 0.11001137E+04</rscale>
<asrwt>0</asrwt>
<pdfrwt beam="1">  1        2 0.36702338E+00 0.11521686E+04</pdfrwt>
<pdfrwt beam="2">  1       -2 0.85221449E-01 0.11521686E+04</pdfrwt>
<totfact> 0.48014630E+00</totfact>
</mgrwt>
</event>
<event>
 4    1  0.8645356E-007  0.7696268E+03  0.7818608E-02  0.9780793E-01
         -2   -1    0    0    0  501 -0.00000000000E+00  0.00000000000E+00  0.56110175061E+03  0.56110175062E+03  0.25500000000E-02 0.  1.
          2   -1    0    0  501    0  0.00000000000E+00 -0.00000000000E+00 -0.15689223326E+04  0.15689223326E+04  0.25500000000E-02 0. -1.
    8880023    1    1    2    0    0  0.22670565548E+03  0.32729145783E+03  0.24412944484E+03  0.80741844461E+03  0.65864270000E+03 0.  1.
    8880022    1    1    2    0    0 -0.22670565548E+03 -0.32729145783E+03 -0.12519500268E+04  0.13226056386E+04  0.15294330000E+03 0.  0.
<mgrwt>
<rscale>  0 0.66403541E+03</rscale>
<asrwt>0</asrwt>
<pdfrwt beam="1">  1        2 0.24137266E+00 0.76962677E+03</pdfrwt>
<pdfrwt beam="2">  1       -2 0.86323347E-01 0.76962677E+03</pdfrwt>
<totfact> 0.13813646E+01</totfact>
</mgrwt>
</event>
<event>
 4    1  0.8645356E-007  0.8191028E+03  0.7818608E-02  0.9670919E-01
         -2   -1    0    0    0  501 -0.00000000000E+00  0.00000000000E+00  0.85929686150E+03  0.85929686150E+03  0.25500000000E-02 0.  1.
          2   -1    0    0  501    0  0.00000000000E+00 -0.00000000000E+00 -0.12760993103E+04  0.12760993103E+04  0.25500000000E-02 0. -1.
    8880023    1    1    2    0    0 -0.36606423162E+03 -0.32111708203E+03  0.58806073983E+03  0.10083376627E+04  0.65864270000E+03 0.  0.
    8880022    1    1    2    0    0  0.36606423162E+03  0.32111708203E+03 -0.10048631887E+04  0.11270585091E+04  0.15294330000E+03 0.  0.
<mgrwt>
<rscale>  0 0.72774971E+03</rscale>
<asrwt>0</asrwt>
<pdfrwt beam="1">  1        2 0.19632297E+00 0.81910281E+03</pdfrwt>
<pdfrwt beam="2">  1       -2 0.13219952E+00 0.81910281E+03</pdfrwt>
<totfact> 0.71935878E+00</totfact>
</mgrwt>
</event>
<event>
 4    1  0.8645356E-007  0.6852254E+03  0.7818608E-02  0.1006510E+00
          2   -1    0    0  501    0  0.00000000000E+00  0.00000000000E+00  0.84264792621E+03  0.84264792621E+03  0.25500000000E-02 0. -1.
         -2   -1    0    0    0  501 -0.00000000000E+00 -0.00000000000E+00 -0.38732659676E+03  0.38732659677E+03  0.25500000000E-02 0.  1.
    8880023    1    1    2    0    0  0.88600061842E+02  0.16695405395E+03 -0.31356785201E+02  0.68594247669E+03  0.65864270000E+03 0.  1.
    8880022    1    1    2    0    0 -0.88600061842E+02 -0.16695405395E+03  0.48667811465E+03  0.54403204629E+03  0.15294330000E+03 0.  0.
<mgrwt>
<rscale>  0 0.52885614E+03</rscale>
<asrwt>0</asrwt>
<pdfrwt beam="1">  1        2 0.12963814E+00 0.68522539E+03</pdfrwt>
<pdfrwt beam="2">  1       -2 0.59588708E-01 0.68522539E+03</pdfrwt>
<totfact> 0.85907716E+01</totfact>
</mgrwt>
</event>
<event>
 4    1  0.8645356E-007  0.8716834E+03  0.7818608E-02  0.9573109E-01
          2   -1    0    0  501    0  0.00000000000E+00  0.00000000000E+00  0.88071205260E+03  0.88071205260E+03  0.25500000000E-02 0. -1.
         -2   -1    0    0    0  501 -0.00000000000E+00 -0.00000000000E+00 -0.65014793691E+03  0.65014793692E+03  0.25500000000E-02 0.  1.
    8880023    1    1    2    0    0 -0.51462170740E+03  0.24735858825E+03 -0.56933965076E+02  0.87354075781E+03  0.65864270000E+03 0.  0.
    8880022    1    1    2    0    0  0.51462170740E+03 -0.24735858825E+03  0.28749808076E+03  0.65731923171E+03  0.15294330000E+03 0.  0.
<mgrwt>
<rscale>  0 0.79101831E+03</rscale>
<asrwt>0</asrwt>
<pdfrwt beam="1">  1        2 0.13549416E+00 0.87168342E+03</pdfrwt>
<pdfrwt beam="2">  1       -2 0.10002276E+00 0.87168342E+03</pdfrwt>
<totfact> 0.25054861E+01</totfact>
</mgrwt>
</event>
<event>
 4    1  0.8645356E-007  0.7551409E+03  0.7818608E-02  0.9817854E-01
         -2   -1    0    0    0  501 -0.00000000000E+00  0.00000000000E+00  0.35969719486E+03  0.35969719487E+03  0.25500000000E-02 0.  1.
          2   -1    0    0  501    0  0.00000000000E+00 -0.00000000000E+00 -0.27574272378E+04  0.27574272378E+04  0.25500000000E-02 0. -1.
    8880023    1    1    2    0    0  0.40927017705E+01  0.36933830223E+03 -0.73438717382E+02  0.75870348831E+03  0.65864270000E+03 0.  0.
    8880022    1    1    2    0    0 -0.40927017705E+01 -0.36933830223E+03 -0.23242913255E+04  0.23584209443E+04  0.15294330000E+03 0.  0.
<mgrwt>
<rscale>  0 0.64413159E+03</rscale>
<asrwt>0</asrwt>
<pdfrwt beam="1">  1        2 0.42421956E+00 0.75514087E+03</pdfrwt>
<pdfrwt beam="2">  1       -2 0.55338032E-01 0.75514087E+03</pdfrwt>
<totfact> 0.79510118E+00</totfact>
</mgrwt>
</event>
<event>
 4    1  0.8645356E-007  0.9683885E+03  0.7818608E-02  0.9424136E-01
         -2   -1    0    0    0  501 -0.00000000000E+00  0.00000000000E+00  0.53920902375E+03  0.53920902376E+03  0.25500000000E-02 0.  1.
          2   -1    0    0  501    0  0.00000000000E+00 -0.00000000000E+00 -0.14306538459E+04  0.14306538459E+04  0.25500000000E-02 0. -1.
    8880023    1    1    2    0    0  0.67959131240E+03  0.20523579451E+03 -0.76195543361E+03  0.12322144182E+04  0.65864270000E+03 0.  0.
    8880022    1    1    2    0    0 -0.67959131240E+03 -0.20523579451E+03 -0.12948938851E+03  0.73764845149E+03  0.15294330000E+03 0.  0.
<mgrwt>
<rscale>  0 0.90115684E+03</rscale>
<asrwt>0</asrwt>
<pdfrwt beam="1">  1        2 0.22010059E+00 0.96838850E+03</pdfrwt>
<pdfrwt beam="2">  1       -2 0.82955235E-01 0.96838850E+03</pdfrwt>
<totfact> 0.17687945E+01</totfact>
</mgrwt>
</event>
<event>
 4    1  0.8645356E-007  0.6604186E+03  0.7818608E-02  0.1023732E+00
          2   -1    0    0  501    0  0.00000000000E+00  0.00000000000E+00  0.57427725317E+03  0.57427725318E+03  0.25500000000E-02 0. -1.
         -2   -1    0    0    0  501 -0.00000000000E+00 -0.00000000000E+00 -0.34883650739E+03  0.34883650740E+03  0.25500000000E-02 0.  1.
    8880023    1    1    2    0    0 -0.21859528267E+02  0.43181222384E+02  0.17715180887E+02  0.66065610634E+03  0.65864270000E+03 0.  1.
    8880022    1    1    2    0    0  0.21859528267E+02 -0.43181222384E+02  0.20772556490E+03  0.26245765424E+03  0.15294330000E+03 0.  0.
<mgrwt>
<rscale>  0 0.46363701E+03</rscale>
<asrwt>0</asrwt>
<pdfrwt beam="1">  1        2 0.88350347E-01 0.66041855E+03</pdfrwt>
<pdfrwt beam="2">  1       -2 0.53667155E-01 0.66041855E+03</pdfrwt>
<totfact> 0.17351372E+02</totfact>
</mgrwt>
</event>
<event>
 4    1  0.8645356E-007  0.6903658E+03  0.7818608E-02  0.1003979E+00
          2   -1    0    0  501    0  0.00000000000E+00  0.00000000000E+00  0.23256741380E+04  0.23256741380E+04  0.25500000000E-02 0. -1.
         -2   -1    0    0    0  501 -0.00000000000E+00 -0.00000000000E+00 -0.13708099339E+03  0.13708099342E+03  0.25500000000E-02 0.  1.
    8880023    1    1    2    0    0 -0.17541510367E+03  0.10965548548E+03  0.20649911809E+04  0.21773363469E+04  0.65864270000E+03 0. -1.
    8880022    1    1    2    0    0  0.17541510367E+03 -0.10965548548E+03  0.12360196367E+03  0.28541878447E+03  0.15294330000E+03 0.  0.
<mgrwt>
<rscale>  0 0.53939336E+03</rscale>
<asrwt>0</asrwt>
<pdfrwt beam="1">  1        2 0.35779602E+00 0.69036584E+03</pdfrwt>
<pdfrwt beam="2">  1       -2 0.21089384E-01 0.69036584E+03</pdfrwt>
<totfact> 0.88741268E+01</totfact>
</mgrwt>
</event>
<event>
 4    1  0.8645356E-007  0.7060246E+03  0.7818608E-02  0.9973070E-01
         -2   -1    0    0    0  501 -0.00000000000E+00  0.00000000000E+00  0.11742735905E+03  0.11742735908E+03  0.25500000000E-02 0.  1.
          2   -1    0    0  501    0  0.00000000000E+00 -0.00000000000E+00 -0.21515136406E+04  0.21515136406E+04  0.25500000000E-02 0. -1.
    8880023    1    1    2    0    0  0.15508285963E+03  0.20151880010E+03 -0.13567797457E+04  0.15294842283E+04  0.65864270000E+03 0.  1.
    8880022    1    1    2    0    0 -0.15508285963E+03 -0.20151880010E+03 -0.67730653586E+03  0.73945677134E+03  0.15294330000E+03 0.  1.
<mgrwt>
<rscale>  0 0.56846978E+03</rscale>
<asrwt>0</asrwt>
<pdfrwt beam="1">  1        2 0.33100207E+00 0.70602459E+03</pdfrwt>
<pdfrwt beam="2">  1       -2 0.18065749E-01 0.70602459E+03</pdfrwt>
<totfact> 0.14471826E+02</totfact>
</mgrwt>
</event>
<event>
 4    1  0.8645356E-007  0.7016947E+03  0.7818608E-02  0.9990242E-01
          2   -1    0    0  501    0  0.00000000000E+00  0.00000000000E+00  0.32119057108E+04  0.32119057108E+04  0.25500000000E-02 0. -1.
         -2   -1    0    0    0  501 -0.00000000000E+00 -0.00000000000E+00 -0.24419254967E+03  0.24419254969E+03  0.25500000000E-02 0.  1.
    8880023    1    1    2    0    0 -0.13115081398E+03  0.20338314805E+03  0.28372458549E+03  0.75688512179E+03  0.65864270000E+03 0.  1.
    8880022    1    1    2    0    0  0.13115081398E+03 -0.20338314805E+03  0.26839885756E+04  0.26992131386E+04  0.15294330000E+03 0.  0.
<mgrwt>
<rscale>  0 0.56080171E+03</rscale>
<asrwt>0</asrwt>
<pdfrwt beam="1">  1        2 0.49413931E+00 0.70169470E+03</pdfrwt>
<pdfrwt beam="2">  1       -2 0.37568087E-01 0.70169470E+03</pdfrwt>
<totfact> 0.91976413E+00</totfact>
</mgrwt>
</event>
<event>
 4    1  0.8645356E-007  0.7218113E+03  0.7818608E-02  0.9916504E-01
          2   -1    0    0  501    0  0.00000000000E+00  0.00000000000E+00  0.18859424940E+04  0.18859424940E+04  0.25500000000E-02 0. -1.
         -2   -1    0    0    0  501 -0.00000000000E+00 -0.00000000000E+00 -0.16597687164E+03  0.16597687166E+03  0.25500000000E-02 0.  1.
    8880023    1    1    2    0    0 -0.59491898766E+02 -0.28924385927E+03  0.81977322352E+03  0.10922635398E+04  0.65864270000E+03 0.  0.
    8880022    1    1    2    0    0  0.59491898766E+02  0.28924385927E+03  0.90019239885E+03  0.95965582586E+03  0.15294330000E+03 0.  0.
<mgrwt>
<rscale>  0 0.59468046E+03</rscale>
<asrwt>0</asrwt>
<pdfrwt beam="1">  1        2 0.29014501E+00 0.72181127E+03</pdfrwt>
<pdfrwt beam="2">  1       -2 0.25534902E-01 0.72181127E+03</pdfrwt>
<totfact> 0.10947702E+02</totfact>
</mgrwt>
</event>
<event>
 4    1  0.8645356E-007  0.7611449E+03  0.7818608E-02  0.9802152E-01
         -2   -1    0    0    0  501 -0.00000000000E+00  0.00000000000E+00  0.93656693820E+03  0.93656693821E+03  0.25500000000E-02 0.  1.
          2   -1    0    0  501    0  0.00000000000E+00 -0.00000000000E+00 -0.21258838065E+04  0.21258838065E+04  0.25500000000E-02 0. -1.
    8880023    1    1    2    0    0  0.24944788010E+03  0.28862981966E+03  0.75683190515E+03  0.10733760555E+04  0.65864270000E+03 0.  1.
    8880022    1    1    2    0    0 -0.24944788010E+03 -0.28862981966E+03 -0.19461487735E+04  0.19890746892E+04  0.15294330000E+03 0.  0.
<mgrwt>
<rscale>  0 0.65247165E+03</rscale>
<asrwt>0</asrwt>
<pdfrwt beam="1">  1        2 0.32705905E+00 0.76114494E+03</pdfrwt>
<pdfrwt beam="2">  1       -2 0.14408722E+00 0.76114494E+03</pdfrwt>
<totfact> 0.19667331E+00</totfact>
</mgrwt>
</event>
<event>
 4    1  0.8645356E-007  0.9566356E+03  0.7818608E-02  0.9440630E-01
         -2   -1    0    0    0  501 -0.00000000000E+00  0.00000000000E+00  0.65127936284E+03  0.65127936284E+03  0.25500000000E-02 0.  1.
          2   -1    0    0  501    0  0.00000000000E+00 -0.00000000000E+00 -0.11082208660E+04  0.11082208660E+04  0.25500000000E-02 0. -1.
    8880023    1    1    2    0    0  0.44163338495E+03 -0.53507141398E+03 -0.42921982035E+03  0.10485138650E+04  0.65864270000E+03 0.  0.
    8880022    1    1    2    0    0 -0.44163338495E+03  0.53507141398E+03 -0.27721682790E+02  0.71098636377E+03  0.15294330000E+03 0.  1.
<mgrwt>
<rscale>  0 0.88806065E+03</rscale>
<asrwt>0</asrwt>
<pdfrwt beam="1">  1        2 0.17049552E+00 0.95663560E+03</pdfrwt>
<pdfrwt beam="2">  1       -2 0.10019683E+00 0.95663560E+03</pdfrwt>
<totfact> 0.17662180E+01</totfact>
</mgrwt>
</event>
<event>
 4    1  0.8645356E-007  0.7615369E+03  0.7818608E-02  0.9801145E-01
         -2   -1    0    0    0  501 -0.00000000000E+00  0.00000000000E+00  0.44236528911E+03  0.44236528911E+03  0.25500000000E-02 0.  1.
          2   -1    0    0  501    0  0.00000000000E+00 -0.00000000000E+00 -0.10282844739E+04  0.10282844739E+04  0.25500000000E-02 0. -1.
    8880023    1    1    2    0    0  0.23823608603E+03 -0.29895116460E+03 -0.86396344893E+01  0.76158589867E+03  0.65864270000E+03 0.  0.
    8880022    1    1    2    0    0 -0.23823608603E+03  0.29895116460E+03 -0.57727955027E+03  0.70906386432E+03  0.15294330000E+03 0.  0.
<mgrwt>
<rscale>  0 0.65301144E+03</rscale>
<asrwt>0</asrwt>
<pdfrwt beam="1">  1        2 0.15819761E+00 0.76153689E+03</pdfrwt>
<pdfrwt beam="2">  1       -2 0.68056199E-01 0.76153689E+03</pdfrwt>
<totfact> 0.48463217E+01</totfact>
</mgrwt>
</event>
<event>
 4    1  0.8645356E-007  0.7660079E+03  0.7818608E-02  0.9789795E-01
          2   -1    0    0  501    0  0.00000000000E+00  0.00000000000E+00  0.12025732824E+04  0.12025732824E+04  0.25500000000E-02 0. -1.
         -2   -1    0    0    0  501 -0.00000000000E+00 -0.00000000000E+00 -0.35704599781E+03  0.35704599782E+03  0.25500000000E-02 0.  1.
    8880023    1    1    2    0    0  0.22499648581E+03  0.31989762974E+03  0.20372111593E+03  0.79263510614E+03  0.65864270000E+03 0.  1.
    8880022    1    1    2    0    0 -0.22499648581E+03 -0.31989762974E+03  0.64180616861E+03  0.76698417404E+03  0.15294330000E+03 0.  0.
<mgrwt>
<rscale>  0 0.65913100E+03</rscale>
<asrwt>0</asrwt>
<pdfrwt beam="1">  1        2 0.18501128E+00 0.76600791E+03</pdfrwt>
<pdfrwt beam="2">  1       -2 0.54930153E-01 0.76600791E+03</pdfrwt>
<totfact> 0.59761198E+01</totfact>
</mgrwt>
</event>
<event>
 4    1  0.8645356E-007  0.9641480E+03  0.7818608E-02  0.9430044E-01
         -2   -1    0    0    0  501 -0.00000000000E+00  0.00000000000E+00  0.12124660421E+04  0.12124660421E+04  0.25500000000E-02 0.  1.
          2   -1    0    0  501    0  0.00000000000E+00 -0.00000000000E+00 -0.18269544164E+04  0.18269544164E+04  0.25500000000E-02 0. -1.
    8880023    1    1    2    0    0 -0.65710924199E+03  0.25294010176E+03  0.92721655643E+03  0.13376516736E+04  0.65864270000E+03 0.  1.
    8880022    1    1    2    0    0  0.65710924199E+03 -0.25294010176E+03 -0.15417049307E+04  0.17017687850E+04  0.15294330000E+03 0.  0.
<mgrwt>
<rscale>  0 0.89643902E+03</rscale>
<asrwt>0</asrwt>
<pdfrwt beam="1">  1        2 0.28106991E+00 0.96414805E+03</pdfrwt>
<pdfrwt beam="2">  1       -2 0.18653324E+00 0.96414805E+03</pdfrwt>
<totfact> 0.13651377E+00</totfact>
</mgrwt>
</event>
<event>
 4    1  0.8645356E-007  0.7368264E+03  0.7818608E-02  0.9869290E-01
         -2   -1    0    0    0  501 -0.00000000000E+00  0.00000000000E+00  0.37028102341E+03  0.37028102342E+03  0.25500000000E-02 0.  1.
          2   -1    0    0  501    0  0.00000000000E+00 -0.00000000000E+00 -0.14874009609E+04  0.14874009609E+04  0.25500000000E-02 0. -1.
    8880023    1    1    2    0    0  0.20026378558E+03  0.26267343735E+03 -0.59555882852E+02  0.73922934733E+03  0.65864270000E+03 0.  1.
    8880022    1    1    2    0    0 -0.20026378558E+03 -0.26267343735E+03 -0.10575640547E+04  0.11184526370E+04  0.15294330000E+03 0.  0.
<mgrwt>
<rscale>  0 0.61772992E+03</rscale>
<asrwt>0</asrwt>
<pdfrwt beam="1">  1        2 0.22883091E+00 0.73682639E+03</pdfrwt>
<pdfrwt beam="2">  1       -2 0.56966312E-01 0.73682639E+03</pdfrwt>
<totfact> 0.38171380E+01</totfact>
</mgrwt>
</event>
<event>
 4    1  0.8645356E-007  0.8555725E+03  0.7818608E-02  0.9601488E-01
          2   -1    0    0  501    0  0.00000000000E+00  0.00000000000E+00  0.62921071102E+03  0.62921071103E+03  0.25500000000E-02 0. -1.
         -2   -1    0    0    0  501 -0.00000000000E+00 -0.00000000000E+00 -0.93516518325E+03  0.93516518326E+03  0.25500000000E-02 0.  1.
    8880023    1    1    2    0    0 -0.77446468918E+02  0.54055164801E+03 -0.46718499111E+03  0.97481591180E+03  0.65864270000E+03 0.  0.
    8880022    1    1    2    0    0  0.77446468918E+02 -0.54055164801E+03  0.16123051888E+03  0.58955998249E+03  0.15294330000E+03 0.  0.
<mgrwt>
<rscale>  0 0.77197758E+03</rscale>
<asrwt>0</asrwt>
<pdfrwt beam="1">  1        2 0.96801648E-01 0.85557247E+03</pdfrwt>
<pdfrwt beam="2">  1       -2 0.14387157E+00 0.85557247E+03</pdfrwt>
<totfact> 0.15725983E+01</totfact>
</mgrwt>
</event>
<event>
 4    1  0.8645356E-007  0.6849952E+03  0.7818608E-02  0.1006628E+00
          2   -1    0    0  501    0  0.00000000000E+00  0.00000000000E+00  0.19899508189E+04  0.19899508189E+04  0.25500000000E-02 0. -1.
         -2   -1    0    0    0  501 -0.00000000000E+00 -0.00000000000E+00 -0.44715865655E+03  0.44715865656E+03  0.25500000000E-02 0.  1.
    8880023    1    1    2    0    0  0.72014504658E+02  0.17384504670E+03 -0.17118731681E+03  0.70606196105E+03  0.65864270000E+03 0.  1.
    8880022    1    1    2    0    0 -0.72014504658E+02 -0.17384504670E+03  0.17139794792E+04  0.17310475144E+04  0.15294330000E+03 0.  0.
<mgrwt>
<rscale>  0 0.52836940E+03</rscale>
<asrwt>0</asrwt>
<pdfrwt beam="1">  1        2 0.30614628E+00 0.68499518E+03</pdfrwt>
<pdfrwt beam="2">  1       -2 0.68793639E-01 0.68499518E+03</pdfrwt>
<totfact> 0.13655811E+01</totfact>
</mgrwt>
</event>
<event>
 4    1  0.8645356E-007  0.9009922E+03  0.7818608E-02  0.9524441E-01
         -2   -1    0    0    0  501 -0.00000000000E+00  0.00000000000E+00  0.12809641502E+04  0.12809641502E+04  0.25500000000E-02 0.  1.
          2   -1    0    0  501    0  0.00000000000E+00 -0.00000000000E+00 -0.58189272763E+03  0.58189272764E+03  0.25500000000E-02 0. -1.
    8880023    1    1    2    0    0  0.94216764812E+02 -0.60753594260E+03  0.81954690938E+03  0.12179671848E+04  0.65864270000E+03 0.  0.
    8880022    1    1    2    0    0 -0.94216764812E+02  0.60753594260E+03 -0.12047548677E+03  0.64488969309E+03  0.15294330000E+03 0.  0.
<mgrwt>
<rscale>  0 0.82505645E+03</rscale>
<asrwt>0</asrwt>
<pdfrwt beam="1">  1        2 0.89521958E-01 0.90099219E+03</pdfrwt>
<pdfrwt beam="2">  1       -2 0.19707141E+00 0.90099219E+03</pdfrwt>
<totfact> 0.71805111E+00</totfact>
</mgrwt>
</event>
<event>
 4    1  0.8645356E-007  0.8768495E+03  0.7818608E-02  0.9564267E-01
          2   -1    0    0  501    0  0.00000000000E+00  0.00000000000E+00  0.48213860750E+03  0.48213860751E+03  0.25500000000E-02 0. -1.
         -2   -1    0    0    0  501 -0.00000000000E+00 -0.00000000000E+00 -0.11359285471E+04  0.11359285471E+04  0.25500000000E-02 0.  1.
    8880023    1    1    2    0    0 -0.57597645210E+03  0.57497652782E+02 -0.45038127145E+03  0.98575268165E+03  0.65864270000E+03 0.  0.
    8880022    1    1    2    0    0  0.57597645210E+03 -0.57497652782E+02 -0.20340866819E+03  0.63231447300E+03  0.15294330000E+03 0.  0.
<mgrwt>
<rscale>  0 0.79707069E+03</rscale>
<asrwt>0</asrwt>
<pdfrwt beam="1">  1        2 0.74175170E-01 0.87684951E+03</pdfrwt>
<pdfrwt beam="2">  1       -2 0.17475824E+00 0.87684951E+03</pdfrwt>
<totfact> 0.12724451E+01</totfact>
</mgrwt>
</event>
<event>
 4    1  0.1030594E-006  0.7101529E+03  0.7818608E-02  0.9957434E-01
          2   -1    0    0  501    0  0.00000000000E+00  0.00000000000E+00  0.17258952583E+04  0.17258952583E+04  0.25500000000E-02 0. -1.
         -2   -1    0    0    0  501 -0.00000000000E+00 -0.00000000000E+00 -0.65088983313E+03  0.65088983313E+03  0.25500000000E-02 0.  1.
    8880023    1    1    2    0    0 -0.20589837365E+03 -0.16766883497E+03 -0.43713486796E+03  0.83390891442E+03  0.65864270000E+03 0.  1.
    8880022    1    1    2    0    0  0.20589837365E+03  0.16766883497E+03  0.15121402931E+04  0.15428761770E+04  0.15294330000E+03 0.  0.
<mgrwt>
<rscale>  0 0.57556758E+03</rscale>
<asrwt>0</asrwt>
<pdfrwt beam="1">  1        2 0.26552234E+00 0.71015293E+03</pdfrwt>
<pdfrwt beam="2">  1       -2 0.10013690E+00 0.71015293E+03</pdfrwt>
<totfact> 0.80887051E+00</totfact>
</mgrwt>
</event>
<event>
 4    1  0.8645356E-007  0.6876366E+03  0.7818608E-02  0.1005297E+00
         -2   -1    0    0    0  501 -0.00000000000E+00  0.00000000000E+00  0.41138529328E+03  0.41138529329E+03  0.25500000000E-02 0.  1.
          2   -1    0    0  501    0  0.00000000000E+00 -0.00000000000E+00 -0.65461602391E+03  0.65461602391E+03  0.25500000000E-02 0. -1.
    8880023    1    1    2    0    0  0.23922463522E+02  0.19611633247E+03  0.39403240501E+02  0.68876463451E+03  0.65864270000E+03 0.  1.
    8880022    1    1    2    0    0 -0.23922463522E+02 -0.19611633247E+03 -0.28263397112E+03  0.37723668270E+03  0.15294330000E+03 0.  0.
<mgrwt>
<rscale>  0 0.53387495E+03</rscale>
<asrwt>0</asrwt>
<pdfrwt beam="1">  1        2 0.10071016E+00 0.68763661E+03</pdfrwt>
<pdfrwt beam="2">  1       -2 0.63290045E-01 0.68763661E+03</pdfrwt>
<totfact> 0.10462504E+02</totfact>
</mgrwt>
</event>
<event>
 4    1  0.8645356E-007  0.8243418E+03  0.7818608E-02  0.9660443E-01
         -2   -1    0    0    0  501 -0.00000000000E+00  0.00000000000E+00  0.28283822503E+03  0.28283822505E+03  0.25500000000E-02 0.  1.
          2   -1    0    0  501    0  0.00000000000E+00 -0.00000000000E+00 -0.17237632013E+04  0.17237632013E+04  0.25500000000E-02 0. -1.
    8880023    1    1    2    0    0 -0.40239966559E+03  0.28948857067E+03 -0.11401687842E+04  0.14069556447E+04  0.65864270000E+03 0. -1.
    8880022    1    1    2    0    0  0.40239966559E+03 -0.28948857067E+03 -0.30075619215E+03  0.59964578173E+03  0.15294330000E+03 0.  0.
<mgrwt>
<rscale>  0 0.73421606E+03</rscale>
<asrwt>0</asrwt>
<pdfrwt beam="1">  1        2 0.26519433E+00 0.82434176E+03</pdfrwt>
<pdfrwt beam="2">  1       -2 0.43513574E-01 0.82434176E+03</pdfrwt>
<totfact> 0.48457938E+01</totfact>
</mgrwt>
</event>
<event>
 4    1  0.8645356E-007  0.7243764E+03  0.7818608E-02  0.9908047E-01
          2   -1    0    0  501    0  0.00000000000E+00  0.00000000000E+00  0.23622926020E+04  0.23622926020E+04  0.25500000000E-02 0. -1.
         -2   -1    0    0    0  501 -0.00000000000E+00 -0.00000000000E+00 -0.28434531696E+03  0.28434531697E+03  0.25500000000E-02 0.  1.
    8880023    1    1    2    0    0  0.13091163516E+03 -0.27161200160E+03  0.21836794486E+03  0.75657498058E+03  0.65864270000E+03 0.  1.
    8880022    1    1    2    0    0 -0.13091163516E+03  0.27161200160E+03  0.18595793402E+04  0.18900629384E+04  0.15294330000E+03 0.  0.
<mgrwt>
<rscale>  0 0.59872890E+03</rscale>
<asrwt>0</asrwt>
<pdfrwt beam="1">  1        2 0.36342962E+00 0.72437638E+03</pdfrwt>
<pdfrwt beam="2">  1       -2 0.43745434E-01 0.72437638E+03</pdfrwt>
<totfact> 0.21655688E+01</totfact>
</mgrwt>
</event>
<event>
 4    1  0.8645356E-007  0.7019463E+03  0.7818608E-02  0.9989221E-01
          2   -1    0    0  501    0  0.00000000000E+00  0.00000000000E+00  0.55145791517E+03  0.55145791517E+03  0.25500000000E-02 0. -1.
         -2   -1    0    0    0  501 -0.00000000000E+00 -0.00000000000E+00 -0.66960245306E+03  0.66960245307E+03  0.25500000000E-02 0.  1.
    8880023    1    1    2    0    0 -0.20509607075E+03  0.12982290308E+03 -0.40908899482E+03  0.81245455033E+03  0.65864270000E+03 0.  0.
    8880022    1    1    2    0    0  0.20509607075E+03 -0.12982290308E+03  0.29094445693E+03  0.40860581791E+03  0.15294330000E+03 0.  0.
<mgrwt>
<rscale>  0 0.56125408E+03</rscale>
<asrwt>0</asrwt>
<pdfrwt beam="1">  1        2 0.84839679E-01 0.70194629E+03</pdfrwt>
<pdfrwt beam="2">  1       -2 0.10301576E+00 0.70194629E+03</pdfrwt>
<totfact> 0.42895234E+01</totfact>
</mgrwt>
</event>
<event>
 4    1  0.9359904E-007  0.7693212E+03  0.7818608E-02  0.9781547E-01
         -2   -1    0    0    0  501 -0.00000000000E+00  0.00000000000E+00  0.13304728856E+04  0.13304728856E+04  0.25500000000E-02 0.  1.
          2   -1    0    0  501    0  0.00000000000E+00 -0.00000000000E+00 -0.17244020701E+04  0.17244020701E+04  0.25500000000E-02 0. -1.
    8880023    1    1    2    0    0  0.26082899649E+03  0.30002197425E+03  0.11886971180E+04  0.14159293750E+04  0.65864270000E+03 0.  1.
    8880022    1    1    2    0    0 -0.26082899649E+03 -0.30002197425E+03 -0.15826263024E+04  0.16389455807E+04  0.15294330000E+03 0.  0.
<mgrwt>
<rscale>  0 0.66362296E+03</rscale>
<asrwt>0</asrwt>
<pdfrwt beam="1">  1        2 0.26529263E+00 0.76932123E+03</pdfrwt>
<pdfrwt beam="2">  1       -2 0.20468814E+00 0.76932123E+03</pdfrwt>
<totfact> 0.12182011E+00</totfact>
</mgrwt>
</event>
<event>
 4    1  0.8645356E-007  0.7281086E+03  0.7818608E-02  0.9896047E-01
          2   -1    0    0  501    0  0.00000000000E+00  0.00000000000E+00  0.10753910542E+04  0.10753910542E+04  0.25500000000E-02 0. -1.
         -2   -1    0    0    0  501 -0.00000000000E+00 -0.00000000000E+00 -0.27946593674E+03  0.27946593675E+03  0.25500000000E-02 0.  1.
    8880023    1    1    2    0    0  0.13051650368E+03 -0.28159781417E+03  0.40641232299E+03  0.83385434533E+03  0.65864270000E+03 0. -1.
    8880022    1    1    2    0    0 -0.13051650368E+03  0.28159781417E+03  0.38951279447E+03  0.52100264563E+03  0.15294330000E+03 0.  1.
<mgrwt>
<rscale>  0 0.60453236E+03</rscale>
<asrwt>0</asrwt>
<pdfrwt beam="1">  1        2 0.16544478E+00 0.72810857E+03</pdfrwt>
<pdfrwt beam="2">  1       -2 0.42994760E-01 0.72810857E+03</pdfrwt>
<totfact> 0.11747592E+02</totfact>
</mgrwt>
</event>
<event>
 4    1  0.8645356E-007  0.7038866E+03  0.7818608E-02  0.9981445E-01
          2   -1    0    0  501    0  0.00000000000E+00  0.00000000000E+00  0.23651652660E+04  0.23651652660E+04  0.25500000000E-02 0. -1.
         -2   -1    0    0    0  501 -0.00000000000E+00 -0.00000000000E+00 -0.22853759758E+03  0.22853759759E+03  0.25500000000E-02 0.  1.
    8880023    1    1    2    0    0 -0.76929028721E+02  0.23606783191E+03  0.35494988985E+03  0.78831829060E+03  0.65864270000E+03 0.  0.
    8880022    1    1    2    0    0  0.76929028721E+02 -0.23606783191E+03  0.17816777786E+04  0.18053845730E+04  0.15294330000E+03 0.  0.
<mgrwt>
<rscale>  0 0.56471390E+03</rscale>
<asrwt>0</asrwt>
<pdfrwt beam="1">  1        2 0.36387159E+00 0.70388657E+03</pdfrwt>
<pdfrwt beam="2">  1       -2 0.35159630E-01 0.70388657E+03</pdfrwt>
<totfact> 0.33083290E+01</totfact>
</mgrwt>
</event>
<event>
 4    1  0.8645356E-007  0.1097542E+04  0.7818608E-02  0.9263798E-01
          2   -1    0    0  501    0  0.00000000000E+00  0.00000000000E+00  0.41229892047E+04  0.41229892047E+04  0.25500000000E-02 0. -1.
         -2   -1    0    0    0  501 -0.00000000000E+00 -0.00000000000E+00 -0.31586700264E+03  0.31586700265E+03  0.25500000000E-02 0.  1.
    8880023    1    1    2    0    0 -0.21429521046E+03  0.85139027978E+03  0.96893223465E+03  0.14640449882E+04  0.65864270000E+03 0.  1.
    8880022    1    1    2    0    0  0.21429521046E+03 -0.85139027978E+03  0.28381899674E+04  0.29748112192E+04  0.15294330000E+03 0.  0.
<mgrwt>
<rscale>  0 0.10418511E+04</rscale>
<asrwt>0</asrwt>
<pdfrwt beam="1">  1        2 0.63430606E+00 0.10975418E+04</pdfrwt>
<pdfrwt beam="2">  1       -2 0.48594921E-01 0.10975418E+04</pdfrwt>
<totfact> 0.11309197E+00</totfact>
</mgrwt>
</event>
<event>
 4    1  0.8645356E-007  0.6903865E+03  0.7818608E-02  0.1003969E+00
          2   -1    0    0  501    0  0.00000000000E+00  0.00000000000E+00  0.11687541636E+04  0.11687541636E+04  0.25500000000E-02 0. -1.
         -2   -1    0    0    0  501 -0.00000000000E+00 -0.00000000000E+00 -0.23643458715E+03  0.23643458716E+03  0.25500000000E-02 0.  1.
    8880023    1    1    2    0    0 -0.14025007727E+03  0.15216207303E+03  0.36206981857E+03  0.77956920182E+03  0.65864270000E+03 0.  0.
    8880022    1    1    2    0    0  0.14025007727E+03 -0.15216207303E+03  0.57024975790E+03  0.62561954896E+03  0.15294330000E+03 0.  0.
<mgrwt>
<rscale>  0 0.53943462E+03</rscale>
<asrwt>0</asrwt>
<pdfrwt beam="1">  1        2 0.17980833E+00 0.69038655E+03</pdfrwt>
<pdfrwt beam="2">  1       -2 0.36374552E-01 0.69038655E+03</pdfrwt>
<totfact> 0.14316761E+02</totfact>
</mgrwt>
</event>
<event>
 4    1  0.8645356E-007  0.8576205E+03  0.7818608E-02  0.9597810E-01
         -2   -1    0    0    0  501 -0.00000000000E+00  0.00000000000E+00  0.23908810313E+03  0.23908810315E+03  0.25500000000E-02 0.  1.
          2   -1    0    0  501    0  0.00000000000E+00 -0.00000000000E+00 -0.21521711980E+04  0.21521711980E+04  0.25500000000E-02 0. -1.
    8880023    1    1    2    0    0 -0.18652646123E+03  0.51663395661E+03 -0.10328335781E+04  0.13424820938E+04  0.65864270000E+03 0.  1.
    8880022    1    1    2    0    0  0.18652646123E+03 -0.51663395661E+03 -0.88024951681E+03  0.10487772074E+04  0.15294330000E+03 0. -1.
<mgrwt>
<rscale>  0 0.77441288E+03</rscale>
<asrwt>0</asrwt>
<pdfrwt beam="1">  1        2 0.33110325E+00 0.85762053E+03</pdfrwt>
<pdfrwt beam="2">  1       -2 0.36782787E-01 0.85762053E+03</pdfrwt>
<totfact> 0.39045435E+01</totfact>
</mgrwt>
</event>
<event>
 4    1  0.8645356E-007  0.7358719E+03  0.7818608E-02  0.9872139E-01
          2   -1    0    0  501    0  0.00000000000E+00  0.00000000000E+00  0.23006155912E+04  0.23006155912E+04  0.25500000000E-02 0. -1.
         -2   -1    0    0    0  501 -0.00000000000E+00 -0.00000000000E+00 -0.24347040918E+03  0.24347040919E+03  0.25500000000E-02 0.  1.
    8880023    1    1    2    0    0  0.89203043874E+02  0.31581647458E+03  0.37978873525E+03  0.82809837479E+03  0.65864270000E+03 0.  1.
    8880022    1    1    2    0    0 -0.89203043874E+02 -0.31581647458E+03  0.16773564468E+04  0.17159876256E+04  0.15294330000E+03 0.  0.
<mgrwt>
<rscale>  0 0.61630741E+03</rscale>
<asrwt>0</asrwt>
<pdfrwt beam="1">  1        2 0.35394085E+00 0.73587189E+03</pdfrwt>
<pdfrwt beam="2">  1       -2 0.37456987E-01 0.73587189E+03</pdfrwt>
<totfact> 0.31686638E+01</totfact>
</mgrwt>
</event>
<event>
 4    1  0.8645356E-007  0.9111732E+03  0.7818608E-02  0.9508328E-01
          2   -1    0    0  501    0  0.00000000000E+00  0.00000000000E+00  0.11270425737E+04  0.11270425737E+04  0.25500000000E-02 0. -1.
         -2   -1    0    0    0  501 -0.00000000000E+00 -0.00000000000E+00 -0.77823782803E+03  0.77823782804E+03  0.25500000000E-02 0.  1.
    8880023    1    1    2    0    0  0.45088881783E+03 -0.43946057362E+03 -0.32792002216E+03  0.96838425690E+03  0.65864270000E+03 0.  1.
    8880022    1    1    2    0    0 -0.45088881783E+03  0.43946057362E+03  0.67672476780E+03  0.93689614482E+03  0.15294330000E+03 0.  0.
<mgrwt>
<rscale>  0 0.83672610E+03</rscale>
<asrwt>0</asrwt>
<pdfrwt beam="1">  1        2 0.17339116E+00 0.91117316E+03</pdfrwt>
<pdfrwt beam="2">  1       -2 0.11972890E+00 0.91117316E+03</pdfrwt>
<totfact> 0.11207005E+01</totfact>
</mgrwt>
</event>
<event>
 4    1  0.8645356E-007  0.6817442E+03  0.7818608E-02  0.1008354E+00
         -2   -1    0    0    0  501 -0.00000000000E+00  0.00000000000E+00  0.42621767302E+03  0.42621767303E+03  0.25500000000E-02 0.  1.
          2   -1    0    0  501    0  0.00000000000E+00 -0.00000000000E+00 -0.10828937583E+04  0.10828937583E+04  0.25500000000E-02 0. -1.
    8880023    1    1    2    0    0 -0.17390935253E+03 -0.26840927064E+02  0.12526148134E+03  0.69315621849E+03  0.65864270000E+03 0.  1.
    8880022    1    1    2    0    0  0.17390935253E+03  0.26840927064E+02 -0.78193756662E+03  0.81595521285E+03  0.15294330000E+03 0.  0.
<mgrwt>
<rscale>  0 0.52134181E+03</rscale>
<asrwt>0</asrwt>
<pdfrwt beam="1">  1        2 0.16659904E+00 0.68174416E+03</pdfrwt>
<pdfrwt beam="2">  1       -2 0.65571950E-01 0.68174416E+03</pdfrwt>
<totfact> 0.48927748E+01</totfact>
</mgrwt>
</event>
<event>
 4    1  0.8645356E-007  0.6954633E+03  0.7818608E-02  0.1001657E+00
          2   -1    0    0  501    0  0.00000000000E+00  0.00000000000E+00  0.29799295531E+04  0.29799295531E+04  0.25500000000E-02 0. -1.
         -2   -1    0    0    0  501 -0.00000000000E+00 -0.00000000000E+00 -0.78441768585E+02  0.78441768627E+02  0.25500000000E-02 0.  1.
    8880023    1    1    2    0    0 -0.16505007365E+03  0.15039094243E+03  0.20301579826E+04  0.21459754432E+04  0.65864270000E+03 0.  1.
    8880022    1    1    2    0    0  0.16505007365E+03 -0.15039094243E+03  0.87132980192E+03  0.91239587850E+03  0.15294330000E+03 0. -1.
<mgrwt>
<rscale>  0 0.54929679E+03</rscale>
<asrwt>0</asrwt>
<pdfrwt beam="1">  1        2 0.45845061E+00 0.69546328E+03</pdfrwt>
<pdfrwt beam="2">  1       -2 0.12067967E-01 0.69546328E+03</pdfrwt>
<totfact> 0.95966984E+01</totfact>
</mgrwt>
</event>
<event>
 4    1  0.8645356E-007  0.6915842E+03  0.7818608E-02  0.1003409E+00
         -2   -1    0    0    0  501 -0.00000000000E+00  0.00000000000E+00  0.54382900224E+03  0.54382900225E+03  0.25500000000E-02 0.  1.
          2   -1    0    0  501    0  0.00000000000E+00 -0.00000000000E+00 -0.43012173538E+03  0.43012173539E+03  0.25500000000E-02 0. -1.
    8880023    1    1    2    0    0  0.11913708034E+03  0.17402526296E+03  0.48439641698E+01  0.69160111792E+03  0.65864270000E+03 0.  0.
    8880022    1    1    2    0    0 -0.11913708034E+03 -0.17402526296E+03  0.10886330269E+03  0.28234961971E+03  0.15294330000E+03 0.  0.
<mgrwt>
<rscale>  0 0.54180571E+03</rscale>
<asrwt>0</asrwt>
<pdfrwt beam="1">  1        2 0.66172575E-01 0.69158415E+03</pdfrwt>
<pdfrwt beam="2">  1       -2 0.83666000E-01 0.69158415E+03</pdfrwt>
<totfact> 0.92746024E+01</totfact>
</mgrwt>
</event>
<event>
 4    1  0.8645356E-007  0.8443221E+03  0.7818608E-02  0.9622084E-01
          2   -1    0    0  501    0  0.00000000000E+00  0.00000000000E+00  0.16057924099E+04  0.16057924099E+04  0.25500000000E-02 0. -1.
         -2   -1    0    0    0  501 -0.00000000000E+00 -0.00000000000E+00 -0.33862013855E+03  0.33862013856E+03  0.25500000000E-02 0.  1.
    8880023    1    1    2    0    0 -0.45147374838E+03  0.27430093066E+03  0.44269594880E+03  0.95334120618E+03  0.65864270000E+03 0.  0.
    8880022    1    1    2    0    0  0.45147374838E+03 -0.27430093066E+03  0.82447632256E+03  0.99107134229E+03  0.15294330000E+03 0.  0.
<mgrwt>
<rscale>  0 0.75851612E+03</rscale>
<asrwt>0</asrwt>
<pdfrwt beam="1">  1        2 0.24704498E+00 0.84432207E+03</pdfrwt>
<pdfrwt beam="2">  1       -2 0.52095406E-01 0.84432207E+03</pdfrwt>
<totfact> 0.39045144E+01</totfact>
</mgrwt>
</event>
<event>
 4    1  0.8645356E-007  0.1238081E+04  0.7818608E-02  0.9120965E-01
          2   -1    0    0  501    0  0.00000000000E+00  0.00000000000E+00  0.23994164853E+04  0.23994164853E+04  0.25500000000E-02 0. -1.
         -2   -1    0    0    0  501 -0.00000000000E+00 -0.00000000000E+00 -0.11963528649E+04  0.11963528649E+04  0.25500000000E-02 0.  1.
    8880023    1    1    2    0    0  0.10263125638E+04 -0.21381683548E+03 -0.69663784288E+03  0.14206159257E+04  0.65864270000E+03 0.  1.
    8880022    1    1    2    0    0 -0.10263125638E+04  0.21381683548E+03  0.18997014633E+04  0.21751534246E+04  0.15294330000E+03 0.  0.
<mgrwt>
<rscale>  0 0.11907803E+04</rscale>
<asrwt>0</asrwt>
<pdfrwt beam="1">  1        2 0.36914100E+00 0.12380813E+04</pdfrwt>
<pdfrwt beam="2">  1       -2 0.18405429E+00 0.12380813E+04</pdfrwt>
<totfact> 0.65626657E-01</totfact>
</mgrwt>
</event>
<event>
 4    1  0.8645356E-007  0.8370687E+03  0.7818608E-02  0.9635732E-01
         -2   -1    0    0    0  501 -0.00000000000E+00  0.00000000000E+00  0.24302224593E+03  0.24302224594E+03  0.25500000000E-02 0.  1.
          2   -1    0    0  501    0  0.00000000000E+00 -0.00000000000E+00 -0.20730203621E+04  0.20730203621E+04  0.25500000000E-02 0. -1.
    8880023    1    1    2    0    0  0.49394195942E+03  0.15131143411E+03 -0.13802055448E+04  0.16142030112E+04  0.65864270000E+03 0. -1.
    8880022    1    1    2    0    0 -0.49394195942E+03 -0.15131143411E+03 -0.44979257141E+03  0.70183959683E+03  0.15294330000E+03 0.  0.
<mgrwt>
<rscale>  0 0.74975652E+03</rscale>
<asrwt>0</asrwt>
<pdfrwt beam="1">  1        2 0.31892620E+00 0.83706870E+03</pdfrwt>
<pdfrwt beam="2">  1       -2 0.37388039E-01 0.83706870E+03</pdfrwt>
<totfact> 0.41926666E+01</totfact>
</mgrwt>
</event>
<event>
 4    1  0.8645356E-007  0.8524731E+03  0.7818608E-02  0.9607095E-01
         -2   -1    0    0    0  501 -0.00000000000E+00  0.00000000000E+00  0.38509680317E+03  0.38509680318E+03  0.25500000000E-02 0.  1.
          2   -1    0    0  501    0  0.00000000000E+00 -0.00000000000E+00 -0.13159702874E+04  0.13159702874E+04  0.25500000000E-02 0. -1.
    8880023    1    1    2    0    0 -0.43963874903E+03 -0.31562307464E+03 -0.46674999829E+03  0.97188781352E+03  0.65864270000E+03 0.  1.
    8880022    1    1    2    0    0  0.43963874903E+03  0.31562307464E+03 -0.46412348596E+03  0.72917927708E+03  0.15294330000E+03 0. -1.
<mgrwt>
<rscale>  0 0.76828349E+03</rscale>
<asrwt>0</asrwt>
<pdfrwt beam="1">  1        2 0.20245697E+00 0.85247309E+03</pdfrwt>
<pdfrwt beam="2">  1       -2 0.59245662E-01 0.85247309E+03</pdfrwt>
<totfact> 0.43461844E+01</totfact>
</mgrwt>
</event>
<event>
 4    1  0.8645356E-007  0.6888525E+03  0.7818608E-02  0.1004703E+00
         -2   -1    0    0    0  501 -0.00000000000E+00  0.00000000000E+00  0.59988519145E+03  0.59988519145E+03  0.25500000000E-02 0.  1.
          2   -1    0    0  501    0  0.00000000000E+00 -0.00000000000E+00 -0.10927400578E+04  0.10927400578E+04  0.25500000000E-02 0. -1.
    8880023    1    1    2    0    0 -0.19724566551E+03 -0.42445783681E+02  0.37797587722E+03  0.78573753069E+03  0.65864270000E+03 0.  1.
    8880022    1    1    2    0    0  0.19724566551E+03  0.42445783681E+02 -0.87083074355E+03  0.90688771854E+03  0.15294330000E+03 0.  0.
<mgrwt>
<rscale>  0 0.53635359E+03</rscale>
<asrwt>0</asrwt>
<pdfrwt beam="1">  1        2 0.16811385E+00 0.68885245E+03</pdfrwt>
<pdfrwt beam="2">  1       -2 0.92290030E-01 0.68885245E+03</pdfrwt>
<totfact> 0.22484452E+01</totfact>
</mgrwt>
</event>
<event>
 4    1  0.8645356E-007  0.2407321E+04  0.7818608E-02  0.8445020E-01
         -2   -1    0    0    0  501 -0.00000000000E+00  0.00000000000E+00  0.23239633350E+04  0.23239633350E+04  0.25500000000E-02 0.  1.
          2   -1    0    0  501    0  0.00000000000E+00 -0.00000000000E+00 -0.28698338599E+04  0.28698338599E+04  0.25500000000E-02 0. -1.
    8880023    1    1    2    0    0  0.19247809942E+04 -0.12870911539E+04 -0.13226267932E+04  0.27467321228E+04  0.65864270000E+03 0.  0.
    8880022    1    1    2    0    0 -0.19247809942E+04  0.12870911539E+04  0.77675626828E+03  0.24470650721E+04  0.15294330000E+03 0.  0.
<mgrwt>
<rscale>  0 0.23853192E+04</rscale>
<asrwt>0</asrwt>
<pdfrwt beam="1">  1        2 0.44151290E+00 0.24073213E+04</pdfrwt>
<pdfrwt beam="2">  1       -2 0.35753282E+00 0.24073213E+04</pdfrwt>
<totfact> 0.24744062E-02</totfact>
</mgrwt>
</event>
<event>
 4    1  0.8645356E-007  0.8302963E+03  0.7818608E-02  0.9648756E-01
          2   -1    0    0  501    0  0.00000000000E+00  0.00000000000E+00  0.52047819902E+04  0.52047819902E+04  0.25500000000E-02 0. -1.
         -2   -1    0    0    0  501 -0.00000000000E+00 -0.00000000000E+00 -0.15261666805E+03  0.15261666807E+03  0.25500000000E-02 0.  1.
    8880023    1    1    2    0    0  0.29470135452E+03  0.41077099371E+03  0.11431625990E+04  0.14128738909E+04  0.65864270000E+03 0.  1.
    8880022    1    1    2    0    0 -0.29470135452E+03 -0.41077099371E+03  0.39090027232E+04  0.39445247674E+04  0.15294330000E+03 0. -1.
<mgrwt>
<rscale>  0 0.74151537E+03</rscale>
<asrwt>0</asrwt>
<pdfrwt beam="1">  1        2 0.80073581E+00 0.83029627E+03</pdfrwt>
<pdfrwt beam="2">  1       -2 0.23479484E-01 0.83029627E+03</pdfrwt>
<totfact> 0.34010001E-01</totfact>
</mgrwt>
</event>
<event>
 4    1  0.8645356E-007  0.1133816E+04  0.7818608E-02  0.9224309E-01
          2   -1    0    0  501    0  0.00000000000E+00  0.00000000000E+00  0.36951756896E+04  0.36951756896E+04  0.25500000000E-02 0. -1.
         -2   -1    0    0    0  501 -0.00000000000E+00 -0.00000000000E+00 -0.81238375586E+03  0.81238375587E+03  0.25500000000E-02 0.  1.
    8880023    1    1    2    0    0  0.92247713388E+03  0.27633200436E+02 -0.31417267052E+03  0.11765382822E+04  0.65864270000E+03 0.  1.
    8880022    1    1    2    0    0 -0.92247713388E+03 -0.27633200436E+02  0.31969646042E+04  0.33310211632E+04  0.15294330000E+03 0.  0.
<mgrwt>
<rscale>  0 0.10806007E+04</rscale>
<asrwt>0</asrwt>
<pdfrwt beam="1">  1        2 0.56848857E+00 0.11338156E+04</pdfrwt>
<pdfrwt beam="2">  1       -2 0.12498212E+00 0.11338156E+04</pdfrwt>
<totfact> 0.28595659E-01</totfact>
</mgrwt>
</event>
<event>
 4    1  0.8645356E-007  0.8082975E+03  0.7818608E-02  0.9693134E-01
         -2   -1    0    0    0  501 -0.00000000000E+00  0.00000000000E+00  0.44217418075E+03  0.44217418076E+03  0.25500000000E-02 0.  1.
          2   -1    0    0  501    0  0.00000000000E+00 -0.00000000000E+00 -0.21123195268E+04  0.21123195268E+04  0.25500000000E-02 0. -1.
    8880023    1    1    2    0    0 -0.40987830956E+03  0.22701175394E+03  0.50323861059E+01  0.80831311770E+03  0.65864270000E+03 0.  1.
    8880022    1    1    2    0    0  0.40987830956E+03 -0.22701175394E+03 -0.16751777321E+04  0.17461805898E+04  0.15294330000E+03 0.  0.
<mgrwt>
<rscale>  0 0.71427049E+03</rscale>
<asrwt>0</asrwt>
<pdfrwt beam="1">  1        2 0.32497223E+00 0.80829745E+03</pdfrwt>
<pdfrwt beam="2">  1       -2 0.68026798E-01 0.80829745E+03</pdfrwt>
<totfact> 0.11775368E+01</totfact>
</mgrwt>
</event>
<event>
 4    1  0.8645356E-007  0.9499757E+03  0.7818608E-02  0.9450149E-01
          2   -1    0    0  501    0  0.00000000000E+00  0.00000000000E+00  0.96534851873E+03  0.96534851873E+03  0.25500000000E-02 0. -1.
         -2   -1    0    0    0  501 -0.00000000000E+00 -0.00000000000E+00 -0.87474247398E+03  0.87474247399E+03  0.25500000000E-02 0.  1.
    8880023    1    1    2    0    0 -0.35681622667E+03  0.58423102728E+03  0.45086012450E+03  0.10515363860E+04  0.65864270000E+03 0.  0.
    8880022    1    1    2    0    0  0.35681622667E+03 -0.58423102728E+03 -0.36025407976E+03  0.78855460677E+03  0.15294330000E+03 0.  0.
<mgrwt>
<rscale>  0 0.88061064E+03</rscale>
<asrwt>0</asrwt>
<pdfrwt beam="1">  1        2 0.14851516E+00 0.94997575E+03</pdfrwt>
<pdfrwt beam="2">  1       -2 0.13457576E+00 0.94997575E+03</pdfrwt>
<totfact> 0.10510898E+01</totfact>
</mgrwt>
</event>
<event>
 4    1  0.8645356E-007  0.6981271E+03  0.7818608E-02  0.1000506E+00
         -2   -1    0    0    0  501 -0.00000000000E+00  0.00000000000E+00  0.65733167520E+03  0.65733167520E+03  0.25500000000E-02 0.  1.
          2   -1    0    0  501    0  0.00000000000E+00 -0.00000000000E+00 -0.11456982196E+04  0.11456982196E+04  0.25500000000E-02 0. -1.
    8880023    1    1    2    0    0 -0.12243984303E+03  0.19641729889E+03  0.44594508853E+03  0.82840117016E+03  0.65864270000E+03 0.  1.
    8880022    1    1    2    0    0  0.12243984303E+03 -0.19641729889E+03 -0.93431163293E+03  0.97462872464E+03  0.15294330000E+03 0.  0.
<mgrwt>
<rscale>  0 0.55428877E+03</rscale>
<asrwt>0</asrwt>
<pdfrwt beam="1">  1        2 0.17626126E+00 0.69812712E+03</pdfrwt>
<pdfrwt beam="2">  1       -2 0.10112795E+00 0.69812712E+03</pdfrwt>
<totfact> 0.16833385E+01</totfact>
</mgrwt>
</event>
<event>
 4    1  0.1087894E-006  0.7048727E+03  0.7818608E-02  0.9977557E-01
         -2   -1    0    0    0  501 -0.00000000000E+00  0.00000000000E+00  0.67972286187E+03  0.67972286187E+03  0.25500000000E-02 0.  1.
          2   -1    0    0  501    0  0.00000000000E+00 -0.00000000000E+00 -0.18108981227E+04  0.18108981227E+04  0.25500000000E-02 0. -1.
    8880023    1    1    2    0    0 -0.41795601756E+02 -0.24756516360E+03  0.48003702111E+03  0.85280779221E+03  0.65864270000E+03 0.  1.
    8880022    1    1    2    0    0  0.41795601756E+02  0.24756516360E+03 -0.16112122819E+04  0.16378131923E+04  0.15294330000E+03 0.  0.
<mgrwt>
<rscale>  0 0.56645347E+03</rscale>
<asrwt>0</asrwt>
<pdfrwt beam="1">  1        2 0.27859971E+00 0.70487275E+03</pdfrwt>
<pdfrwt beam="2">  1       -2 0.10457275E+00 0.70487275E+03</pdfrwt>
<totfact> 0.65620731E+00</totfact>
</mgrwt>
</event>
<event>
 4    1  0.8645356E-007  0.8673500E+03  0.7818608E-02  0.9580621E-01
         -2   -1    0    0    0  501 -0.00000000000E+00  0.00000000000E+00  0.37803600014E+03  0.37803600015E+03  0.25500000000E-02 0.  1.
          2   -1    0    0  501    0  0.00000000000E+00 -0.00000000000E+00 -0.13943599913E+04  0.13943599913E+04  0.25500000000E-02 0. -1.
    8880023    1    1    2    0    0 -0.56181179934E+03  0.53416488916E+02 -0.60943271176E+03  0.10600491760E+04  0.65864270000E+03 0. -1.
    8880022    1    1    2    0    0  0.56181179934E+03 -0.53416488916E+02 -0.40689127937E+03  0.71234681540E+03  0.15294330000E+03 0.  1.
<mgrwt>
<rscale>  0 0.78592228E+03</rscale>
<asrwt>0</asrwt>
<pdfrwt beam="1">  1        2 0.21451692E+00 0.86735000E+03</pdfrwt>
<pdfrwt beam="2">  1       -2 0.58159385E-01 0.86735000E+03</pdfrwt>
<totfact> 0.40696434E+01</totfact>
</mgrwt>
</event>
<event>
 4    1  0.8645356E-007  0.7948341E+03  0.7818608E-02  0.9722079E-01
          2   -1    0    0  501    0  0.00000000000E+00  0.00000000000E+00  0.15451142363E+04  0.15451142363E+04  0.25500000000E-02 0. -1.
         -2   -1    0    0    0  501 -0.00000000000E+00 -0.00000000000E+00 -0.45877455979E+03  0.45877455979E+03  0.25500000000E-02 0.  1.
    8880023    1    1    2    0    0 -0.95251291741E+02  0.43460127945E+03 -0.26929326595E+02  0.79529018325E+03  0.65864270000E+03 0.  1.
    8880022    1    1    2    0    0  0.95251291741E+02 -0.43460127945E+03  0.11132690031E+04  0.12085986129E+04  0.15294330000E+03 0.  0.
<mgrwt>
<rscale>  0 0.69717296E+03</rscale>
<asrwt>0</asrwt>
<pdfrwt beam="1">  1        2 0.23770988E+00 0.79483413E+03</pdfrwt>
<pdfrwt beam="2">  1       -2 0.70580701E-01 0.79483413E+03</pdfrwt>
<totfact> 0.22275567E+01</totfact>
</mgrwt>
</event>
<event>
 4    1  0.8645356E-007  0.7913083E+03  0.7818608E-02  0.9729914E-01
          2   -1    0    0  501    0  0.00000000000E+00  0.00000000000E+00  0.13816143031E+04  0.13816143032E+04  0.25500000000E-02 0. -1.
         -2   -1    0    0    0  501 -0.00000000000E+00 -0.00000000000E+00 -0.36516362646E+03  0.36516362647E+03  0.25500000000E-02 0.  1.
    8880023    1    1    2    0    0 -0.28440341470E+02  0.43766399615E+03  0.10089297500E+04  0.12822277774E+04  0.65864270000E+03 0.  0.
    8880022    1    1    2    0    0  0.28440341470E+02 -0.43766399615E+03  0.75209267079E+01  0.46455015219E+03  0.15294330000E+03 0.  0.
<mgrwt>
<rscale>  0 0.69263305E+03</rscale>
<asrwt>0</asrwt>
<pdfrwt beam="1">  1        2 0.21255604E+00 0.79130830E+03</pdfrwt>
<pdfrwt beam="2">  1       -2 0.56179021E-01 0.79130830E+03</pdfrwt>
<totfact> 0.44814226E+01</totfact>
</mgrwt>
</event>
<event>
 4    1  0.8645356E-007  0.1369564E+04  0.7818608E-02  0.9007700E-01
          2   -1    0    0  501    0  0.00000000000E+00  0.00000000000E+00  0.23306857955E+04  0.23306857955E+04  0.25500000000E-02 0. -1.
         -2   -1    0    0    0  501 -0.00000000000E+00 -0.00000000000E+00 -0.78517808689E+03  0.78517808689E+03  0.25500000000E-02 0.  1.
    8880023    1    1    2    0    0  0.42277264733E+03 -0.11239034043E+04  0.34790793192E+03  0.14130625283E+04  0.65864270000E+03 0.  0.
    8880022    1    1    2    0    0 -0.42277264733E+03  0.11239034043E+04  0.11975997767E+04  0.17028013541E+04  0.15294330000E+03 0.  0.
<mgrwt>
<rscale>  0 0.13279359E+04</rscale>
<asrwt>0</asrwt>
<pdfrwt beam="1">  1        2 0.35856705E+00 0.13695641E+04</pdfrwt>
<pdfrwt beam="2">  1       -2 0.12079663E+00 0.13695641E+04</pdfrwt>
<totfact> 0.21863785E+00</totfact>
</mgrwt>
</event>
<event>
 4    1  0.8645356E-007  0.7105344E+03  0.7818608E-02  0.9956022E-01
          2   -1    0    0  501    0  0.00000000000E+00  0.00000000000E+00  0.11994535190E+04  0.11994535190E+04  0.25500000000E-02 0. -1.
         -2   -1    0    0    0  501 -0.00000000000E+00 -0.00000000000E+00 -0.84573936290E+03  0.84573936290E+03  0.25500000000E-02 0.  1.
    8880023    1    1    2    0    0  0.25804399453E+03  0.66800029251E+02 -0.66984254515E+03  0.97649792042E+03  0.65864270000E+03 0.  1.
    8880022    1    1    2    0    0 -0.25804399453E+03 -0.66800029251E+02  0.10235567013E+04  0.10686949615E+04  0.15294330000E+03 0.  0.
<mgrwt>
<rscale>  0 0.57621383E+03</rscale>
<asrwt>0</asrwt>
<pdfrwt beam="1">  1        2 0.18453131E+00 0.71053441E+03</pdfrwt>
<pdfrwt beam="2">  1       -2 0.13011375E+00 0.71053441E+03</pdfrwt>
<totfact> 0.84238277E+00</totfact>
</mgrwt>
</event>
<event>
 4    1  0.8645356E-007  0.7123398E+03  0.7818608E-02  0.9949413E-01
         -2   -1    0    0    0  501 -0.00000000000E+00  0.00000000000E+00  0.46524097892E+03  0.46524097893E+03  0.25500000000E-02 0.  1.
          2   -1    0    0  501    0  0.00000000000E+00 -0.00000000000E+00 -0.79093893073E+03  0.79093893073E+03  0.25500000000E-02 0. -1.
    8880023    1    1    2    0    0 -0.22653701488E+03  0.14932775219E+03  0.10981420184E+03  0.72075457811E+03  0.65864270000E+03 0.  1.
    8880022    1    1    2    0    0  0.22653701488E+03 -0.14932775219E+03 -0.43551215364E+03  0.53542533155E+03  0.15294330000E+03 0.  0.
<mgrwt>
<rscale>  0 0.57925150E+03</rscale>
<asrwt>0</asrwt>
<pdfrwt beam="1">  1        2 0.12168291E+00 0.71233981E+03</pdfrwt>
<pdfrwt beam="2">  1       -2 0.71575535E-01 0.71233981E+03</pdfrwt>
<totfact> 0.62917639E+01</totfact>
</mgrwt>
</event>
<event>
 4    1  0.1150211E-006  0.7258598E+03  0.7818608E-02  0.9903235E-01
          2   -1    0    0  501    0  0.00000000000E+00  0.00000000000E+00  0.27814102897E+04  0.27814102897E+04  0.25500000000E-02 0. -1.
         -2   -1    0    0    0  501 -0.00000000000E+00 -0.00000000000E+00 -0.94949468475E+03  0.94949468475E+03  0.25500000000E-02 0.  1.
    8880023    1    1    2    0    0 -0.28496771955E+02 -0.30372703880E+03 -0.79811737736E+03  0.10788251640E+04  0.65864270000E+03 0.  1.
    8880022    1    1    2    0    0  0.28496771955E+02  0.30372703880E+03  0.26300329823E+04  0.26520798105E+04  0.15294330000E+03 0.  0.
<mgrwt>
<rscale>  0 0.60104746E+03</rscale>
<asrwt>0</asrwt>
<pdfrwt beam="1">  1        2 0.42790927E+00 0.72585976E+03</pdfrwt>
<pdfrwt beam="2">  1       -2 0.14607611E+00 0.72585976E+03</pdfrwt>
<totfact> 0.81400497E-01</totfact>
</mgrwt>
</event>
<event>
 4    1  0.8645356E-007  0.7021073E+03  0.7818608E-02  0.9988569E-01
         -2   -1    0    0    0  501 -0.00000000000E+00  0.00000000000E+00  0.56803419631E+03  0.56803419632E+03  0.25500000000E-02 0.  1.
          2   -1    0    0  501    0  0.00000000000E+00 -0.00000000000E+00 -0.86840065926E+03  0.86840065926E+03  0.25500000000E-02 0. -1.
    8880023    1    1    2    0    0  0.21542812979E+03  0.11285043031E+03  0.30566313221E+03  0.76575756959E+03  0.65864270000E+03 0.  1.
    8880022    1    1    2    0    0 -0.21542812979E+03 -0.11285043031E+03 -0.60602959516E+03  0.67067728599E+03  0.15294330000E+03 0.  0.
<mgrwt>
<rscale>  0 0.56154318E+03</rscale>
<asrwt>0</asrwt>
<pdfrwt beam="1">  1        2 0.13360010E+00 0.70210733E+03</pdfrwt>
<pdfrwt beam="2">  1       -2 0.87389876E-01 0.70210733E+03</pdfrwt>
<totfact> 0.35516121E+01</totfact>
</mgrwt>
</event>
<event>
 4    1  0.8645356E-007  0.8565644E+03  0.7818608E-02  0.9599704E-01
          2   -1    0    0  501    0  0.00000000000E+00  0.00000000000E+00  0.94384665194E+03  0.94384665194E+03  0.25500000000E-02 0. -1.
         -2   -1    0    0    0  501 -0.00000000000E+00 -0.00000000000E+00 -0.15984528237E+04  0.15984528237E+04  0.25500000000E-02 0.  1.
    8880023    1    1    2    0    0 -0.12534538247E+03  0.53308613515E+03 -0.13778015987E+04  0.16223562322E+04  0.65864270000E+03 0.  1.
    8880022    1    1    2    0    0  0.12534538247E+03 -0.53308613515E+03  0.72319542703E+03  0.91994324340E+03  0.15294330000E+03 0.  0.
<mgrwt>
<rscale>  0 0.77315758E+03</rscale>
<asrwt>0</asrwt>
<pdfrwt beam="1">  1        2 0.14520718E+00 0.85656436E+03</pdfrwt>
<pdfrwt beam="2">  1       -2 0.24591582E+00 0.85656436E+03</pdfrwt>
<totfact> 0.18951814E+00</totfact>
</mgrwt>
</event>
<event>
 4    1  0.8645356E-007  0.6861952E+03  0.7818608E-02  0.1006016E+00
          2   -1    0    0  501    0  0.00000000000E+00  0.00000000000E+00  0.14276512682E+04  0.14276512682E+04  0.25500000000E-02 0. -1.
         -2   -1    0    0    0  501 -0.00000000000E+00 -0.00000000000E+00 -0.23210078597E+03  0.23210078599E+03  0.25500000000E-02 0.  1.
    8880023    1    1    2    0    0  0.17128967179E+03 -0.87826853161E+02  0.33277209742E+03  0.76262781413E+03  0.65864270000E+03 0.  1.
    8880022    1    1    2    0    0 -0.17128967179E+03  0.87826853161E+02  0.86277838486E+03  0.89712424011E+03  0.15294330000E+03 0.  0.
<mgrwt>
<rscale>  0 0.53089196E+03</rscale>
<asrwt>0</asrwt>
<pdfrwt beam="1">  1        2 0.21963866E+00 0.68619524E+03</pdfrwt>
<pdfrwt beam="2">  1       -2 0.35707813E-01 0.68619524E+03</pdfrwt>
<totfact> 0.10523447E+02</totfact>
</mgrwt>
</event>
<event>
 4    1  0.8645356E-007  0.7749476E+03  0.7818608E-02  0.9767842E-01
          2   -1    0    0  501    0  0.00000000000E+00  0.00000000000E+00  0.74169560251E+03  0.74169560252E+03  0.25500000000E-02 0. -1.
         -2   -1    0    0    0  501 -0.00000000000E+00 -0.00000000000E+00 -0.11501617468E+04  0.11501617468E+04  0.25500000000E-02 0.  1.
    8880023    1    1    2    0    0  0.10543252173E+03  0.39448385593E+03 -0.93098060558E+03  0.12113086409E+04  0.65864270000E+03 0.  0.
    8880022    1    1    2    0    0 -0.10543252173E+03 -0.39448385593E+03  0.52251446132E+03  0.68054870842E+03  0.15294330000E+03 0.  0.
<mgrwt>
<rscale>  0 0.67117256E+03</rscale>
<asrwt>0</asrwt>
<pdfrwt beam="1">  1        2 0.11410702E+00 0.77494757E+03</pdfrwt>
<pdfrwt beam="2">  1       -2 0.17694796E+00 0.77494757E+03</pdfrwt>
<totfact> 0.73539758E+00</totfact>
</mgrwt>
</event>
<event>
 4    1  0.8645356E-007  0.7941957E+03  0.7818608E-02  0.9723490E-01
          2   -1    0    0  501    0  0.00000000000E+00  0.00000000000E+00  0.97769205227E+03  0.97769205227E+03  0.25500000000E-02 0. -1.
         -2   -1    0    0    0  501 -0.00000000000E+00 -0.00000000000E+00 -0.47037818781E+03  0.47037818782E+03  0.25500000000E-02 0.  1.
    8880023    1    1    2    0    0 -0.19229376307E+03 -0.39994963326E+03  0.54813597419E+02  0.79608500625E+03  0.65864270000E+03 0.  1.
    8880022    1    1    2    0    0  0.19229376307E+03  0.39994963326E+03  0.45250026704E+03  0.65198523384E+03  0.15294330000E+03 0.  0.
<mgrwt>
<rscale>  0 0.69635295E+03</rscale>
<asrwt>0</asrwt>
<pdfrwt beam="1">  1        2 0.15041416E+00 0.79419570E+03</pdfrwt>
<pdfrwt beam="2">  1       -2 0.72365876E-01 0.79419570E+03</pdfrwt>
<totfact> 0.45521327E+01</totfact>
</mgrwt>
</event>
<event>
 4    1  0.8645356E-007  0.7253336E+03  0.7818608E-02  0.9904936E-01
         -2   -1    0    0    0  501 -0.00000000000E+00  0.00000000000E+00  0.86769314417E+03  0.86769314418E+03  0.25500000000E-02 0.  1.
          2   -1    0    0  501    0  0.00000000000E+00 -0.00000000000E+00 -0.73091693744E+03  0.73091693744E+03  0.25500000000E-02 0. -1.
    8880023    1    1    2    0    0 -0.51402170022E+02  0.29942676288E+03  0.65594558777E+03  0.97794344918E+03  0.65864270000E+03 0.  1.
    8880022    1    1    2    0    0  0.51402170022E+02 -0.29942676288E+03 -0.51916938104E+03  0.62066663245E+03  0.15294330000E+03 0.  0.
<mgrwt>
<rscale>  0 0.60022684E+03</rscale>
<asrwt>0</asrwt>
<pdfrwt beam="1">  1        2 0.11244876E+00 0.72533356E+03</pdfrwt>
<pdfrwt beam="2">  1       -2 0.13349125E+00 0.72533356E+03</pdfrwt>
<totfact> 0.16010165E+01</totfact>
</mgrwt>
</event>
<event>
 4    1  0.8645356E-007  0.6913564E+03  0.7818608E-02  0.1003514E+00
          2   -1    0    0  501    0  0.00000000000E+00  0.00000000000E+00  0.17206521018E+04  0.17206521018E+04  0.25500000000E-02 0. -1.
         -2   -1    0    0    0  501 -0.00000000000E+00 -0.00000000000E+00 -0.15355053018E+03  0.15355053021E+03  0.25500000000E-02 0.  1.
    8880023    1    1    2    0    0  0.18447210638E+03  0.10066545988E+03  0.76535639421E+03  0.10313797115E+04  0.65864270000E+03 0.  1.
    8880022    1    1    2    0    0 -0.18447210638E+03 -0.10066545988E+03  0.80174517741E+03  0.84282292052E+03  0.15294330000E+03 0.  0.
<mgrwt>
<rscale>  0 0.54135706E+03</rscale>
<asrwt>0</asrwt>
<pdfrwt beam="1">  1        2 0.26471571E+00 0.69135642E+03</pdfrwt>
<pdfrwt beam="2">  1       -2 0.23623158E-01 0.69135642E+03</pdfrwt>
<totfact> 0.15538052E+02</totfact>
</mgrwt>
</event>
<event>
 4    1  0.8645356E-007  0.7071003E+03  0.7818608E-02  0.9968930E-01
          2   -1    0    0  501    0  0.00000000000E+00  0.00000000000E+00  0.25748749069E+04  0.25748749069E+04  0.25500000000E-02 0. -1.
         -2   -1    0    0    0  501 -0.00000000000E+00 -0.00000000000E+00 -0.86998212161E+03  0.86998212162E+03  0.25500000000E-02 0.  1.
    8880023    1    1    2    0    0  0.17589512487E+03 -0.18772729489E+03 -0.71554866638E+03  0.10059824712E+04  0.65864270000E+03 0.  1.
    8880022    1    1    2    0    0 -0.17589512487E+03  0.18772729489E+03  0.24204414517E+04  0.24388745573E+04  0.15294330000E+03 0.  0.
<mgrwt>
<rscale>  0 0.57033822E+03</rscale>
<asrwt>0</asrwt>
<pdfrwt beam="1">  1        2 0.39613460E+00 0.70710030E+03</pdfrwt>
<pdfrwt beam="2">  1       -2 0.13384340E+00 0.70710030E+03</pdfrwt>
<totfact> 0.13503520E+00</totfact>
</mgrwt>
</event>
<event>
 4    1  0.8645356E-007  0.9280075E+03  0.7818608E-02  0.9482489E-01
         -2   -1    0    0    0  501 -0.00000000000E+00  0.00000000000E+00  0.10376350376E+04  0.10376350376E+04  0.25500000000E-02 0.  1.
          2   -1    0    0  501    0  0.00000000000E+00 -0.00000000000E+00 -0.18843218225E+04  0.18843218225E+04  0.25500000000E-02 0. -1.
    8880023    1    1    2    0    0  0.65346229464E+03 -0.19358258304E+02  0.74784715459E+03  0.11918360985E+04  0.65864270000E+03 0.  1.
    8880022    1    1    2    0    0 -0.65346229464E+03  0.19358258304E+02 -0.15945339395E+04  0.17301207617E+04  0.15294330000E+03 0.  0.
<mgrwt>
<rscale>  0 0.85587259E+03</rscale>
<asrwt>0</asrwt>
<pdfrwt beam="1">  1        2 0.28989566E+00 0.92800750E+03</pdfrwt>
<pdfrwt beam="2">  1       -2 0.15963616E+00 0.92800750E+03</pdfrwt>
<totfact> 0.19758935E+00</totfact>
</mgrwt>
</event>
<event>
 4    1  0.8645356E-007  0.8360646E+03  0.7818608E-02  0.9637646E-01
         -2   -1    0    0    0  501 -0.00000000000E+00  0.00000000000E+00  0.76129259976E+03  0.76129259977E+03  0.25500000000E-02 0.  1.
          2   -1    0    0  501    0  0.00000000000E+00 -0.00000000000E+00 -0.70578032469E+03  0.70578032470E+03  0.25500000000E-02 0. -1.
    8880023    1    1    2    0    0  0.50067122347E+03 -0.12050811630E+03  0.28444174447E+03  0.88312580778E+03  0.65864270000E+03 0.  0.
    8880022    1    1    2    0    0 -0.50067122347E+03  0.12050811630E+03 -0.22892946940E+03  0.58394711669E+03  0.15294330000E+03 0.  0.
<mgrwt>
<rscale>  0 0.74853862E+03</rscale>
<asrwt>0</asrwt>
<pdfrwt beam="1">  1        2 0.10858159E+00 0.83606464E+03</pdfrwt>
<pdfrwt beam="2">  1       -2 0.11712194E+00 0.83606464E+03</pdfrwt>
<totfact> 0.23004772E+01</totfact>
</mgrwt>
</event>
<event>
 4    1  0.8645356E-007  0.8369027E+03  0.7818608E-02  0.9636048E-01
         -2   -1    0    0    0  501 -0.00000000000E+00  0.00000000000E+00  0.43753452335E+03  0.43753452335E+03  0.25500000000E-02 0.  1.
          2   -1    0    0  501    0  0.00000000000E+00 -0.00000000000E+00 -0.25932969777E+04  0.25932969777E+04  0.25500000000E-02 0. -1.
    8880023    1    1    2    0    0  0.14903857564E+03  0.49435149320E+03 -0.29484453176E+02  0.83742189791E+03  0.65864270000E+03 0.  1.
    8880022    1    1    2    0    0 -0.14903857564E+03 -0.49435149320E+03 -0.21262780011E+04  0.21934096031E+04  0.15294330000E+03 0.  0.
<mgrwt>
<rscale>  0 0.74955523E+03</rscale>
<asrwt>0</asrwt>
<pdfrwt beam="1">  1        2 0.39896876E+00 0.83690268E+03</pdfrwt>
<pdfrwt beam="2">  1       -2 0.67313005E-01 0.83690268E+03</pdfrwt>
<totfact> 0.64471230E+00</totfact>
</mgrwt>
</event>
<event>
 4    1  0.8645356E-007  0.1011269E+04  0.7818608E-02  0.9366961E-01
          2   -1    0    0  501    0  0.00000000000E+00  0.00000000000E+00  0.15390622471E+04  0.15390622471E+04  0.25500000000E-02 0. -1.
         -2   -1    0    0    0  501 -0.00000000000E+00 -0.00000000000E+00 -0.80041603151E+03  0.80041603152E+03  0.25500000000E-02 0.  1.
    8880023    1    1    2    0    0 -0.56714446752E+03  0.51691537237E+03  0.10855145905E+04  0.14835789435E+04  0.65864270000E+03 0. -1.
    8880022    1    1    2    0    0  0.56714446752E+03 -0.51691537237E+03 -0.34686837494E+03  0.85589933507E+03  0.15294330000E+03 0.  0.
<mgrwt>
<rscale>  0 0.94845274E+03</rscale>
<asrwt>0</asrwt>
<pdfrwt beam="1">  1        2 0.23677880E+00 0.10112688E+04</pdfrwt>
<pdfrwt beam="2">  1       -2 0.12314093E+00 0.10112688E+04</pdfrwt>
<totfact> 0.59641359E+00</totfact>
</mgrwt>
</event>
<event>
 4    1  0.8645356E-007  0.6772363E+03  0.7818608E-02  0.1010932E+00
         -2   -1    0    0    0  501 -0.00000000000E+00  0.00000000000E+00  0.99669077695E+02  0.99669077728E+02  0.25500000000E-02 0.  1.
          2   -1    0    0  501    0  0.00000000000E+00 -0.00000000000E+00 -0.21246038222E+04  0.21246038222E+04  0.25500000000E-02 0. -1.
    8880023    1    1    2    0    0  0.66432143479E+02  0.14291788853E+03 -0.12864300435E+04  0.14538057696E+04  0.65864270000E+03 0.  1.
    8880022    1    1    2    0    0 -0.66432143479E+02 -0.14291788853E+03 -0.73850470102E+03  0.77046713038E+03  0.15294330000E+03 0. -1.
<mgrwt>
<rscale>  0 0.51105809E+03</rscale>
<asrwt>0</asrwt>
<pdfrwt beam="1">  1        2 0.32686209E+00 0.67723627E+03</pdfrwt>
<pdfrwt beam="2">  1       -2 0.15333706E-01 0.67723627E+03</pdfrwt>
<totfact> 0.19872926E+02</totfact>
</mgrwt>
</event>
<event>
 4    1  0.8645356E-007  0.1129730E+04  0.7818608E-02  0.9228656E-01
         -2   -1    0    0    0  501 -0.00000000000E+00  0.00000000000E+00  0.63831666107E+03  0.63831666108E+03  0.25500000000E-02 0.  1.
          2   -1    0    0  501    0  0.00000000000E+00 -0.00000000000E+00 -0.25243228883E+04  0.25243228883E+04  0.25500000000E-02 0. -1.
    8880023    1    1    2    0    0 -0.83290508947E+03 -0.38567989845E+03 -0.81898623862E+02  0.11326947793E+04  0.65864270000E+03 0.  1.
    8880022    1    1    2    0    0  0.83290508947E+03  0.38567989845E+03 -0.18041076034E+04  0.20299447701E+04  0.15294330000E+03 0.  0.
<mgrwt>
<rscale>  0 0.10762489E+04</rscale>
<asrwt>0</asrwt>
<pdfrwt beam="1">  1        2 0.38835736E+00 0.11297301E+04</pdfrwt>
<pdfrwt beam="2">  1       -2 0.98202564E-01 0.11297301E+04</pdfrwt>
<totfact> 0.28826450E+00</totfact>
</mgrwt>
</event>
<event>
 4    1  0.8645356E-007  0.7961461E+03  0.7818608E-02  0.9719192E-01
         -2   -1    0    0    0  501 -0.00000000000E+00  0.00000000000E+00  0.41890648255E+03  0.41890648256E+03  0.25500000000E-02 0.  1.
          2   -1    0    0  501    0  0.00000000000E+00 -0.00000000000E+00 -0.12743123387E+04  0.12743123387E+04  0.25500000000E-02 0. -1.
    8880023    1    1    2    0    0 -0.21028443205E+03 -0.39473898949E+03 -0.91942431010E+03  0.12162194212E+04  0.65864270000E+03 0. -1.
    8880022    1    1    2    0    0  0.21028443205E+03  0.39473898949E+03  0.64018453981E+02  0.47699940005E+03  0.15294330000E+03 0.  0.
<mgrwt>
<rscale>  0 0.69885533E+03</rscale>
<asrwt>0</asrwt>
<pdfrwt beam="1">  1        2 0.19604805E+00 0.79614610E+03</pdfrwt>
<pdfrwt beam="2">  1       -2 0.64447152E-01 0.79614610E+03</pdfrwt>
<totfact> 0.38612308E+01</totfact>
</mgrwt>
</event>
<event>
 4    1  0.8645356E-007  0.7061305E+03  0.7818608E-02  0.9972661E-01
          2   -1    0    0  501    0  0.00000000000E+00  0.00000000000E+00  0.11137224489E+04  0.11137224489E+04  0.25500000000E-02 0. -1.
         -2   -1    0    0    0  501 -0.00000000000E+00 -0.00000000000E+00 -0.27864118642E+03  0.27864118643E+03  0.25500000000E-02 0.  1.
    8880023    1    1    2    0    0  0.25366423510E+03  0.21552424293E+02  0.83738200436E+03  0.10953670064E+04  0.65864270000E+03 0.  0.
    8880022    1    1    2    0    0 -0.25366423510E+03 -0.21552424293E+02 -0.23007419240E+01  0.29699662892E+03  0.15294330000E+03 0.  0.
<mgrwt>
<rscale>  0 0.56865432E+03</rscale>
<asrwt>0</asrwt>
<pdfrwt beam="1">  1        2 0.17134191E+00 0.70613048E+03</pdfrwt>
<pdfrwt beam="2">  1       -2 0.42867876E-01 0.70613048E+03</pdfrwt>
<totfact> 0.11213821E+02</totfact>
</mgrwt>
</event>
<event>
 4    1  0.8645356E-007  0.8098091E+03  0.7818608E-02  0.9689975E-01
          2   -1    0    0  501    0  0.00000000000E+00  0.00000000000E+00  0.22550846400E+04  0.22550846400E+04  0.25500000000E-02 0. -1.
         -2   -1    0    0    0  501 -0.00000000000E+00 -0.00000000000E+00 -0.90906288515E+03  0.90906288516E+03  0.25500000000E-02 0.  1.
    8880023    1    1    2    0    0 -0.45592255484E+03  0.11880728726E+03 -0.69297996566E+03  0.10658386307E+04  0.65864270000E+03 0.  1.
    8880022    1    1    2    0    0  0.45592255484E+03 -0.11880728726E+03  0.20390017205E+04  0.20983088945E+04  0.15294330000E+03 0.  0.
<mgrwt>
<rscale>  0 0.71616840E+03</rscale>
<asrwt>0</asrwt>
<pdfrwt beam="1">  1        2 0.34693610E+00 0.80980908E+03</pdfrwt>
<pdfrwt beam="2">  1       -2 0.13985583E+00 0.80980908E+03</pdfrwt>
<totfact> 0.17878377E+00</totfact>
</mgrwt>
</event>
<event>
 4    1  0.8645356E-007  0.7653430E+03  0.7818608E-02  0.9791466E-01
          2   -1    0    0  501    0  0.00000000000E+00  0.00000000000E+00  0.91714204790E+03  0.91714204791E+03  0.25500000000E-02 0. -1.
         -2   -1    0    0    0  501 -0.00000000000E+00 -0.00000000000E+00 -0.59455128026E+03  0.59455128026E+03  0.25500000000E-02 0.  1.
    8880023    1    1    2    0    0 -0.38484120232E+03 -0.61942730360E+02 -0.24748469466E+03  0.80436219031E+03  0.65864270000E+03 0.  1.
    8880022    1    1    2    0    0  0.38484120232E+03  0.61942730360E+02  0.57007546231E+03  0.70733113786E+03  0.15294330000E+03 0.  0.
<mgrwt>
<rscale>  0 0.65822520E+03</rscale>
<asrwt>0</asrwt>
<pdfrwt beam="1">  1        2 0.14109877E+00 0.76534297E+03</pdfrwt>
<pdfrwt beam="2">  1       -2 0.91469429E-01 0.76534297E+03</pdfrwt>
<totfact> 0.29465210E+01</totfact>
</mgrwt>
</event>
<event>
 4    1  0.8645356E-007  0.1205908E+04  0.7818608E-02  0.9151401E-01
          2   -1    0    0  501    0  0.00000000000E+00  0.00000000000E+00  0.10191916226E+04  0.10191916226E+04  0.25500000000E-02 0. -1.
         -2   -1    0    0    0  501 -0.00000000000E+00 -0.00000000000E+00 -0.14044755439E+04  0.14044755439E+04  0.25500000000E-02 0.  1.
    8880023    1    1    2    0    0 -0.89335236392E+03 -0.47151351180E+03 -0.64769898042E+03  0.13688417050E+04  0.65864270000E+03 0.  0.
    8880022    1    1    2    0    0  0.89335236392E+03  0.47151351180E+03  0.26241505911E+03  0.10548254615E+04  0.15294330000E+03 0.  0.
<mgrwt>
<rscale>  0 0.11569444E+04</rscale>
<asrwt>0</asrwt>
<pdfrwt beam="1">  1        2 0.15679871E+00 0.12059078E+04</pdfrwt>
<pdfrwt beam="2">  1       -2 0.21607316E+00 0.12059078E+04</pdfrwt>
<totfact> 0.24916195E+00</totfact>
</mgrwt>
</event>
<event>
 4    1  0.8645356E-007  0.8399258E+03  0.7818608E-02  0.9630320E-01
          2   -1    0    0  501    0  0.00000000000E+00  0.00000000000E+00  0.13808061307E+04  0.13808061307E+04  0.25500000000E-02 0. -1.
         -2   -1    0    0    0  501 -0.00000000000E+00 -0.00000000000E+00 -0.59097260436E+03  0.59097260437E+03  0.25500000000E-02 0.  1.
    8880023    1    1    2    0    0  0.40864101930E+03  0.32353915469E+03 -0.18110035591E+03  0.85922791647E+03  0.65864270000E+03 0.  1.
    8880022    1    1    2    0    0 -0.40864101930E+03 -0.32353915469E+03  0.97093388227E+03  0.11125508186E+04  0.15294330000E+03 0.  0.
<mgrwt>
<rscale>  0 0.75321483E+03</rscale>
<asrwt>0</asrwt>
<pdfrwt beam="1">  1        2 0.21243171E+00 0.83992575E+03</pdfrwt>
<pdfrwt beam="2">  1       -2 0.90918863E-01 0.83992575E+03</pdfrwt>
<totfact> 0.15498503E+01</totfact>
</mgrwt>
</event>
<event>
 4    1  0.8645356E-007  0.1155329E+04  0.7818608E-02  0.9201818E-01
         -2   -1    0    0    0  501 -0.00000000000E+00  0.00000000000E+00  0.18510337082E+04  0.18510337082E+04  0.25500000000E-02 0.  1.
          2   -1    0    0  501    0  0.00000000000E+00 -0.00000000000E+00 -0.15527052693E+04  0.15527052693E+04  0.25500000000E-02 0. -1.
    8880023    1    1    2    0    0 -0.94150295579E+03  0.12060857971E+03 -0.11728129239E+04  0.16462911668E+04  0.65864270000E+03 0. -1.
    8880022    1    1    2    0    0  0.94150295579E+03 -0.12060857971E+03  0.14711413627E+04  0.17574478107E+04  0.15294330000E+03 0.  0.
<mgrwt>
<rscale>  0 0.11034678E+04</rscale>
<asrwt>0</asrwt>
<pdfrwt beam="1">  1        2 0.23887773E+00 0.11553287E+04</pdfrwt>
<pdfrwt beam="2">  1       -2 0.28477442E+00 0.11553287E+04</pdfrwt>
<totfact> 0.45760768E-01</totfact>
</mgrwt>
</event>
<event>
 4    1  0.8645356E-007  0.9864380E+03  0.7818608E-02  0.9399520E-01
          2   -1    0    0  501    0  0.00000000000E+00  0.00000000000E+00  0.28267754497E+04  0.28267754497E+04  0.25500000000E-02 0. -1.
         -2   -1    0    0    0  501 -0.00000000000E+00 -0.00000000000E+00 -0.30751769995E+03  0.30751769997E+03  0.25500000000E-02 0.  1.
    8880023    1    1    2    0    0  0.51943487392E+03 -0.51907335414E+03  0.84192431412E+03  0.12968795211E+04  0.65864270000E+03 0.  1.
    8880022    1    1    2    0    0 -0.51943487392E+03  0.51907335414E+03  0.16773334356E+04  0.18374136286E+04  0.15294330000E+03 0. -1.
<mgrwt>
<rscale>  0 0.92115202E+03</rscale>
<asrwt>0</asrwt>
<pdfrwt beam="1">  1        2 0.43488855E+00 0.98643801E+03</pdfrwt>
<pdfrwt beam="2">  1       -2 0.47310413E-01 0.98643801E+03</pdfrwt>
<totfact> 0.96286733E+00</totfact>
</mgrwt>
</event>
<event>
 4    1  0.8645356E-007  0.9878630E+03  0.7818608E-02  0.9397612E-01
          2   -1    0    0  501    0  0.00000000000E+00  0.00000000000E+00  0.87292014399E+03  0.87292014399E+03  0.25500000000E-02 0. -1.
         -2   -1    0    0    0  501 -0.00000000000E+00 -0.00000000000E+00 -0.19630892241E+04  0.19630892241E+04  0.25500000000E-02 0.  1.
    8880023    1    1    2    0    0  0.57083758270E+03 -0.46498113793E+03 -0.16330229154E+04  0.19085693734E+04  0.65864270000E+03 0.  0.
    8880022    1    1    2    0    0 -0.57083758270E+03  0.46498113793E+03  0.54285383524E+03  0.92743999477E+03  0.15294330000E+03 0.  0.
<mgrwt>
<rscale>  0 0.92272491E+03</rscale>
<asrwt>0</asrwt>
<pdfrwt beam="1">  1        2 0.13429541E+00 0.98786295E+03</pdfrwt>
<pdfrwt beam="2">  1       -2 0.30201373E+00 0.98786295E+03</pdfrwt>
<totfact> 0.95115515E-01</totfact>
</mgrwt>
</event>
<event>
 4    1  0.8645356E-007  0.7974064E+03  0.7818608E-02  0.9716432E-01
         -2   -1    0    0    0  501 -0.00000000000E+00  0.00000000000E+00  0.23061767608E+04  0.23061767608E+04  0.25500000000E-02 0.  1.
          2   -1    0    0  501    0  0.00000000000E+00 -0.00000000000E+00 -0.34026650571E+03  0.34026650572E+03  0.25500000000E-02 0. -1.
    8880023    1    1    2    0    0  0.14782266516E+02 -0.44925302522E+03  0.20169947723E+04  0.21688994707E+04  0.65864270000E+03 0.  0.
    8880022    1    1    2    0    0 -0.14782266516E+02  0.44925302522E+03 -0.51084517195E+02  0.47754379588E+03  0.15294330000E+03 0.  0.
<mgrwt>
<rscale>  0 0.70046799E+03</rscale>
<asrwt>0</asrwt>
<pdfrwt beam="1">  1        2 0.52348693E-01 0.79740642E+03</pdfrwt>
<pdfrwt beam="2">  1       -2 0.35479642E+00 0.79740642E+03</pdfrwt>
<totfact> 0.14472701E+00</totfact>
</mgrwt>
</event>
<event>
 4    1  0.8645356E-007  0.6917475E+03  0.7818608E-02  0.1003333E+00
         -2   -1    0    0    0  501 -0.00000000000E+00  0.00000000000E+00  0.42656236733E+03  0.42656236734E+03  0.25500000000E-02 0.  1.
          2   -1    0    0  501    0  0.00000000000E+00 -0.00000000000E+00 -0.12000442290E+04  0.12000442290E+04  0.25500000000E-02 0. -1.
    8880023    1    1    2    0    0 -0.18432146609E+03 -0.10358563149E+03  0.11442504576E+03  0.70114740481E+03  0.65864270000E+03 0.  1.
    8880022    1    1    2    0    0  0.18432146609E+03  0.10358563149E+03 -0.88790690745E+03  0.92545919155E+03  0.15294330000E+03 0.  0.
<mgrwt>
<rscale>  0 0.54212686E+03</rscale>
<asrwt>0</asrwt>
<pdfrwt beam="1">  1        2 0.18462219E+00 0.69174749E+03</pdfrwt>
<pdfrwt beam="2">  1       -2 0.65624980E-01 0.69174749E+03</pdfrwt>
<totfact> 0.41485342E+01</totfact>
</mgrwt>
</event>
<event>
 4    1  0.8645356E-007  0.7839233E+03  0.7818608E-02  0.9746700E-01
          2   -1    0    0  501    0  0.00000000000E+00  0.00000000000E+00  0.44872109841E+03  0.44872109842E+03  0.25500000000E-02 0. -1.
         -2   -1    0    0    0  501 -0.00000000000E+00 -0.00000000000E+00 -0.12908081911E+04  0.12908081911E+04  0.25500000000E-02 0.  1.
    8880023    1    1    2    0    0 -0.39085460938E+03  0.16720727266E+03 -0.99123173897E+03  0.12637547880E+04  0.65864270000E+03 0.  1.
    8880022    1    1    2    0    0  0.39085460938E+03 -0.16720727266E+03  0.14914464630E+03  0.47577450146E+03  0.15294330000E+03 0.  0.
<mgrwt>
<rscale>  0 0.68303060E+03</rscale>
<asrwt>0</asrwt>
<pdfrwt beam="1">  1        2 0.69034016E-01 0.78392334E+03</pdfrwt>
<pdfrwt beam="2">  1       -2 0.19858587E+00 0.78392334E+03</pdfrwt>
<totfact> 0.96254532E+00</totfact>
</mgrwt>
</event>
<event>
 4    1  0.8645356E-007  0.8444663E+03  0.7818608E-02  0.9621815E-01
          2   -1    0    0  501    0  0.00000000000E+00  0.00000000000E+00  0.24442066515E+04  0.24442066515E+04  0.25500000000E-02 0. -1.
         -2   -1    0    0    0  501 -0.00000000000E+00 -0.00000000000E+00 -0.44005319854E+03  0.44005319855E+03  0.25500000000E-02 0.  1.
    8880023    1    1    2    0    0  0.51687106418E+03 -0.11026097573E+03  0.40993499698E+02  0.84546073418E+03  0.65864270000E+03 0.  0.
    8880022    1    1    2    0    0 -0.51687106418E+03  0.11026097573E+03  0.19631599533E+04  0.20387991159E+04  0.15294330000E+03 0.  0.
<mgrwt>
<rscale>  0 0.75868968E+03</rscale>
<asrwt>0</asrwt>
<pdfrwt beam="1">  1        2 0.37603179E+00 0.84446633E+03</pdfrwt>
<pdfrwt beam="2">  1       -2 0.67700492E-01 0.84446633E+03</pdfrwt>
<totfact> 0.77352603E+00</totfact>
</mgrwt>
</event>
<event>
 4    1  0.8645356E-007  0.6812263E+03  0.7818608E-02  0.1008638E+00
         -2   -1    0    0    0  501 -0.00000000000E+00  0.00000000000E+00  0.18740721141E+04  0.18740721141E+04  0.25500000000E-02 0.  1.
          2   -1    0    0  501    0  0.00000000000E+00 -0.00000000000E+00 -0.33437337131E+03  0.33437337132E+03  0.25500000000E-02 0. -1.
    8880023    1    1    2    0    0  0.82570361125E+02 -0.15310540603E+03  0.17609525126E+04  0.18881268728E+04  0.65864270000E+03 0.  1.
    8880022    1    1    2    0    0 -0.82570361125E+02  0.15310540603E+03 -0.22125376984E+03  0.32031861260E+03  0.15294330000E+03 0.  0.
<mgrwt>
<rscale>  0 0.52019430E+03</rscale>
<asrwt>0</asrwt>
<pdfrwt beam="1">  1        2 0.51442058E-01 0.68122635E+03</pdfrwt>
<pdfrwt beam="2">  1       -2 0.28831878E+00 0.68122635E+03</pdfrwt>
<totfact> 0.38158721E+00</totfact>
</mgrwt>
</event>
<event>
 4    1  0.8645356E-007  0.7538868E+03  0.7818608E-02  0.9821199E-01
          2   -1    0    0  501    0  0.00000000000E+00  0.00000000000E+00  0.11207778535E+04  0.11207778535E+04  0.25500000000E-02 0. -1.
         -2   -1    0    0    0  501 -0.00000000000E+00 -0.00000000000E+00 -0.90682569240E+03  0.90682569241E+03  0.25500000000E-02 0.  1.
    8880023    1    1    2    0    0 -0.11510969062E+03 -0.34825972283E+03 -0.70139711768E+03  0.10297102497E+04  0.65864270000E+03 0.  1.
    8880022    1    1    2    0    0  0.11510969062E+03  0.34825972283E+03  0.91534927882E+03  0.99789329624E+03  0.15294330000E+03 0.  0.
<mgrwt>
<rscale>  0 0.64237193E+03</rscale>
<asrwt>0</asrwt>
<pdfrwt beam="1">  1        2 0.17242736E+00 0.75388678E+03</pdfrwt>
<pdfrwt beam="2">  1       -2 0.13951164E+00 0.75388678E+03</pdfrwt>
<totfact> 0.78119923E+00</totfact>
</mgrwt>
</event>
<event>
 4    1  0.8645356E-007  0.7473793E+03  0.7818608E-02  0.9838951E-01
         -2   -1    0    0    0  501 -0.00000000000E+00  0.00000000000E+00  0.35861073476E+03  0.35861073477E+03  0.25500000000E-02 0.  1.
          2   -1    0    0  501    0  0.00000000000E+00 -0.00000000000E+00 -0.13469599078E+04  0.13469599078E+04  0.25500000000E-02 0. -1.
    8880023    1    1    2    0    0 -0.18352259996E+03 -0.30180305213E+03 -0.12161242289E+03  0.75720896365E+03  0.65864270000E+03 0.  1.
    8880022    1    1    2    0    0  0.18352259996E+03  0.30180305213E+03 -0.86673675011E+03  0.94836167888E+03  0.15294330000E+03 0.  1.
<mgrwt>
<rscale>  0 0.63313479E+03</rscale>
<asrwt>0</asrwt>
<pdfrwt beam="1">  1        2 0.20722460E+00 0.74737931E+03</pdfrwt>
<pdfrwt beam="2">  1       -2 0.55170883E-01 0.74737931E+03</pdfrwt>
<totfact> 0.48909996E+01</totfact>
</mgrwt>
</event>
<event>
 4    1  0.8645356E-007  0.1034466E+04  0.7818608E-02  0.9337793E-01
         -2   -1    0    0    0  501 -0.00000000000E+00  0.00000000000E+00  0.34538189869E+03  0.34538189870E+03  0.25500000000E-02 0.  1.
          2   -1    0    0  501    0  0.00000000000E+00 -0.00000000000E+00 -0.37084072410E+04  0.37084072410E+04  0.25500000000E-02 0. -1.
    8880023    1    1    2    0    0  0.39733770477E+03 -0.69168763484E+03 -0.64984945532E+03  0.12216478857E+04  0.65864270000E+03 0. -1.
    8880022    1    1    2    0    0 -0.39733770477E+03  0.69168763484E+03 -0.27131758870E+04  0.28321412540E+04  0.15294330000E+03 0.  0.
<mgrwt>
<rscale>  0 0.97376785E+03</rscale>
<asrwt>0</asrwt>
<pdfrwt beam="1">  1        2 0.57052416E+00 0.10344657E+04</pdfrwt>
<pdfrwt beam="2">  1       -2 0.53135679E-01 0.10344657E+04</pdfrwt>
<totfact> 0.19944471E+00</totfact>
</mgrwt>
</event>
<event>
 4    1  0.8645356E-007  0.6719223E+03  0.7818608E-02  0.1014321E+00
         -2   -1    0    0    0  501 -0.00000000000E+00  0.00000000000E+00  0.28350666644E+03  0.28350666646E+03  0.25500000000E-02 0.  1.
          2   -1    0    0  501    0  0.00000000000E+00 -0.00000000000E+00 -0.97552712585E+03  0.97552712586E+03  0.25500000000E-02 0. -1.
    8880023    1    1    2    0    0 -0.10656957967E+03 -0.79450172762E+02 -0.16139581214E+03  0.69103416681E+03  0.65864270000E+03 0.  1.
    8880022    1    1    2    0    0  0.10656957967E+03  0.79450172762E+02 -0.53062464727E+03  0.56799962550E+03  0.15294330000E+03 0.  0.
<mgrwt>
<rscale>  0 0.49792975E+03</rscale>
<asrwt>0</asrwt>
<pdfrwt beam="1">  1        2 0.15008109E+00 0.67192233E+03</pdfrwt>
<pdfrwt beam="2">  1       -2 0.43616411E-01 0.67192233E+03</pdfrwt>
<totfact> 0.13253181E+02</totfact>
</mgrwt>
</event>
<event>
 4    1  0.8645356E-007  0.8370519E+03  0.7818608E-02  0.9635764E-01
          2   -1    0    0  501    0  0.00000000000E+00  0.00000000000E+00  0.19441693526E+04  0.19441693526E+04  0.25500000000E-02 0. -1.
         -2   -1    0    0    0  501 -0.00000000000E+00 -0.00000000000E+00 -0.80983163534E+03  0.80983163535E+03  0.25500000000E-02 0.  1.
    8880023    1    1    2    0    0  0.31775899323E+03  0.40727751600E+03  0.17475945859E+04  0.19377158707E+04  0.65864270000E+03 0. -1.
    8880022    1    1    2    0    0 -0.31775899323E+03 -0.40727751600E+03 -0.61325686857E+03  0.81628511727E+03  0.15294330000E+03 0.  0.
<mgrwt>
<rscale>  0 0.74973620E+03</rscale>
<asrwt>0</asrwt>
<pdfrwt beam="1">  1        2 0.29910297E+00 0.83705195E+03</pdfrwt>
<pdfrwt beam="2">  1       -2 0.12458948E+00 0.83705195E+03</pdfrwt>
<totfact> 0.35415788E+00</totfact>
</mgrwt>
</event>
<event>
 4    1  0.8645356E-007  0.6782865E+03  0.7818608E-02  0.1010310E+00
         -2   -1    0    0    0  501 -0.00000000000E+00  0.00000000000E+00  0.10076168601E+03  0.10076168604E+03  0.25500000000E-02 0.  1.
          2   -1    0    0  501    0  0.00000000000E+00 -0.00000000000E+00 -0.21976484790E+04  0.21976484790E+04  0.25500000000E-02 0. -1.
    8880023    1    1    2    0    0  0.48043123223E+02  0.15477161233E+03 -0.12440735910E+04  0.14169656664E+04  0.65864270000E+03 0.  1.
    8880022    1    1    2    0    0 -0.48043123223E+02 -0.15477161233E+03 -0.85281320205E+03  0.88144449869E+03  0.15294330000E+03 0. -1.
<mgrwt>
<rscale>  0 0.51351628E+03</rscale>
<asrwt>0</asrwt>
<pdfrwt beam="1">  1        2 0.33809973E+00 0.67828652E+03</pdfrwt>
<pdfrwt beam="2">  1       -2 0.15501799E-01 0.67828652E+03</pdfrwt>
<totfact> 0.17789391E+02</totfact>
</mgrwt>
</event>
<event>
 4    1  0.8645356E-007  0.1059104E+04  0.7818608E-02  0.9308016E-01
          2   -1    0    0  501    0  0.00000000000E+00  0.00000000000E+00  0.14824748078E+04  0.14824748078E+04  0.25500000000E-02 0. -1.
         -2   -1    0    0    0  501 -0.00000000000E+00 -0.00000000000E+00 -0.85100196157E+03  0.85100196157E+03  0.25500000000E-02 0.  1.
    8880023    1    1    2    0    0  0.44440716334E+03  0.70028121955E+03 -0.27613637421E+03  0.10945104005E+04  0.65864270000E+03 0.  0.
    8880022    1    1    2    0    0 -0.44440716334E+03 -0.70028121955E+03  0.90760922046E+03  0.12389663689E+04  0.15294330000E+03 0.  0.
<mgrwt>
<rscale>  0 0.10004821E+04</rscale>
<asrwt>0</asrwt>
<pdfrwt beam="1">  1        2 0.22807305E+00 0.10591042E+04</pdfrwt>
<pdfrwt beam="2">  1       -2 0.13092338E+00 0.10591042E+04</pdfrwt>
<totfact> 0.54682761E+00</totfact>
</mgrwt>
</event>
<event>
 4    1  0.8645356E-007  0.7881070E+03  0.7818608E-02  0.9737127E-01
          2   -1    0    0  501    0  0.00000000000E+00  0.00000000000E+00  0.25538170445E+03  0.25538170446E+03  0.25500000000E-02 0. -1.
         -2   -1    0    0    0  501 -0.00000000000E+00 -0.00000000000E+00 -0.17468794358E+04  0.17468794358E+04  0.25500000000E-02 0.  1.
    8880023    1    1    2    0    0 -0.40133039990E+03  0.16197630747E+03 -0.12649781778E+04  0.14903967293E+04  0.65864270000E+03 0.  0.
    8880022    1    1    2    0    0  0.40133039990E+03 -0.16197630747E+03 -0.22651955353E+03  0.51186441096E+03  0.15294330000E+03 0.  0.
<mgrwt>
<rscale>  0 0.68848649E+03</rscale>
<asrwt>0</asrwt>
<pdfrwt beam="1">  1        2 0.39289494E-01 0.78810699E+03</pdfrwt>
<pdfrwt beam="2">  1       -2 0.26875068E+00 0.78810699E+03</pdfrwt>
<totfact> 0.66546555E+00</totfact>
</mgrwt>
</event>
<event>
 4    1  0.8645356E-007  0.1047752E+04  0.7818608E-02  0.9321589E-01
          2   -1    0    0  501    0  0.00000000000E+00  0.00000000000E+00  0.15778296605E+04  0.15778296605E+04  0.25500000000E-02 0. -1.
         -2   -1    0    0    0  501 -0.00000000000E+00 -0.00000000000E+00 -0.41232519542E+04  0.41232519542E+04  0.25500000000E-02 0.  1.
    8880023    1    1    2    0    0 -0.40002507150E+03 -0.70989707936E+03 -0.39409522905E+04  0.40778534897E+04  0.65864270000E+03 0.  0.
    8880022    1    1    2    0    0  0.40002507150E+03  0.70989707936E+03  0.13955299967E+04  0.16232281250E+04  0.15294330000E+03 0.  0.
<mgrwt>
<rscale>  0 0.98819426E+03</rscale>
<asrwt>0</asrwt>
<pdfrwt beam="1">  1        2 0.24274303E+00 0.10477519E+04</pdfrwt>
<pdfrwt beam="2">  1       -2 0.63434645E+00 0.10477519E+04</pdfrwt>
<totfact> 0.42489792E-03</totfact>
</mgrwt>
</event>
<event>
 4    1  0.8645356E-007  0.7827187E+03  0.7818608E-02  0.9749489E-01
          2   -1    0    0  501    0  0.00000000000E+00  0.00000000000E+00  0.24307348613E+04  0.24307348613E+04  0.25500000000E-02 0. -1.
         -2   -1    0    0    0  501 -0.00000000000E+00 -0.00000000000E+00 -0.38979365576E+03  0.38979365576E+03  0.25500000000E-02 0.  1.
    8880023    1    1    2    0    0 -0.30875080048E+03 -0.28898319012E+03  0.55376037246E+02  0.78467512560E+03  0.65864270000E+03 0.  1.
    8880022    1    1    2    0    0  0.30875080048E+03  0.28898319012E+03  0.19855651683E+04  0.20358533914E+04  0.15294330000E+03 0. -1.
<mgrwt>
<rscale>  0 0.68145153E+03</rscale>
<asrwt>0</asrwt>
<pdfrwt beam="1">  1        2 0.37395921E+00 0.78271869E+03</pdfrwt>
<pdfrwt beam="2">  1       -2 0.59968255E-01 0.78271869E+03</pdfrwt>
<totfact> 0.10303759E+01</totfact>
</mgrwt>
</event>
<event>
 4    1  0.8645356E-007  0.8170356E+03  0.7818608E-02  0.9675104E-01
          2   -1    0    0  501    0  0.00000000000E+00  0.00000000000E+00  0.16038063541E+04  0.16038063541E+04  0.25500000000E-02 0. -1.
         -2   -1    0    0    0  501 -0.00000000000E+00 -0.00000000000E+00 -0.72911531926E+03  0.72911531927E+03  0.25500000000E-02 0.  1.
    8880023    1    1    2    0    0  0.11445977468E+03 -0.46971890748E+03 -0.43704739067E+03  0.92658379007E+03  0.65864270000E+03 0.  1.
    8880022    1    1    2    0    0 -0.11445977468E+03  0.46971890748E+03  0.13117384255E+04  0.14063378833E+04  0.15294330000E+03 0.  0.
<mgrwt>
<rscale>  0 0.72518615E+03</rscale>
<asrwt>0</asrwt>
<pdfrwt beam="1">  1        2 0.24673944E+00 0.81703556E+03</pdfrwt>
<pdfrwt beam="2">  1       -2 0.11217159E+00 0.81703556E+03</pdfrwt>
<totfact> 0.70743828E+00</totfact>
</mgrwt>
</event>
<event>
 4    1  0.8645356E-007  0.8613583E+03  0.7818608E-02  0.9591152E-01
          2   -1    0    0  501    0  0.00000000000E+00  0.00000000000E+00  0.68690444408E+03  0.68690444409E+03  0.25500000000E-02 0. -1.
         -2   -1    0    0    0  501 -0.00000000000E+00 -0.00000000000E+00 -0.12672118430E+04  0.12672118430E+04  0.25500000000E-02 0.  1.
    8880023    1    1    2    0    0 -0.38942080905E+03  0.39557462884E+03 -0.94020161176E+03  0.12751145558E+04  0.65864270000E+03 0.  0.
    8880022    1    1    2    0    0  0.38942080905E+03 -0.39557462884E+03  0.35989421288E+03  0.67900173121E+03  0.15294330000E+03 0.  0.
<mgrwt>
<rscale>  0 0.77884584E+03</rscale>
<asrwt>0</asrwt>
<pdfrwt beam="1">  1        2 0.10567761E+00 0.86135826E+03</pdfrwt>
<pdfrwt beam="2">  1       -2 0.19495567E+00 0.86135826E+03</pdfrwt>
<totfact> 0.60692514E+00</totfact>
</mgrwt>
</event>
<event>
 4    1  0.8645356E-007  0.7573391E+03  0.7818608E-02  0.9812046E-01
          2   -1    0    0  501    0  0.00000000000E+00  0.00000000000E+00  0.34671461817E+04  0.34671461817E+04  0.25500000000E-02 0. -1.
         -2   -1    0    0    0  501 -0.00000000000E+00 -0.00000000000E+00 -0.45135461329E+03  0.45135461330E+03  0.25500000000E-02 0.  1.
    8880023    1    1    2    0    0 -0.34833529725E+03 -0.13570124304E+03 -0.11126281202E+03  0.76546843584E+03  0.65864270000E+03 0.  1.
    8880022    1    1    2    0    0  0.34833529725E+03  0.13570124304E+03  0.31270543804E+04  0.31530323591E+04  0.15294330000E+03 0.  0.
<mgrwt>
<rscale>  0 0.64720097E+03</rscale>
<asrwt>0</asrwt>
<pdfrwt beam="1">  1        2 0.53340714E+00 0.75733910E+03</pdfrwt>
<pdfrwt beam="2">  1       -2 0.69439167E-01 0.75733910E+03</pdfrwt>
<totfact> 0.17584264E+00</totfact>
</mgrwt>
</event>
<event>
 4    1  0.8645356E-007  0.6841750E+03  0.7818608E-02  0.1007054E+00
          2   -1    0    0  501    0  0.00000000000E+00  0.00000000000E+00  0.25322257845E+04  0.25322257845E+04  0.25500000000E-02 0. -1.
         -2   -1    0    0    0  501 -0.00000000000E+00 -0.00000000000E+00 -0.13551276096E+03  0.13551276099E+03  0.25500000000E-02 0.  1.
    8880023    1    1    2    0    0  0.11453785656E+02  0.18480815405E+03  0.79823666705E+03  0.10513216567E+04  0.65864270000E+03 0.  1.
    8880022    1    1    2    0    0 -0.11453785656E+02 -0.18480815405E+03  0.15984763565E+04  0.16164168888E+04  0.15294330000E+03 0.  0.
<mgrwt>
<rscale>  0 0.52662399E+03</rscale>
<asrwt>0</asrwt>
<pdfrwt beam="1">  1        2 0.38957318E+00 0.68417501E+03</pdfrwt>
<pdfrwt beam="2">  1       -2 0.20848118E-01 0.68417501E+03</pdfrwt>
<totfact> 0.69402457E+01</totfact>
</mgrwt>
</event>
<event>
 4    1  0.8645356E-007  0.7970869E+03  0.7818608E-02  0.9717131E-01
          2   -1    0    0  501    0  0.00000000000E+00  0.00000000000E+00  0.16609874244E+04  0.16609874244E+04  0.25500000000E-02 0. -1.
         -2   -1    0    0    0  501 -0.00000000000E+00 -0.00000000000E+00 -0.26388136373E+03  0.26388136374E+03  0.25500000000E-02 0.  1.
    8880023    1    1    2    0    0 -0.43078919485E+03  0.12632474781E+03  0.60128049287E+03  0.99844164059E+03  0.65864270000E+03 0.  1.
    8880022    1    1    2    0    0  0.43078919485E+03 -0.12632474781E+03  0.79582556778E+03  0.92642714752E+03  0.15294330000E+03 0.  0.
<mgrwt>
<rscale>  0 0.70005942E+03</rscale>
<asrwt>0</asrwt>
<pdfrwt beam="1">  1        2 0.25553652E+00 0.79708687E+03</pdfrwt>
<pdfrwt beam="2">  1       -2 0.40597133E-01 0.79708687E+03</pdfrwt>
<totfact> 0.60311752E+01</totfact>
</mgrwt>
</event>
<event>
 4    1  0.8645356E-007  0.6923345E+03  0.7818608E-02  0.1003062E+00
          2   -1    0    0  501    0  0.00000000000E+00  0.00000000000E+00  0.45142247598E+04  0.45142247598E+04  0.25500000000E-02 0. -1.
         -2   -1    0    0    0  501 -0.00000000000E+00 -0.00000000000E+00 -0.57782750943E+02  0.57782751000E+02  0.25500000000E-02 0.  1.
    8880023    1    1    2    0    0 -0.30893015702E+01 -0.21332436107E+03  0.23680494599E+04  0.24671816467E+04  0.65864270000E+03 0.  1.
    8880022    1    1    2    0    0  0.30893015702E+01  0.21332436107E+03  0.20883925489E+04  0.21048258641E+04  0.15294330000E+03 0. -1.
<mgrwt>
<rscale>  0 0.54327667E+03</rscale>
<asrwt>0</asrwt>
<pdfrwt beam="1">  1        2 0.69449615E+00 0.69233448E+03</pdfrwt>
<pdfrwt beam="2">  1       -2 0.88896536E-02 0.69233448E+03</pdfrwt>
<totfact> 0.11354619E+01</totfact>
</mgrwt>
</event>
<event>
 4    1  0.8645356E-007  0.8653011E+03  0.7818608E-02  0.9584202E-01
         -2   -1    0    0    0  501 -0.00000000000E+00  0.00000000000E+00  0.23595531626E+03  0.23595531627E+03  0.25500000000E-02 0.  1.
          2   -1    0    0  501    0  0.00000000000E+00 -0.00000000000E+00 -0.29228621558E+04  0.29228621558E+04  0.25500000000E-02 0. -1.
    8880023    1    1    2    0    0 -0.11526300821E+03 -0.54922700572E+03 -0.77928206775E+03  0.11644855569E+04  0.65864270000E+03 0.  1.
    8880022    1    1    2    0    0  0.11526300821E+03  0.54922700572E+03 -0.19076247718E+04  0.19943319151E+04  0.15294330000E+03 0.  0.
<mgrwt>
<rscale>  0 0.78350654E+03</rscale>
<asrwt>0</asrwt>
<pdfrwt beam="1">  1        2 0.44967107E+00 0.86530114E+03</pdfrwt>
<pdfrwt beam="2">  1       -2 0.36300820E-01 0.86530114E+03</pdfrwt>
<totfact> 0.14440644E+01</totfact>
</mgrwt>
</event>
<event>
 4    1  0.8645356E-007  0.9053087E+03  0.7818608E-02  0.9517563E-01
         -2   -1    0    0    0  501 -0.00000000000E+00  0.00000000000E+00  0.51820550872E+03  0.51820550873E+03  0.25500000000E-02 0.  1.
          2   -1    0    0  501    0  0.00000000000E+00 -0.00000000000E+00 -0.18089815960E+04  0.18089815960E+04  0.25500000000E-02 0. -1.
    8880023    1    1    2    0    0 -0.55239949456E+03  0.28395137563E+03 -0.21182259666E+02  0.90555644755E+03  0.65864270000E+03 0.  1.
    8880022    1    1    2    0    0  0.55239949456E+03 -0.28395137563E+03 -0.12695938276E+04  0.14216306572E+04  0.15294330000E+03 0.  0.
<mgrwt>
<rscale>  0 0.83001292E+03</rscale>
<asrwt>0</asrwt>
<pdfrwt beam="1">  1        2 0.27830486E+00 0.90530867E+03</pdfrwt>
<pdfrwt beam="2">  1       -2 0.79723925E-01 0.90530867E+03</pdfrwt>
<totfact> 0.12007020E+01</totfact>
</mgrwt>
</event>
<event>
 4    1  0.8645356E-007  0.7199897E+03  0.7818608E-02  0.9922621E-01
         -2   -1    0    0    0  501 -0.00000000000E+00  0.00000000000E+00  0.34681242079E+03  0.34681242080E+03  0.25500000000E-02 0.  1.
          2   -1    0    0  501    0  0.00000000000E+00 -0.00000000000E+00 -0.16978878741E+04  0.16978878741E+04  0.25500000000E-02 0. -1.
    8880023    1    1    2    0    0 -0.10038631277E+03  0.27294241703E+03 -0.71409607724E+02  0.72352229623E+03  0.65864270000E+03 0.  0.
    8880022    1    1    2    0    0  0.10038631277E+03 -0.27294241703E+03 -0.12796658456E+04  0.13211779987E+04  0.15294330000E+03 0.  0.
<mgrwt>
<rscale>  0 0.59177404E+03</rscale>
<asrwt>0</asrwt>
<pdfrwt beam="1">  1        2 0.26121351E+00 0.71998971E+03</pdfrwt>
<pdfrwt beam="2">  1       -2 0.53355758E-01 0.71998971E+03</pdfrwt>
<totfact> 0.33539940E+01</totfact>
</mgrwt>
</event>
<event>
 4    1  0.8749910E-007  0.7591634E+03  0.7818608E-02  0.9807278E-01
          2   -1    0    0  501    0  0.00000000000E+00  0.00000000000E+00  0.13570363334E+04  0.13570363334E+04  0.25500000000E-02 0. -1.
         -2   -1    0    0    0  501 -0.00000000000E+00 -0.00000000000E+00 -0.85266962075E+03  0.85266962075E+03  0.25500000000E-02 0.  1.
    8880023    1    1    2    0    0 -0.31285459074E+03 -0.21128399626E+03 -0.64130462868E+03  0.99378103979E+03  0.65864270000E+03 0.  0.
    8880022    1    1    2    0    0  0.31285459074E+03  0.21128399626E+03  0.11456713413E+04  0.12159249144E+04  0.15294330000E+03 0.  0.
<mgrwt>
<rscale>  0 0.64973419E+03</rscale>
<asrwt>0</asrwt>
<pdfrwt beam="1">  1        2 0.20877482E+00 0.75916344E+03</pdfrwt>
<pdfrwt beam="2">  1       -2 0.13117994E+00 0.75916344E+03</pdfrwt>
<totfact> 0.66418869E+00</totfact>
</mgrwt>
</event>
<event>
 4    1  0.8645356E-007  0.8031535E+03  0.7818608E-02  0.9704019E-01
          2   -1    0    0  501    0  0.00000000000E+00  0.00000000000E+00  0.23620829409E+04  0.23620829409E+04  0.25500000000E-02 0. -1.
         -2   -1    0    0    0  501 -0.00000000000E+00 -0.00000000000E+00 -0.28479427239E+03  0.28479427241E+03  0.25500000000E-02 0.  1.
    8880023    1    1    2    0    0 -0.34966655936E+03 -0.29829278296E+03  0.39267904973E+03  0.89400913276E+03  0.65864270000E+03 0.  1.
    8880022    1    1    2    0    0  0.34966655936E+03  0.29829278296E+03  0.16846096187E+04  0.17528680805E+04  0.15294330000E+03 0.  0.
<mgrwt>
<rscale>  0 0.70778027E+03</rscale>
<asrwt>0</asrwt>
<pdfrwt beam="1">  1        2 0.36339736E+00 0.80315347E+03</pdfrwt>
<pdfrwt beam="2">  1       -2 0.43814506E-01 0.80315347E+03</pdfrwt>
<totfact> 0.21350369E+01</totfact>
</mgrwt>
</event>
<event>
 4    1  0.8645356E-007  0.7269836E+03  0.7818608E-02  0.9899627E-01
          2   -1    0    0  501    0  0.00000000000E+00  0.00000000000E+00  0.25746977863E+04  0.25746977863E+04  0.25500000000E-02 0. -1.
         -2   -1    0    0    0  501 -0.00000000000E+00 -0.00000000000E+00 -0.12379284669E+03  0.12379284671E+03  0.25500000000E-02 0.  1.
    8880023    1    1    2    0    0 -0.41685586008E+02 -0.30488885383E+03  0.12167434369E+04  0.14173812821E+04  0.65864270000E+03 0.  1.
    8880022    1    1    2    0    0  0.41685586008E+02  0.30488885383E+03  0.12341615028E+04  0.12811093510E+04  0.15294330000E+03 0.  0.
<mgrwt>
<rscale>  0 0.60279342E+03</rscale>
<asrwt>0</asrwt>
<pdfrwt beam="1">  1        2 0.39610736E+00 0.72698357E+03</pdfrwt>
<pdfrwt beam="2">  1       -2 0.19045053E-01 0.72698357E+03</pdfrwt>
<totfact> 0.76441106E+01</totfact>
</mgrwt>
</event>
<event>
 4    1  0.8645356E-007  0.7837007E+03  0.7818608E-02  0.9747215E-01
          2   -1    0    0  501    0  0.00000000000E+00  0.00000000000E+00  0.27679321871E+04  0.27679321871E+04  0.25500000000E-02 0. -1.
         -2   -1    0    0    0  501 -0.00000000000E+00 -0.00000000000E+00 -0.20225778112E+03  0.20225778114E+03  0.25500000000E-02 0.  1.
    8880023    1    1    2    0    0 -0.42298482074E+03 -0.38215348536E+02  0.70039418298E+03  0.10510655495E+04  0.65864270000E+03 0.  1.
    8880022    1    1    2    0    0  0.42298482074E+03  0.38215348536E+02  0.18652802230E+04  0.19191244188E+04  0.15294330000E+03 0.  0.
<mgrwt>
<rscale>  0 0.68273903E+03</rscale>
<asrwt>0</asrwt>
<pdfrwt beam="1">  1        2 0.42583568E+00 0.78370069E+03</pdfrwt>
<pdfrwt beam="2">  1       -2 0.31116585E-01 0.78370069E+03</pdfrwt>
<totfact> 0.24217799E+01</totfact>
</mgrwt>
</event>
<event>
 4    1  0.8645356E-007  0.8548214E+03  0.7818608E-02  0.9602842E-01
          2   -1    0    0  501    0  0.00000000000E+00  0.00000000000E+00  0.14338928983E+04  0.14338928983E+04  0.25500000000E-02 0. -1.
         -2   -1    0    0    0  501 -0.00000000000E+00 -0.00000000000E+00 -0.47076222181E+03  0.47076222182E+03  0.25500000000E-02 0.  1.
    8880023    1    1    2    0    0  0.83871152254E+02  0.53840042961E+03  0.83774067352E+02  0.85891658117E+03  0.65864270000E+03 0.  0.
    8880022    1    1    2    0    0 -0.83871152254E+02 -0.53840042961E+03  0.87935660910E+03  0.10457385389E+04  0.15294330000E+03 0.  0.
<mgrwt>
<rscale>  0 0.77108335E+03</rscale>
<asrwt>0</asrwt>
<pdfrwt beam="1">  1        2 0.22059891E+00 0.85482138E+03</pdfrwt>
<pdfrwt beam="2">  1       -2 0.72424958E-01 0.85482138E+03</pdfrwt>
<totfact> 0.24135143E+01</totfact>
</mgrwt>
</event>
<event>
 4    1  0.8645356E-007  0.1204588E+04  0.7818608E-02  0.9152675E-01
          2   -1    0    0  501    0  0.00000000000E+00  0.00000000000E+00  0.12412895866E+04  0.12412895866E+04  0.25500000000E-02 0. -1.
         -2   -1    0    0    0  501 -0.00000000000E+00 -0.00000000000E+00 -0.16501187324E+04  0.16501187324E+04  0.25500000000E-02 0.  1.
    8880023    1    1    2    0    0  0.68782149697E+03  0.73764734357E+03 -0.11224357807E+04  0.16464793662E+04  0.65864270000E+03 0.  1.
    8880022    1    1    2    0    0 -0.68782149697E+03 -0.73764734357E+03  0.71360663488E+03  0.12449289528E+04  0.15294330000E+03 0.  0.
<mgrwt>
<rscale>  0 0.11555536E+04</rscale>
<asrwt>0</asrwt>
<pdfrwt beam="1">  1        2 0.19096763E+00 0.12045880E+04</pdfrwt>
<pdfrwt beam="2">  1       -2 0.25386442E+00 0.12045880E+04</pdfrwt>
<totfact> 0.10586808E+00</totfact>
</mgrwt>
</event>
<event>
 4    1  0.8645356E-007  0.7832879E+03  0.7818608E-02  0.9748170E-01
         -2   -1    0    0    0  501 -0.00000000000E+00  0.00000000000E+00  0.55528497592E+03  0.55528497592E+03  0.25500000000E-02 0.  1.
          2   -1    0    0  501    0  0.00000000000E+00 -0.00000000000E+00 -0.23487663275E+04  0.23487663275E+04  0.25500000000E-02 0. -1.
    8880023    1    1    2    0    0 -0.35948210453E+03 -0.22472731906E+03  0.24156917594E+03  0.81969239623E+03  0.65864270000E+03 0.  1.
    8880022    1    1    2    0    0  0.35948210453E+03  0.22472731906E+03 -0.20350505276E+04  0.20843589072E+04  0.15294330000E+03 0.  0.
<mgrwt>
<rscale>  0 0.68219814E+03</rscale>
<asrwt>0</asrwt>
<pdfrwt beam="1">  1        2 0.36134866E+00 0.78328791E+03</pdfrwt>
<pdfrwt beam="2">  1       -2 0.85428459E-01 0.78328791E+03</pdfrwt>
<totfact> 0.52658084E+00</totfact>
</mgrwt>
</event>
<event>
 4    1  0.8645356E-007  0.6705234E+03  0.7818608E-02  0.1015290E+00
         -2   -1    0    0    0  501 -0.00000000000E+00  0.00000000000E+00  0.96903841530E+03  0.96903841530E+03  0.25500000000E-02 0.  1.
          2   -1    0    0  501    0  0.00000000000E+00 -0.00000000000E+00 -0.75715280977E+03  0.75715280977E+03  0.25500000000E-02 0. -1.
    8880023    1    1    2    0    0 -0.87473845578E+02 -0.90220385692E+02  0.83586047649E+03  0.10715709655E+04  0.65864270000E+03 0.  1.
    8880022    1    1    2    0    0  0.87473845578E+02  0.90220385692E+02 -0.62397487096E+03  0.65462025959E+03  0.15294330000E+03 0.  0.
<mgrwt>
<rscale>  0 0.49425118E+03</rscale>
<asrwt>0</asrwt>
<pdfrwt beam="1">  1        2 0.11648505E+00 0.67052338E+03</pdfrwt>
<pdfrwt beam="2">  1       -2 0.14908283E+00 0.67052338E+03</pdfrwt>
<totfact> 0.11561877E+01</totfact>
</mgrwt>
</event>
<event>
 4    1  0.8645356E-007  0.7033544E+03  0.7818608E-02  0.9983560E-01
          2   -1    0    0  501    0  0.00000000000E+00  0.00000000000E+00  0.10299777301E+04  0.10299777301E+04  0.25500000000E-02 0. -1.
         -2   -1    0    0    0  501 -0.00000000000E+00 -0.00000000000E+00 -0.29134820333E+03  0.29134820334E+03  0.25500000000E-02 0.  1.
    8880023    1    1    2    0    0 -0.79281100262E+02 -0.23369155071E+03  0.23786449963E+03  0.74248701011E+03  0.65864270000E+03 0.  1.
    8880022    1    1    2    0    0  0.79281100262E+02  0.23369155071E+03  0.50076502711E+03  0.57883892330E+03  0.15294330000E+03 0. -1.
<mgrwt>
<rscale>  0 0.56376999E+03</rscale>
<asrwt>0</asrwt>
<pdfrwt beam="1">  1        2 0.15845811E+00 0.70335442E+03</pdfrwt>
<pdfrwt beam="2">  1       -2 0.44822801E-01 0.70335442E+03</pdfrwt>
<totfact> 0.11565635E+02</totfact>
</mgrwt>
</event>
<event>
 4    1  0.8645356E-007  0.7065706E+03  0.7818608E-02  0.9970963E-01
          2   -1    0    0  501    0  0.00000000000E+00  0.00000000000E+00  0.11669164702E+04  0.11669164702E+04  0.25500000000E-02 0. -1.
         -2   -1    0    0    0  501 -0.00000000000E+00 -0.00000000000E+00 -0.23455784125E+03  0.23455784126E+03  0.25500000000E-02 0.  1.
    8880023    1    1    2    0    0  0.21246696984E+03 -0.14244153660E+03  0.46053887310E+03  0.84340859880E+03  0.65864270000E+03 0.  1.
    8880022    1    1    2    0    0 -0.21246696984E+03  0.14244153660E+03  0.47181975581E+03  0.55806571263E+03  0.15294330000E+03 0. -1.
<mgrwt>
<rscale>  0 0.56941989E+03</rscale>
<asrwt>0</asrwt>
<pdfrwt beam="1">  1        2 0.17952561E+00 0.70657060E+03</pdfrwt>
<pdfrwt beam="2">  1       -2 0.36085822E-01 0.70657060E+03</pdfrwt>
<totfact> 0.14555325E+02</totfact>
</mgrwt>
</event>
<event>
 4    1  0.8645356E-007  0.1080099E+04  0.7818608E-02  0.9283544E-01
         -2   -1    0    0    0  501 -0.00000000000E+00  0.00000000000E+00  0.43245666907E+03  0.43245666908E+03  0.25500000000E-02 0.  1.
          2   -1    0    0  501    0  0.00000000000E+00 -0.00000000000E+00 -0.28478816544E+04  0.28478816544E+04  0.25500000000E-02 0. -1.
    8880023    1    1    2    0    0  0.25963972080E+03  0.81571493087E+03 -0.20886027498E+04  0.23513560526E+04  0.65864270000E+03 0.  0.
    8880022    1    1    2    0    0 -0.25963972080E+03 -0.81571493087E+03 -0.32682223551E+03  0.92898227093E+03  0.15294330000E+03 0.  0.
<mgrwt>
<rscale>  0 0.10231208E+04</rscale>
<asrwt>0</asrwt>
<pdfrwt beam="1">  1        2 0.43813563E+00 0.10800990E+04</pdfrwt>
<pdfrwt beam="2">  1       -2 0.66531797E-01 0.10800990E+04</pdfrwt>
<totfact> 0.45242912E+00</totfact>
</mgrwt>
</event>
<event>
 4    1  0.8645356E-007  0.9326468E+03  0.7818608E-02  0.9475534E-01
         -2   -1    0    0    0  501 -0.00000000000E+00  0.00000000000E+00  0.64721885955E+03  0.64721885956E+03  0.25500000000E-02 0.  1.
          2   -1    0    0  501    0  0.00000000000E+00 -0.00000000000E+00 -0.14955736560E+04  0.14955736560E+04  0.25500000000E-02 0. -1.
    8880023    1    1    2    0    0 -0.35137829470E+03 -0.55906456306E+03  0.14129077431E+03  0.94328849289E+03  0.65864270000E+03 0.  0.
    8880022    1    1    2    0    0  0.35137829470E+03  0.55906456306E+03 -0.98964557076E+03  0.11995040227E+04  0.15294330000E+03 0.  0.
<mgrwt>
<rscale>  0 0.86111896E+03</rscale>
<asrwt>0</asrwt>
<pdfrwt beam="1">  1        2 0.23008825E+00 0.93264682E+03</pdfrwt>
<pdfrwt beam="2">  1       -2 0.99572132E-01 0.93264682E+03</pdfrwt>
<totfact> 0.10679270E+01</totfact>
</mgrwt>
</event>
<event>
 4    1  0.8645356E-007  0.6603207E+03  0.7818608E-02  0.1023830E+00
         -2   -1    0    0    0  501 -0.00000000000E+00  0.00000000000E+00  0.87011616448E+02  0.87011616485E+02  0.25500000000E-02 0.  1.
          2   -1    0    0  501    0  0.00000000000E+00 -0.00000000000E+00 -0.22066872101E+04  0.22066872101E+04  0.25500000000E-02 0. -1.
    8880023    1    1    2    0    0 -0.24800406729E+02  0.39977781248E+02 -0.12948947696E+04  0.14535391133E+04  0.65864270000E+03 0.  1.
    8880022    1    1    2    0    0  0.24800406729E+02 -0.39977781248E+02 -0.82478082399E+03  0.84015971327E+03  0.15294330000E+03 0.  0.
<mgrwt>
<rscale>  0 0.46329399E+03</rscale>
<asrwt>0</asrwt>
<pdfrwt beam="1">  1        2 0.33949030E+00 0.66032075E+03</pdfrwt>
<pdfrwt beam="2">  1       -2 0.13386404E-01 0.66032075E+03</pdfrwt>
<totfact> 0.22550304E+02</totfact>
</mgrwt>
</event>
<event>
 4    1  0.8645356E-007  0.6817413E+03  0.7818608E-02  0.1008355E+00
          2   -1    0    0  501    0  0.00000000000E+00  0.00000000000E+00  0.10284240575E+04  0.10284240576E+04  0.25500000000E-02 0. -1.
         -2   -1    0    0    0  501 -0.00000000000E+00 -0.00000000000E+00 -0.23729660151E+03  0.23729660153E+03  0.25500000000E-02 0.  1.
    8880023    1    1    2    0    0 -0.16961587263E+03  0.46813574729E+02  0.34897380209E+03  0.76586811909E+03  0.65864270000E+03 0.  0.
    8880022    1    1    2    0    0  0.16961587263E+03 -0.46813574729E+02  0.44215365394E+03  0.49985253999E+03  0.15294330000E+03 0.  0.
<mgrwt>
<rscale>  0 0.52133559E+03</rscale>
<asrwt>0</asrwt>
<pdfrwt beam="1">  1        2 0.15821909E+00 0.68174134E+03</pdfrwt>
<pdfrwt beam="2">  1       -2 0.36507170E-01 0.68174134E+03</pdfrwt>
<totfact> 0.17330709E+02</totfact>
</mgrwt>
</event>
<event>
 4    1  0.8645356E-007  0.1153767E+04  0.7818608E-02  0.9203429E-01
         -2   -1    0    0    0  501 -0.00000000000E+00  0.00000000000E+00  0.83861885368E+03  0.83861885369E+03  0.25500000000E-02 0.  1.
          2   -1    0    0  501    0  0.00000000000E+00 -0.00000000000E+00 -0.21489356267E+04  0.21489356267E+04  0.25500000000E-02 0. -1.
    8880023    1    1    2    0    0  0.94185145765E+03 -0.10141513798E+03  0.22648001125E+03  0.11757859500E+04  0.65864270000E+03 0.  0.
    8880022    1    1    2    0    0 -0.94185145765E+03  0.10141513798E+03 -0.15367967843E+04  0.18117685304E+04  0.15294330000E+03 0.  0.
<mgrwt>
<rscale>  0 0.11018109E+04</rscale>
<asrwt>0</asrwt>
<pdfrwt beam="1">  1        2 0.33060548E+00 0.11537675E+04</pdfrwt>
<pdfrwt beam="2">  1       -2 0.12901829E+00 0.11537675E+04</pdfrwt>
<totfact> 0.23970701E+00</totfact>
</mgrwt>
</event>
<event>
 4    1  0.8645356E-007  0.7272757E+03  0.7818608E-02  0.9898695E-01
         -2   -1    0    0    0  501 -0.00000000000E+00  0.00000000000E+00  0.14123701396E+03  0.14123701398E+03  0.25500000000E-02 0.  1.
          2   -1    0    0  501    0  0.00000000000E+00 -0.00000000000E+00 -0.32809512287E+04  0.32809512287E+04  0.25500000000E-02 0. -1.
    8880023    1    1    2    0    0  0.75708773964E+02 -0.29897811512E+03 -0.90452673410E+03  0.11606457473E+04  0.65864270000E+03 0.  1.
    8880022    1    1    2    0    0 -0.75708773964E+02  0.29897811512E+03 -0.22351874807E+04  0.22615424954E+04  0.15294330000E+03 0.  0.
<mgrwt>
<rscale>  0 0.60324581E+03</rscale>
<asrwt>0</asrwt>
<pdfrwt beam="1">  1        2 0.50476167E+00 0.72727570E+03</pdfrwt>
<pdfrwt beam="2">  1       -2 0.21728774E-01 0.72727570E+03</pdfrwt>
<totfact> 0.22665924E+01</totfact>
</mgrwt>
</event>
<event>
 4    1  0.8645356E-007  0.9704812E+03  0.7818608E-02  0.9421239E-01
         -2   -1    0    0    0  501 -0.00000000000E+00  0.00000000000E+00  0.11285566768E+04  0.11285566768E+04  0.25500000000E-02 0.  1.
          2   -1    0    0  501    0  0.00000000000E+00 -0.00000000000E+00 -0.12297672134E+04  0.12297672134E+04  0.25500000000E-02 0. -1.
    8880023    1    1    2    0    0  0.32690778706E+03  0.63336782691E+03  0.75808119837E+03  0.12314709964E+04  0.65864270000E+03 0.  0.
    8880022    1    1    2    0    0 -0.32690778706E+03 -0.63336782691E+03 -0.85929173496E+03  0.11268528938E+04  0.15294330000E+03 0.  0.
<mgrwt>
<rscale>  0 0.90348215E+03</rscale>
<asrwt>0</asrwt>
<pdfrwt beam="1">  1        2 0.18919496E+00 0.97048118E+03</pdfrwt>
<pdfrwt beam="2">  1       -2 0.17362410E+00 0.97048118E+03</pdfrwt>
<totfact> 0.36337418E+00</totfact>
</mgrwt>
</event>
<event>
 4    1  0.8645356E-007  0.8212994E+03  0.7818608E-02  0.9666504E-01
         -2   -1    0    0    0  501 -0.00000000000E+00  0.00000000000E+00  0.27623516430E+03  0.27623516431E+03  0.25500000000E-02 0.  1.
          2   -1    0    0  501    0  0.00000000000E+00 -0.00000000000E+00 -0.27673227538E+04  0.27673227538E+04  0.25500000000E-02 0. -1.
    8880023    1    1    2    0    0 -0.20113780479E+03  0.44751098289E+03 -0.44538892801E+03  0.93429331571E+03  0.65864270000E+03 0.  1.
    8880022    1    1    2    0    0  0.20113780479E+03 -0.44751098289E+03 -0.20456986615E+04  0.21092646024E+04  0.15294330000E+03 0.  0.
<mgrwt>
<rscale>  0 0.73046614E+03</rscale>
<asrwt>0</asrwt>
<pdfrwt beam="1">  1        2 0.42574194E+00 0.82129940E+03</pdfrwt>
<pdfrwt beam="2">  1       -2 0.42497719E-01 0.82129940E+03</pdfrwt>
<totfact> 0.13246689E+01</totfact>
</mgrwt>
</event>
<event>
 4    1  0.8645356E-007  0.7356645E+03  0.7818608E-02  0.9872761E-01
         -2   -1    0    0    0  501 -0.00000000000E+00  0.00000000000E+00  0.63238387816E+03  0.63238387817E+03  0.25500000000E-02 0.  1.
          2   -1    0    0  501    0  0.00000000000E+00 -0.00000000000E+00 -0.50988958812E+03  0.50988958812E+03  0.25500000000E-02 0. -1.
    8880023    1    1    2    0    0  0.19832047782E+03 -0.26088506034E+03 -0.58277128735E+02  0.73796914341E+03  0.65864270000E+03 0.  1.
    8880022    1    1    2    0    0 -0.19832047782E+03  0.26088506034E+03  0.18077141878E+03  0.40430432287E+03  0.15294330000E+03 0. -1.
<mgrwt>
<rscale>  0 0.61599762E+03</rscale>
<asrwt>0</asrwt>
<pdfrwt beam="1">  1        2 0.78444552E-01 0.73566448E+03</pdfrwt>
<pdfrwt beam="2">  1       -2 0.97289827E-01 0.73566448E+03</pdfrwt>
<totfact> 0.53719663E+01</totfact>
</mgrwt>
</event>
<event>
 4    1  0.8645356E-007  0.6591236E+03  0.7818608E-02  0.1025073E+00
          2   -1    0    0  501    0  0.00000000000E+00  0.00000000000E+00  0.74477071500E+03  0.74477071500E+03  0.25500000000E-02 0. -1.
         -2   -1    0    0    0  501 -0.00000000000E+00 -0.00000000000E+00 -0.89069234666E+03  0.89069234667E+03  0.25500000000E-02 0.  1.
    8880023    1    1    2    0    0 -0.24114602252E+02 -0.72291248370E+01 -0.75775036703E+03  0.10043055308E+04  0.65864270000E+03 0.  1.
    8880022    1    1    2    0    0  0.24114602252E+02  0.72291248370E+01  0.61182873536E+03  0.63115753082E+03  0.15294330000E+03 0.  0.
<mgrwt>
<rscale>  0 0.45899617E+03</rscale>
<asrwt>0</asrwt>
<pdfrwt beam="1">  1        2 0.11458011E+00 0.65912365E+03</pdfrwt>
<pdfrwt beam="2">  1       -2 0.13702959E+00 0.65912365E+03</pdfrwt>
<totfact> 0.14727263E+01</totfact>
</mgrwt>
</event>
<event>
 4    1  0.8645356E-007  0.7005274E+03  0.7818608E-02  0.9995020E-01
          2   -1    0    0  501    0  0.00000000000E+00  0.00000000000E+00  0.27805836636E+04  0.27805836636E+04  0.25500000000E-02 0. -1.
         -2   -1    0    0    0  501 -0.00000000000E+00 -0.00000000000E+00 -0.12677799222E+03  0.12677799225E+03  0.25500000000E-02 0.  1.
    8880023    1    1    2    0    0  0.17863209681E+02  0.23792714315E+03  0.95115350508E+03  0.11812838847E+04  0.65864270000E+03 0. -1.
    8880022    1    1    2    0    0 -0.17863209681E+02 -0.23792714315E+03  0.17026521663E+04  0.17260777712E+04  0.15294330000E+03 0.  0.
<mgrwt>
<rscale>  0 0.55869123E+03</rscale>
<asrwt>0</asrwt>
<pdfrwt beam="1">  1        2 0.42778210E+00 0.70052739E+03</pdfrwt>
<pdfrwt beam="2">  1       -2 0.19504307E-01 0.70052739E+03</pdfrwt>
<totfact> 0.55922879E+01</totfact>
</mgrwt>
</event>
<event>
 4    1  0.8645356E-007  0.9345807E+03  0.7818608E-02  0.9472655E-01
          2   -1    0    0  501    0  0.00000000000E+00  0.00000000000E+00  0.11680681188E+04  0.11680681188E+04  0.25500000000E-02 0. -1.
         -2   -1    0    0    0  501 -0.00000000000E+00 -0.00000000000E+00 -0.72398074804E+03  0.72398074804E+03  0.25500000000E-02 0.  1.
    8880023    1    1    2    0    0 -0.58124485424E+03 -0.31903802831E+03 -0.19928586899E+03  0.95559191496E+03  0.65864270000E+03 0.  0.
    8880022    1    1    2    0    0  0.58124485424E+03  0.31903802831E+03  0.64337323975E+03  0.93645695189E+03  0.15294330000E+03 0.  0.
<mgrwt>
<rscale>  0 0.86330223E+03</rscale>
<asrwt>0</asrwt>
<pdfrwt beam="1">  1        2 0.17970279E+00 0.93458068E+03</pdfrwt>
<pdfrwt beam="2">  1       -2 0.11138165E+00 0.93458068E+03</pdfrwt>
<totfact> 0.12609408E+01</totfact>
</mgrwt>
</event>
<event>
 4    1  0.8645356E-007  0.1081298E+04  0.7818608E-02  0.9282170E-01
         -2   -1    0    0    0  501 -0.00000000000E+00  0.00000000000E+00  0.68204289481E+03  0.68204289482E+03  0.25500000000E-02 0.  1.
          2   -1    0    0  501    0  0.00000000000E+00 -0.00000000000E+00 -0.27159698966E+04  0.27159698966E+04  0.25500000000E-02 0. -1.
    8880023    1    1    2    0    0  0.82541740573E+03 -0.23255161953E+03  0.10707876798E+03  0.10865864983E+04  0.65864270000E+03 0.  0.
    8880022    1    1    2    0    0 -0.82541740573E+03  0.23255161953E+03 -0.21410057698E+04  0.23114262932E+04  0.15294330000E+03 0.  0.
<mgrwt>
<rscale>  0 0.10244100E+04</rscale>
<asrwt>0</asrwt>
<pdfrwt beam="1">  1        2 0.41784152E+00 0.10812975E+04</pdfrwt>
<pdfrwt beam="2">  1       -2 0.10492968E+00 0.10812975E+04</pdfrwt>
<totfact> 0.19143003E+00</totfact>
</mgrwt>
</event>
<event>
 4    1  0.8645356E-007  0.1025413E+04  0.7818608E-02  0.9349040E-01
         -2   -1    0    0    0  501 -0.00000000000E+00  0.00000000000E+00  0.81022108731E+03  0.81022108731E+03  0.25500000000E-02 0.  1.
          2   -1    0    0  501    0  0.00000000000E+00 -0.00000000000E+00 -0.19855273484E+04  0.19855273484E+04  0.25500000000E-02 0. -1.
    8880023    1    1    2    0    0  0.64603607106E+03 -0.44754766697E+03  0.34134181136E+03  0.10807339903E+04  0.65864270000E+03 0.  0.
    8880022    1    1    2    0    0 -0.64603607106E+03  0.44754766697E+03 -0.15166480724E+04  0.17150144454E+04  0.15294330000E+03 0.  0.
<mgrwt>
<rscale>  0 0.96390860E+03</rscale>
<asrwt>0</asrwt>
<pdfrwt beam="1">  1        2 0.30546575E+00 0.10254130E+04</pdfrwt>
<pdfrwt beam="2">  1       -2 0.12464940E+00 0.10254130E+04</pdfrwt>
<totfact> 0.32713161E+00</totfact>
</mgrwt>
</event>
<event>
 4    1  0.8645356E-007  0.7947098E+03  0.7818608E-02  0.9722353E-01
          2   -1    0    0  501    0  0.00000000000E+00  0.00000000000E+00  0.75505558305E+03  0.75505558306E+03  0.25500000000E-02 0. -1.
         -2   -1    0    0    0  501 -0.00000000000E+00 -0.00000000000E+00 -0.15104685008E+04  0.15104685008E+04  0.25500000000E-02 0.  1.
    8880023    1    1    2    0    0  0.10942073110E+03 -0.43102274359E+03 -0.13138227502E+04  0.15354784033E+04  0.65864270000E+03 0.  1.
    8880022    1    1    2    0    0 -0.10942073110E+03  0.43102274359E+03  0.55840983236E+03  0.73004568061E+03  0.15294330000E+03 0.  0.
<mgrwt>
<rscale>  0 0.69701338E+03</rscale>
<asrwt>0</asrwt>
<pdfrwt beam="1">  1        2 0.11616240E+00 0.79470983E+03</pdfrwt>
<pdfrwt beam="2">  1       -2 0.23237977E+00 0.79470983E+03</pdfrwt>
<totfact> 0.31355924E+00</totfact>
</mgrwt>
</event>
<event>
 4    1  0.8645356E-007  0.7887613E+03  0.7818608E-02  0.9735645E-01
          2   -1    0    0  501    0  0.00000000000E+00  0.00000000000E+00  0.33820141012E+04  0.33820141012E+04  0.25500000000E-02 0. -1.
         -2   -1    0    0    0  501 -0.00000000000E+00 -0.00000000000E+00 -0.20053499085E+03  0.20053499087E+03  0.25500000000E-02 0.  1.
    8880023    1    1    2    0    0  0.35166406975E+03  0.25429635904E+03  0.68703892207E+03  0.10460243510E+04  0.65864270000E+03 0.  1.
    8880022    1    1    2    0    0 -0.35166406975E+03 -0.25429635904E+03  0.24944401882E+04  0.25365247410E+04  0.15294330000E+03 0.  0.
<mgrwt>
<rscale>  0 0.68933601E+03</rscale>
<asrwt>0</asrwt>
<pdfrwt beam="1">  1        2 0.52030984E+00 0.78876135E+03</pdfrwt>
<pdfrwt beam="2">  1       -2 0.30851539E-01 0.78876135E+03</pdfrwt>
<totfact> 0.10188462E+01</totfact>
</mgrwt>
</event>
<event>
 4    1  0.8645356E-007  0.6943573E+03  0.7818608E-02  0.1002147E+00
          2   -1    0    0  501    0  0.00000000000E+00  0.00000000000E+00  0.36121268002E+03  0.36121268003E+03  0.25500000000E-02 0. -1.
         -2   -1    0    0    0  501 -0.00000000000E+00 -0.00000000000E+00 -0.13505275626E+04  0.13505275626E+04  0.25500000000E-02 0.  1.
    8880023    1    1    2    0    0  0.19171058975E+03  0.10755910375E+03 -0.11895424211E+04  0.13773682473E+04  0.65864270000E+03 0.  0.
    8880022    1    1    2    0    0 -0.19171058975E+03 -0.10755910375E+03  0.20022753851E+03  0.33437199526E+03  0.15294330000E+03 0.  0.
<mgrwt>
<rscale>  0 0.54718910E+03</rscale>
<asrwt>0</asrwt>
<pdfrwt beam="1">  1        2 0.55571182E-01 0.69435734E+03</pdfrwt>
<pdfrwt beam="2">  1       -2 0.20777347E+00 0.69435734E+03</pdfrwt>
<totfact> 0.10825660E+01</totfact>
</mgrwt>
</event>
<event>
 4    1  0.8645356E-007  0.8416521E+03  0.7818608E-02  0.9627073E-01
         -2   -1    0    0    0  501 -0.00000000000E+00  0.00000000000E+00  0.48845777142E+03  0.48845777142E+03  0.25500000000E-02 0.  1.
          2   -1    0    0  501    0  0.00000000000E+00 -0.00000000000E+00 -0.11893460966E+04  0.11893460966E+04  0.25500000000E-02 0. -1.
    8880023    1    1    2    0    0  0.12152987893E+03 -0.50970436439E+03 -0.75317679856E+03  0.11294483373E+04  0.65864270000E+03 0. -1.
    8880022    1    1    2    0    0 -0.12152987893E+03  0.50970436439E+03  0.52288473397E+02  0.54835553067E+03  0.15294330000E+03 0.  1.
<mgrwt>
<rscale>  0 0.75529942E+03</rscale>
<asrwt>0</asrwt>
<pdfrwt beam="1">  1        2 0.18297632E+00 0.84165210E+03</pdfrwt>
<pdfrwt beam="2">  1       -2 0.75147350E-01 0.84165210E+03</pdfrwt>
<totfact> 0.30848454E+01</totfact>
</mgrwt>
</event>
<event>
 4    1  0.8645356E-007  0.1001210E+04  0.7818608E-02  0.9379976E-01
         -2   -1    0    0    0  501 -0.00000000000E+00  0.00000000000E+00  0.52432619202E+03  0.52432619203E+03  0.25500000000E-02 0.  1.
          2   -1    0    0  501    0  0.00000000000E+00 -0.00000000000E+00 -0.16649659264E+04  0.16649659264E+04  0.25500000000E-02 0. -1.
    8880023    1    1    2    0    0 -0.48799306066E+02  0.75248270371E+03 -0.98456517223E+03  0.14042045351E+04  0.65864270000E+03 0.  0.
    8880022    1    1    2    0    0  0.48799306066E+02 -0.75248270371E+03 -0.15607456220E+03  0.78508758342E+03  0.15294330000E+03 0.  0.
<mgrwt>
<rscale>  0 0.93742051E+03</rscale>
<asrwt>0</asrwt>
<pdfrwt beam="1">  1        2 0.25614860E+00 0.10012102E+04</pdfrwt>
<pdfrwt beam="2">  1       -2 0.80665569E-01 0.10012102E+04</pdfrwt>
<totfact> 0.13892527E+01</totfact>
</mgrwt>
</event>
<event>
 4    1  0.8645356E-007  0.7619938E+03  0.7818608E-02  0.9799973E-01
         -2   -1    0    0    0  501 -0.00000000000E+00  0.00000000000E+00  0.16896243224E+03  0.16896243226E+03  0.25500000000E-02 0.  1.
          2   -1    0    0  501    0  0.00000000000E+00 -0.00000000000E+00 -0.23259278014E+04  0.23259278014E+04  0.25500000000E-02 0. -1.
    8880023    1    1    2    0    0 -0.35743295361E+03  0.13807990286E+03 -0.94096285219E+03  0.12108037295E+04  0.65864270000E+03 0.  0.
    8880022    1    1    2    0    0  0.35743295361E+03 -0.13807990286E+03 -0.12160025170E+04  0.12840865042E+04  0.15294330000E+03 0.  0.
<mgrwt>
<rscale>  0 0.65364003E+03</rscale>
<asrwt>0</asrwt>
<pdfrwt beam="1">  1        2 0.35783502E+00 0.76199382E+03</pdfrwt>
<pdfrwt beam="2">  1       -2 0.25994222E-01 0.76199382E+03</pdfrwt>
<totfact> 0.60512910E+01</totfact>
</mgrwt>
</event>
<event>
 4    1  0.8645356E-007  0.8706193E+03  0.7818608E-02  0.9574946E-01
          2   -1    0    0  501    0  0.00000000000E+00  0.00000000000E+00  0.12661365319E+04  0.12661365319E+04  0.25500000000E-02 0. -1.
         -2   -1    0    0    0  501 -0.00000000000E+00 -0.00000000000E+00 -0.61869983069E+03  0.61869983069E+03  0.25500000000E-02 0.  1.
    8880023    1    1    2    0    0  0.42895659643E+03 -0.37438486845E+03 -0.15987882738E+03  0.88517751725E+03  0.65864270000E+03 0.  1.
    8880022    1    1    2    0    0 -0.42895659643E+03  0.37438486845E+03  0.80731552859E+03  0.99965884534E+03  0.15294330000E+03 0.  0.
<mgrwt>
<rscale>  0 0.78976860E+03</rscale>
<asrwt>0</asrwt>
<pdfrwt beam="1">  1        2 0.19479023E+00 0.87061932E+03</pdfrwt>
<pdfrwt beam="2">  1       -2 0.95184590E-01 0.87061932E+03</pdfrwt>
<totfact> 0.16165467E+01</totfact>
</mgrwt>
</event>
<event>
 4    1  0.8645356E-007  0.7580380E+03  0.7818608E-02  0.9810214E-01
         -2   -1    0    0    0  501 -0.00000000000E+00  0.00000000000E+00  0.11019687360E+03  0.11019687363E+03  0.25500000000E-02 0.  1.
          2   -1    0    0  501    0  0.00000000000E+00 -0.00000000000E+00 -0.32228134516E+04  0.32228134516E+04  0.25500000000E-02 0. -1.
    8880023    1    1    2    0    0  0.32274082173E+03  0.19144140268E+03 -0.16591938119E+04  0.18241561777E+04  0.65864270000E+03 0.  1.
    8880022    1    1    2    0    0 -0.32274082173E+03 -0.19144140268E+03 -0.14534227661E+04  0.15088541476E+04  0.15294330000E+03 0.  0.
<mgrwt>
<rscale>  0 0.64817297E+03</rscale>
<asrwt>0</asrwt>
<pdfrwt beam="1">  1        2 0.49581738E+00 0.75803803E+03</pdfrwt>
<pdfrwt beam="2">  1       -2 0.16953368E-01 0.75803803E+03</pdfrwt>
<totfact> 0.37867607E+01</totfact>
</mgrwt>
</event>
<event>
 4    1  0.8645356E-007  0.9615146E+03  0.7818608E-02  0.9433737E-01
         -2   -1    0    0    0  501 -0.00000000000E+00  0.00000000000E+00  0.12644791179E+04  0.12644791179E+04  0.25500000000E-02 0.  1.
          2   -1    0    0  501    0  0.00000000000E+00 -0.00000000000E+00 -0.99412654077E+03  0.99412654077E+03  0.25500000000E-02 0. -1.
    8880023    1    1    2    0    0  0.68737571287E+03 -0.13496208814E+03  0.89056499887E+03  0.13105786353E+04  0.65864270000E+03 0.  0.
    8880022    1    1    2    0    0 -0.68737571287E+03  0.13496208814E+03 -0.62021242176E+03  0.94802702334E+03  0.15294330000E+03 0.  0.
<mgrwt>
<rscale>  0 0.89350502E+03</rscale>
<asrwt>0</asrwt>
<pdfrwt beam="1">  1        2 0.15294255E+00 0.96151461E+03</pdfrwt>
<pdfrwt beam="2">  1       -2 0.19453525E+00 0.96151461E+03</pdfrwt>
<totfact> 0.36584481E+00</totfact>
</mgrwt>
</event>
<event>
 4    1  0.8645356E-007  0.8489084E+03  0.7818608E-02  0.9613606E-01
         -2   -1    0    0    0  501 -0.00000000000E+00  0.00000000000E+00  0.11640663337E+04  0.11640663337E+04  0.25500000000E-02 0.  1.
          2   -1    0    0  501    0  0.00000000000E+00 -0.00000000000E+00 -0.72522480632E+03  0.72522480633E+03  0.25500000000E-02 0. -1.
    8880023    1    1    2    0    0 -0.35488646172E+03  0.40111207330E+03  0.84667644186E+03  0.11989605913E+04  0.65864270000E+03 0.  0.
    8880022    1    1    2    0    0  0.35488646172E+03 -0.40111207330E+03 -0.40783491446E+03  0.69033054874E+03  0.15294330000E+03 0.  0.
<mgrwt>
<rscale>  0 0.76402148E+03</rscale>
<asrwt>0</asrwt>
<pdfrwt beam="1">  1        2 0.11157305E+00 0.84890842E+03</pdfrwt>
<pdfrwt beam="2">  1       -2 0.17908713E+00 0.84890842E+03</pdfrwt>
<totfact> 0.72562623E+00</totfact>
</mgrwt>
</event>
<event>
 4    1  0.8645356E-007  0.8045560E+03  0.7818608E-02  0.9701030E-01
          2   -1    0    0  501    0  0.00000000000E+00  0.00000000000E+00  0.27683652986E+04  0.27683652986E+04  0.25500000000E-02 0. -1.
         -2   -1    0    0    0  501 -0.00000000000E+00 -0.00000000000E+00 -0.53301883179E+03  0.53301883180E+03  0.25500000000E-02 0.  1.
    8880023    1    1    2    0    0 -0.17900318843E+03 -0.42597879940E+03 -0.19082318725E+03  0.82687591213E+03  0.65864270000E+03 0.  1.
    8880022    1    1    2    0    0  0.17900318843E+03  0.42597879940E+03  0.24261696540E+04  0.24745082183E+04  0.15294330000E+03 0.  0.
<mgrwt>
<rscale>  0 0.70955478E+03</rscale>
<asrwt>0</asrwt>
<pdfrwt beam="1">  1        2 0.42590236E+00 0.80455596E+03</pdfrwt>
<pdfrwt beam="2">  1       -2 0.82002896E-01 0.80455596E+03</pdfrwt>
<totfact> 0.33108327E+00</totfact>
</mgrwt>
</event>
<event>
 4    1  0.8645356E-007  0.7186629E+03  0.7818608E-02  0.9927136E-01
         -2   -1    0    0    0  501 -0.00000000000E+00  0.00000000000E+00  0.11200121146E+04  0.11200121146E+04  0.25500000000E-02 0.  1.
          2   -1    0    0  501    0  0.00000000000E+00 -0.00000000000E+00 -0.24736741925E+03  0.24736741926E+03  0.25500000000E-02 0. -1.
    8880023    1    1    2    0    0 -0.97076861141E+02  0.27063313092E+03  0.51798756803E+03  0.88588234852E+03  0.65864270000E+03 0.  1.
    8880022    1    1    2    0    0  0.97076861141E+02 -0.27063313092E+03  0.35465712732E+03  0.48149718534E+03  0.15294330000E+03 0.  0.
<mgrwt>
<rscale>  0 0.58963980E+03</rscale>
<asrwt>0</asrwt>
<pdfrwt beam="1">  1        2 0.38056526E-01 0.71866294E+03</pdfrwt>
<pdfrwt beam="2">  1       -2 0.17230956E+00 0.71866294E+03</pdfrwt>
<totfact> 0.28381427E+01</totfact>
</mgrwt>
</event>
<event>
 4    1  0.8645356E-007  0.8608282E+03  0.7818608E-02  0.9592092E-01
          2   -1    0    0  501    0  0.00000000000E+00  0.00000000000E+00  0.16619437031E+04  0.16619437031E+04  0.25500000000E-02 0. -1.
         -2   -1    0    0    0  501 -0.00000000000E+00 -0.00000000000E+00 -0.66768190640E+03  0.66768190641E+03  0.25500000000E-02 0.  1.
    8880023    1    1    2    0    0 -0.55164741630E+03 -0.53852892490E+02 -0.30143536256E+03  0.91207921257E+03  0.65864270000E+03 0.  1.
    8880022    1    1    2    0    0  0.55164741630E+03  0.53852892490E+02  0.12956971592E+04  0.14175463969E+04  0.15294330000E+03 0.  0.
<mgrwt>
<rscale>  0 0.77821808E+03</rscale>
<asrwt>0</asrwt>
<pdfrwt beam="1">  1        2 0.25568365E+00 0.86082821E+03</pdfrwt>
<pdfrwt beam="2">  1       -2 0.10272029E+00 0.86082821E+03</pdfrwt>
<totfact> 0.80802237E+00</totfact>
</mgrwt>
</event>
<event>
 4    1  0.8645356E-007  0.7030515E+03  0.7818608E-02  0.9984770E-01
         -2   -1    0    0    0  501 -0.00000000000E+00  0.00000000000E+00  0.13555124792E+03  0.13555124795E+03  0.25500000000E-02 0.  1.
          2   -1    0    0  501    0  0.00000000000E+00 -0.00000000000E+00 -0.18174043285E+04  0.18174043285E+04  0.25500000000E-02 0. -1.
    8880023    1    1    2    0    0 -0.24556872475E+03 -0.12931509364E+02 -0.11984784814E+04  0.13894718778E+04  0.65864270000E+03 0.  1.
    8880022    1    1    2    0    0  0.24556872475E+03  0.12931509364E+02 -0.48337459911E+03  0.56348369860E+03  0.15294330000E+03 0. -1.
<mgrwt>
<rscale>  0 0.56323104E+03</rscale>
<asrwt>0</asrwt>
<pdfrwt beam="1">  1        2 0.27960065E+00 0.70305151E+03</pdfrwt>
<pdfrwt beam="2">  1       -2 0.20854039E-01 0.70305151E+03</pdfrwt>
<totfact> 0.17147484E+02</totfact>
</mgrwt>
</event>
<event>
 4    1  0.8645356E-007  0.7225721E+03  0.7818608E-02  0.9913977E-01
         -2   -1    0    0    0  501 -0.00000000000E+00  0.00000000000E+00  0.72404264316E+03  0.72404264317E+03  0.25500000000E-02 0.  1.
          2   -1    0    0  501    0  0.00000000000E+00 -0.00000000000E+00 -0.44932829876E+03  0.44932829877E+03  0.25500000000E-02 0. -1.
    8880023    1    1    2    0    0  0.29386454629E+03  0.44089287758E+02  0.38842028135E+03  0.82035404436E+03  0.65864270000E+03 0.  0.
    8880022    1    1    2    0    0 -0.29386454629E+03 -0.44089287758E+02 -0.11370593695E+03  0.35301689758E+03  0.15294330000E+03 0.  0.
<mgrwt>
<rscale>  0 0.59588657E+03</rscale>
<asrwt>0</asrwt>
<pdfrwt beam="1">  1        2 0.69127431E-01 0.72257210E+03</pdfrwt>
<pdfrwt beam="2">  1       -2 0.11139118E+00 0.72257210E+03</pdfrwt>
<totfact> 0.44995906E+01</totfact>
</mgrwt>
</event>
<event>
 4    1  0.8645356E-007  0.7646885E+03  0.7818608E-02  0.9793117E-01
          2   -1    0    0  501    0  0.00000000000E+00  0.00000000000E+00  0.11509854978E+04  0.11509854978E+04  0.25500000000E-02 0. -1.
         -2   -1    0    0    0  501 -0.00000000000E+00 -0.00000000000E+00 -0.54506690103E+03  0.54506690103E+03  0.25500000000E-02 0.  1.
    8880023    1    1    2    0    0  0.38560982719E+03  0.47364669818E+02 -0.19823512096E+03  0.78996564496E+03  0.65864270000E+03 0.  1.
    8880022    1    1    2    0    0 -0.38560982719E+03 -0.47364669818E+02  0.80415371772E+03  0.90608675385E+03  0.15294330000E+03 0.  0.
<mgrwt>
<rscale>  0 0.65733227E+03</rscale>
<asrwt>0</asrwt>
<pdfrwt beam="1">  1        2 0.17707469E+00 0.76468854E+03</pdfrwt>
<pdfrwt beam="2">  1       -2 0.83856447E-01 0.76468854E+03</pdfrwt>
<totfact> 0.25612520E+01</totfact>
</mgrwt>
</event>
<event>
 4    1  0.8645356E-007  0.6820457E+03  0.7818608E-02  0.1008189E+00
         -2   -1    0    0    0  501 -0.00000000000E+00  0.00000000000E+00  0.24932164413E+03  0.24932164415E+03  0.25500000000E-02 0.  1.
          2   -1    0    0  501    0  0.00000000000E+00 -0.00000000000E+00 -0.35061132048E+04  0.35061132048E+04  0.25500000000E-02 0. -1.
    8880023    1    1    2    0    0  0.16444202886E+03  0.65840197402E+02 -0.23025472106E+03  0.71986356713E+03  0.65864270000E+03 0.  0.
    8880022    1    1    2    0    0 -0.16444202886E+03 -0.65840197402E+02 -0.30265368397E+04  0.30355712819E+04  0.15294330000E+03 0. -1.
<mgrwt>
<rscale>  0 0.52200628E+03</rscale>
<asrwt>0</asrwt>
<pdfrwt beam="1">  1        2 0.53940199E+00 0.68204569E+03</pdfrwt>
<pdfrwt beam="2">  1       -2 0.38357179E-01 0.68204569E+03</pdfrwt>
<totfact> 0.56806993E+00</totfact>
</mgrwt>
</event>
<event>
 4    1  0.8645356E-007  0.6926133E+03  0.7818608E-02  0.1002934E+00
         -2   -1    0    0    0  501 -0.00000000000E+00  0.00000000000E+00  0.19372299351E+03  0.19372299352E+03  0.25500000000E-02 0.  1.
          2   -1    0    0  501    0  0.00000000000E+00 -0.00000000000E+00 -0.12625747508E+04  0.12625747508E+04  0.25500000000E-02 0. -1.
    8880023    1    1    2    0    0 -0.12593702209E+03 -0.17332870517E+03 -0.58992042568E+03  0.90979079379E+03  0.65864270000E+03 0.  0.
    8880022    1    1    2    0    0  0.12593702209E+03  0.17332870517E+03 -0.47893133161E+03  0.54650695054E+03  0.15294330000E+03 0.  0.
<mgrwt>
<rscale>  0 0.54382049E+03</rscale>
<asrwt>0</asrwt>
<pdfrwt beam="1">  1        2 0.19424226E+00 0.69261330E+03</pdfrwt>
<pdfrwt beam="2">  1       -2 0.29803538E-01 0.69261330E+03</pdfrwt>
<totfact> 0.18345487E+02</totfact>
</mgrwt>
</event>
<event>
 4    1  0.8645356E-007  0.6589210E+03  0.7818608E-02  0.1025290E+00
          2   -1    0    0  501    0  0.00000000000E+00  0.00000000000E+00  0.38533605596E+03  0.38533605597E+03  0.25500000000E-02 0. -1.
         -2   -1    0    0    0  501 -0.00000000000E+00 -0.00000000000E+00 -0.47218584348E+03  0.47218584348E+03  0.25500000000E-02 0.  1.
    8880023    1    1    2    0    0  0.17557328528E+02  0.76453691078E+01 -0.17258073170E+03  0.68114684663E+03  0.65864270000E+03 0.  0.
    8880022    1    1    2    0    0 -0.17557328528E+02 -0.76453691078E+01  0.85730944189E+02  0.17637505283E+03  0.15294330000E+03 0.  0.
<mgrwt>
<rscale>  0 0.45824960E+03</rscale>
<asrwt>0</asrwt>
<pdfrwt beam="1">  1        2 0.59282470E-01 0.65892103E+03</pdfrwt>
<pdfrwt beam="2">  1       -2 0.72643976E-01 0.65892103E+03</pdfrwt>
<totfact> 0.14411857E+02</totfact>
</mgrwt>
</event>
<event>
 4    1  0.8645356E-007  0.7235478E+03  0.7818608E-02  0.9910759E-01
          2   -1    0    0  501    0  0.00000000000E+00  0.00000000000E+00  0.31987742878E+04  0.31987742878E+04  0.25500000000E-02 0. -1.
         -2   -1    0    0    0  501 -0.00000000000E+00 -0.00000000000E+00 -0.15832839184E+03  0.15832839186E+03  0.25500000000E-02 0.  1.
    8880023    1    1    2    0    0  0.27537769556E+03 -0.11780633624E+03  0.75009347533E+03  0.10421907868E+04  0.65864270000E+03 0.  1.
    8880022    1    1    2    0    0 -0.27537769556E+03  0.11780633624E+03  0.22903524207E+04  0.23149118929E+04  0.15294330000E+03 0.  0.
<mgrwt>
<rscale>  0 0.59742669E+03</rscale>
<asrwt>0</asrwt>
<pdfrwt beam="1">  1        2 0.49211914E+00 0.72354780E+03</pdfrwt>
<pdfrwt beam="2">  1       -2 0.24358213E-01 0.72354780E+03</pdfrwt>
<totfact> 0.20890225E+01</totfact>
</mgrwt>
</event>
<event>
 4    1  0.8645356E-007  0.8348116E+03  0.7818608E-02  0.9640042E-01
         -2   -1    0    0    0  501 -0.00000000000E+00  0.00000000000E+00  0.16342915649E+03  0.16342915651E+03  0.25500000000E-02 0.  1.
          2   -1    0    0  501    0  0.00000000000E+00 -0.00000000000E+00 -0.31307643312E+04  0.31307643312E+04  0.25500000000E-02 0. -1.
    8880023    1    1    2    0    0 -0.70784277927E+02  0.50802531275E+03 -0.13176045350E+04  0.15598051319E+04  0.65864270000E+03 0.  1.
    8880022    1    1    2    0    0  0.70784277927E+02 -0.50802531275E+03 -0.16497306396E+04  0.17343883558E+04  0.15294330000E+03 0.  0.
<mgrwt>
<rscale>  0 0.74701679E+03</rscale>
<asrwt>0</asrwt>
<pdfrwt beam="1">  1        2 0.48165601E+00 0.83481156E+03</pdfrwt>
<pdfrwt beam="2">  1       -2 0.25142950E-01 0.83481156E+03</pdfrwt>
<totfact> 0.21397990E+01</totfact>
</mgrwt>
</event>
<event>
 4    1  0.8645356E-007  0.1060979E+04  0.7818608E-02  0.9305799E-01
          2   -1    0    0  501    0  0.00000000000E+00  0.00000000000E+00  0.13958108762E+04  0.13958108762E+04  0.25500000000E-02 0. -1.
         -2   -1    0    0    0  501 -0.00000000000E+00 -0.00000000000E+00 -0.23291108424E+04  0.23291108424E+04  0.25500000000E-02 0.  1.
    8880023    1    1    2    0    0 -0.70893235532E+03  0.43506367066E+03  0.10966250989E+04  0.15258644421E+04  0.65864270000E+03 0.  0.
    8880022    1    1    2    0    0  0.70893235532E+03 -0.43506367066E+03 -0.20299250651E+04  0.21990572764E+04  0.15294330000E+03 0.  0.
<mgrwt>
<rscale>  0 0.10025078E+04</rscale>
<asrwt>0</asrwt>
<pdfrwt beam="1">  1        2 0.21474013E+00 0.10609786E+04</pdfrwt>
<pdfrwt beam="2">  1       -2 0.35832475E+00 0.10609786E+04</pdfrwt>
<totfact> 0.20105441E-01</totfact>
</mgrwt>
</event>
<event>
 4    1  0.8645356E-007  0.8288213E+03  0.7818608E-02  0.9651630E-01
          2   -1    0    0  501    0  0.00000000000E+00  0.00000000000E+00  0.11416487472E+04  0.11416487472E+04  0.25500000000E-02 0. -1.
         -2   -1    0    0    0  501 -0.00000000000E+00 -0.00000000000E+00 -0.11897402321E+04  0.11897402321E+04  0.25500000000E-02 0.  1.
    8880023    1    1    2    0    0  0.28201807338E+03 -0.41665369436E+03 -0.96642440530E+03  0.12731538918E+04  0.65864270000E+03 0.  1.
    8880022    1    1    2    0    0 -0.28201807338E+03  0.41665369436E+03  0.91833292042E+03  0.10582350875E+04  0.15294330000E+03 0.  0.
<mgrwt>
<rscale>  0 0.73971205E+03</rscale>
<asrwt>0</asrwt>
<pdfrwt beam="1">  1        2 0.17563827E+00 0.82882127E+03</pdfrwt>
<pdfrwt beam="2">  1       -2 0.18303696E+00 0.82882127E+03</pdfrwt>
<totfact> 0.35935063E+00</totfact>
</mgrwt>
</event>
<event>
 4    1  0.8645356E-007  0.7559306E+03  0.7818608E-02  0.9815759E-01
         -2   -1    0    0    0  501 -0.00000000000E+00  0.00000000000E+00  0.50757228583E+03  0.50757228583E+03  0.25500000000E-02 0.  1.
          2   -1    0    0  501    0  0.00000000000E+00 -0.00000000000E+00 -0.13672101682E+04  0.13672101682E+04  0.25500000000E-02 0. -1.
    8880023    1    1    2    0    0  0.25514440072E+03  0.26929945509E+03  0.16556508142E+03  0.77384938081E+03  0.65864270000E+03 0.  1.
    8880022    1    1    2    0    0 -0.25514440072E+03 -0.26929945509E+03 -0.10252029638E+04  0.11009330732E+04  0.15294330000E+03 0.  0.
<mgrwt>
<rscale>  0 0.64523646E+03</rscale>
<asrwt>0</asrwt>
<pdfrwt beam="1">  1        2 0.21034002E+00 0.75593060E+03</pdfrwt>
<pdfrwt beam="2">  1       -2 0.78088044E-01 0.75593060E+03</pdfrwt>
<totfact> 0.22515502E+01</totfact>
</mgrwt>
</event>
<event>
 4    1  0.8645356E-007  0.6634237E+03  0.7818608E-02  0.1020894E+00
         -2   -1    0    0    0  501 -0.00000000000E+00  0.00000000000E+00  0.71646142641E+03  0.71646142642E+03  0.25500000000E-02 0.  1.
          2   -1    0    0  501    0  0.00000000000E+00 -0.00000000000E+00 -0.57887007927E+03  0.57887007927E+03  0.25500000000E-02 0. -1.
    8880023    1    1    2    0    0 -0.70686978533E+02  0.36389621105E+02  0.54138321276E+03  0.85628665923E+03  0.65864270000E+03 0.  1.
    8880022    1    1    2    0    0  0.70686978533E+02 -0.36389621105E+02 -0.40379186561E+03  0.43904484646E+03  0.15294330000E+03 0.  0.
<mgrwt>
<rscale>  0 0.47365341E+03</rscale>
<asrwt>0</asrwt>
<pdfrwt beam="1">  1        2 0.89056935E-01 0.66342374E+03</pdfrwt>
<pdfrwt beam="2">  1       -2 0.11022483E+00 0.66342374E+03</pdfrwt>
<totfact> 0.34528432E+01</totfact>
</mgrwt>
</event>
<event>
 4    1  0.8645356E-007  0.8841409E+03  0.7818608E-02  0.9551986E-01
          2   -1    0    0  501    0  0.00000000000E+00  0.00000000000E+00  0.18199770673E+04  0.18199770673E+04  0.25500000000E-02 0. -1.
         -2   -1    0    0    0  501 -0.00000000000E+00 -0.00000000000E+00 -0.61566246725E+03  0.61566246725E+03  0.25500000000E-02 0.  1.
    8880023    1    1    2    0    0 -0.21155427516E+03  0.55058117378E+03 -0.19854713348E+03  0.90616003594E+03  0.65864270000E+03 0.  1.
    8880022    1    1    2    0    0  0.21155427516E+03 -0.55058117378E+03  0.14028617336E+04  0.15294794986E+04  0.15294330000E+03 0.  0.
<mgrwt>
<rscale>  0 0.80557269E+03</rscale>
<asrwt>0</asrwt>
<pdfrwt beam="1">  1        2 0.27999646E+00 0.88414085E+03</pdfrwt>
<pdfrwt beam="2">  1       -2 0.94717305E-01 0.88414085E+03</pdfrwt>
<totfact> 0.79930191E+00</totfact>
</mgrwt>
</event>
<event>
 4    1  0.8645356E-007  0.6797448E+03  0.7818608E-02  0.1009468E+00
          2   -1    0    0  501    0  0.00000000000E+00  0.00000000000E+00  0.17286145934E+04  0.17286145934E+04  0.25500000000E-02 0. -1.
         -2   -1    0    0    0  501 -0.00000000000E+00 -0.00000000000E+00 -0.21943680374E+03  0.21943680375E+03  0.25500000000E-02 0.  1.
    8880023    1    1    2    0    0  0.11347626346E+03  0.12395951137E+03  0.34571942009E+03  0.76261061264E+03  0.65864270000E+03 0.  0.
    8880022    1    1    2    0    0 -0.11347626346E+03 -0.12395951137E+03  0.11634583696E+04  0.11854407846E+04  0.15294330000E+03 0.  0.
<mgrwt>
<rscale>  0 0.51686474E+03</rscale>
<asrwt>0</asrwt>
<pdfrwt beam="1">  1        2 0.26594070E+00 0.67974483E+03</pdfrwt>
<pdfrwt beam="2">  1       -2 0.33759510E-01 0.67974483E+03</pdfrwt>
<totfact> 0.79948920E+01</totfact>
</mgrwt>
</event>
<event>
 4    1  0.8645356E-007  0.8015955E+03  0.7818608E-02  0.9707357E-01
         -2   -1    0    0    0  501 -0.00000000000E+00  0.00000000000E+00  0.45433745367E+03  0.45433745368E+03  0.25500000000E-02 0.  1.
          2   -1    0    0  501    0  0.00000000000E+00 -0.00000000000E+00 -0.22117538382E+04  0.22117538382E+04  0.25500000000E-02 0. -1.
    8880023    1    1    2    0    0 -0.34532002748E+03 -0.29916414092E+03  0.42582109177E+02  0.80272569840E+03  0.65864270000E+03 0.  1.
    8880022    1    1    2    0    0  0.34532002748E+03  0.29916414092E+03 -0.17999984937E+04  0.18633655935E+04  0.15294330000E+03 0.  0.
<mgrwt>
<rscale>  0 0.70580452E+03</rscale>
<asrwt>0</asrwt>
<pdfrwt beam="1">  1        2 0.34026981E+00 0.80159548E+03</pdfrwt>
<pdfrwt beam="2">  1       -2 0.69898071E-01 0.80159548E+03</pdfrwt>
<totfact> 0.97931593E+00</totfact>
</mgrwt>
</event>
<event>
 4    1  0.8645356E-007  0.1400814E+04  0.7818608E-02  0.8983051E-01
         -2   -1    0    0    0  501 -0.00000000000E+00  0.00000000000E+00  0.18998587014E+04  0.18998587014E+04  0.25500000000E-02 0.  1.
          2   -1    0    0  501    0  0.00000000000E+00 -0.00000000000E+00 -0.12987457828E+04  0.12987457828E+04  0.25500000000E-02 0. -1.
    8880023    1    1    2    0    0 -0.11945106606E+04 -0.31876793365E+03  0.11737483015E+04  0.18275568378E+04  0.65864270000E+03 0.  0.
    8880022    1    1    2    0    0  0.11945106606E+04  0.31876793365E+03 -0.57263538293E+03  0.13710476464E+04  0.15294330000E+03 0.  0.
<mgrwt>
<rscale>  0 0.13603224E+04</rscale>
<asrwt>0</asrwt>
<pdfrwt beam="1">  1        2 0.19980704E+00 0.14008137E+04</pdfrwt>
<pdfrwt beam="2">  1       -2 0.29228595E+00 0.14008137E+04</pdfrwt>
<totfact> 0.55904714E-01</totfact>
</mgrwt>
</event>
<event>
 4    1  0.8645356E-007  0.6858762E+03  0.7818608E-02  0.1006178E+00
          2   -1    0    0  501    0  0.00000000000E+00  0.00000000000E+00  0.11372192400E+04  0.11372192400E+04  0.25500000000E-02 0. -1.
         -2   -1    0    0    0  501 -0.00000000000E+00 -0.00000000000E+00 -0.38364328448E+03  0.38364328449E+03  0.25500000000E-02 0.  1.
    8880023    1    1    2    0    0 -0.15002658139E+03 -0.11877675687E+03 -0.43244100169E+02  0.68723806032E+03  0.65864270000E+03 0.  0.
    8880022    1    1    2    0    0  0.15002658139E+03  0.11877675687E+03  0.79682005568E+03  0.83362446416E+03  0.15294330000E+03 0.  0.
<mgrwt>
<rscale>  0 0.53022477E+03</rscale>
<asrwt>0</asrwt>
<pdfrwt beam="1">  1        2 0.17495680E+00 0.68587615E+03</pdfrwt>
<pdfrwt beam="2">  1       -2 0.59022045E-01 0.68587615E+03</pdfrwt>
<totfact> 0.56688381E+01</totfact>
</mgrwt>
</event>
<event>
 4    1  0.8645356E-007  0.1078166E+04  0.7818608E-02  0.9285764E-01
         -2   -1    0    0    0  501 -0.00000000000E+00  0.00000000000E+00  0.11162234513E+04  0.11162234514E+04  0.25500000000E-02 0.  1.
          2   -1    0    0  501    0  0.00000000000E+00 -0.00000000000E+00 -0.21213894279E+04  0.21213894279E+04  0.25500000000E-02 0. -1.
    8880023    1    1    2    0    0 -0.66569724401E+03  0.53430185648E+03  0.72708446642E+03  0.13004204405E+04  0.65864270000E+03 0.  0.
    8880022    1    1    2    0    0  0.66569724401E+03 -0.53430185648E+03 -0.17322504430E+04  0.19371924388E+04  0.15294330000E+03 0.  0.
<mgrwt>
<rscale>  0 0.10210407E+04</rscale>
<asrwt>0</asrwt>
<pdfrwt beam="1">  1        2 0.32636760E+00 0.10781658E+04</pdfrwt>
<pdfrwt beam="2">  1       -2 0.17172668E+00 0.10781658E+04</pdfrwt>
<totfact> 0.11704564E+00</totfact>
</mgrwt>
</event>
<event>
 4    1  0.8645356E-007  0.8021176E+03  0.7818608E-02  0.9706236E-01
          2   -1    0    0  501    0  0.00000000000E+00  0.00000000000E+00  0.13415570406E+04  0.13415570406E+04  0.25500000000E-02 0. -1.
         -2   -1    0    0    0  501 -0.00000000000E+00 -0.00000000000E+00 -0.50946805714E+03  0.50946805714E+03  0.25500000000E-02 0.  1.
    8880023    1    1    2    0    0  0.10967218218E+03 -0.44447106510E+03 -0.93095471875E+02  0.80750200520E+03  0.65864270000E+03 0.  1.
    8880022    1    1    2    0    0 -0.10967218218E+03  0.44447106510E+03  0.92518445534E+03  0.10435230925E+04  0.15294330000E+03 0.  0.
<mgrwt>
<rscale>  0 0.70646724E+03</rscale>
<asrwt>0</asrwt>
<pdfrwt beam="1">  1        2 0.20639339E+00 0.80211765E+03</pdfrwt>
<pdfrwt beam="2">  1       -2 0.78379701E-01 0.80211765E+03</pdfrwt>
<totfact> 0.22976786E+01</totfact>
</mgrwt>
</event>
<event>
 4    1  0.8645356E-007  0.6626286E+03  0.7818608E-02  0.1021612E+00
          2   -1    0    0  501    0  0.00000000000E+00  0.00000000000E+00  0.25296580094E+04  0.25296580094E+04  0.25500000000E-02 0. -1.
         -2   -1    0    0    0  501 -0.00000000000E+00 -0.00000000000E+00 -0.11693685409E+03  0.11693685411E+03  0.25500000000E-02 0.  1.
    8880023    1    1    2    0    0 -0.64171911282E+02  0.33888755017E+02  0.86495344218E+03  0.10895967811E+04  0.65864270000E+03 0.  1.
    8880022    1    1    2    0    0  0.64171911282E+02 -0.33888755017E+02  0.15477677132E+04  0.15569980825E+04  0.15294330000E+03 0.  0.
<mgrwt>
<rscale>  0 0.47109515E+03</rscale>
<asrwt>0</asrwt>
<pdfrwt beam="1">  1        2 0.38917817E+00 0.66262862E+03</pdfrwt>
<pdfrwt beam="2">  1       -2 0.17990285E-01 0.66262862E+03</pdfrwt>
<totfact> 0.90267234E+01</totfact>
</mgrwt>
</event>
<event>
 4    1  0.8645356E-007  0.6659478E+03  0.7818608E-02  0.1018751E+00
         -2   -1    0    0    0  501 -0.00000000000E+00  0.00000000000E+00  0.97330068101E+02  0.97330068134E+02  0.25500000000E-02 0.  1.
          2   -1    0    0  501    0  0.00000000000E+00 -0.00000000000E+00 -0.21814568445E+04  0.21814568445E+04  0.25500000000E-02 0. -1.
    8880023    1    1    2    0    0 -0.67580681410E+02  0.71478546718E+02 -0.11655492541E+04  0.13423828072E+04  0.65864270000E+03 0.  0.
    8880022    1    1    2    0    0  0.67580681410E+02 -0.71478546718E+02 -0.91857752229E+03  0.93640410540E+03  0.15294330000E+03 0. -1.
<mgrwt>
<rscale>  0 0.48140005E+03</rscale>
<asrwt>0</asrwt>
<pdfrwt beam="1">  1        2 0.33560871E+00 0.66594785E+03</pdfrwt>
<pdfrwt beam="2">  1       -2 0.14973858E-01 0.66594785E+03</pdfrwt>
<totfact> 0.19278562E+02</totfact>
</mgrwt>
</event>
<event>
 4    1  0.8645356E-007  0.6741300E+03  0.7818608E-02  0.1012860E+00
          2   -1    0    0  501    0  0.00000000000E+00  0.00000000000E+00  0.15835404282E+04  0.15835404283E+04  0.25500000000E-02 0. -1.
         -2   -1    0    0    0  501 -0.00000000000E+00 -0.00000000000E+00 -0.13425997044E+03  0.13425997047E+03  0.25500000000E-02 0.  1.
    8880023    1    1    2    0    0 -0.12849848398E+03 -0.64258964874E+02  0.86293838424E+03  0.10950406094E+04  0.65864270000E+03 0.  0.
    8880022    1    1    2    0    0  0.12849848398E+03  0.64258964874E+02  0.58634207357E+03  0.62275978933E+03  0.15294330000E+03 0.  0.
<mgrwt>
<rscale>  0 0.50353504E+03</rscale>
<asrwt>0</asrwt>
<pdfrwt beam="1">  1        2 0.24362159E+00 0.67413002E+03</pdfrwt>
<pdfrwt beam="2">  1       -2 0.20655381E-01 0.67413002E+03</pdfrwt>
<totfact> 0.23460746E+02</totfact>
</mgrwt>
</event>
<event>
 4    1  0.8645356E-007  0.6988048E+03  0.7818608E-02  0.1000220E+00
         -2   -1    0    0    0  501 -0.00000000000E+00  0.00000000000E+00  0.94765419115E+03  0.94765419116E+03  0.25500000000E-02 0.  1.
          2   -1    0    0  501    0  0.00000000000E+00 -0.00000000000E+00 -0.40829870345E+03  0.40829870346E+03  0.25500000000E-02 0. -1.
    8880023    1    1    2    0    0  0.50724474690E+02 -0.22791441511E+03  0.73570451956E+03  0.10146867986E+04  0.65864270000E+03 0.  1.
    8880022    1    1    2    0    0 -0.50724474690E+02  0.22791441511E+03 -0.19634903186E+03  0.34126609599E+03  0.15294330000E+03 0.  0.
<mgrwt>
<rscale>  0 0.55554058E+03</rscale>
<asrwt>0</asrwt>
<pdfrwt beam="1">  1        2 0.62815185E-01 0.69880481E+03</pdfrwt>
<pdfrwt beam="2">  1       -2 0.14579295E+00 0.69880481E+03</pdfrwt>
<totfact> 0.25518618E+01</totfact>
</mgrwt>
</event>
<event>
 4    1  0.8645356E-007  0.6687395E+03  0.7818608E-02  0.1016583E+00
         -2   -1    0    0    0  501 -0.00000000000E+00  0.00000000000E+00  0.15207532693E+03  0.15207532695E+03  0.25500000000E-02 0.  1.
          2   -1    0    0  501    0  0.00000000000E+00 -0.00000000000E+00 -0.26235823968E+04  0.26235823968E+04  0.25500000000E-02 0. -1.
    8880023    1    1    2    0    0  0.79655855044E+02 -0.84007465867E+02 -0.61270292290E+03  0.90698257291E+03  0.65864270000E+03 0.  1.
    8880022    1    1    2    0    0 -0.79655855044E+02  0.84007465867E+02 -0.18588041470E+04  0.18686751509E+04  0.15294330000E+03 0.  0.
<mgrwt>
<rscale>  0 0.48940094E+03</rscale>
<asrwt>0</asrwt>
<pdfrwt beam="1">  1        2 0.40362803E+00 0.66873950E+03</pdfrwt>
<pdfrwt beam="2">  1       -2 0.23396206E-01 0.66873950E+03</pdfrwt>
<totfact> 0.50300750E+01</totfact>
</mgrwt>
</event>
<event>
 4    1  0.8645356E-007  0.7964667E+03  0.7818608E-02  0.9718488E-01
          2   -1    0    0  501    0  0.00000000000E+00  0.00000000000E+00  0.14972946225E+04  0.14972946225E+04  0.25500000000E-02 0. -1.
         -2   -1    0    0    0  501 -0.00000000000E+00 -0.00000000000E+00 -0.66617902768E+03  0.66617902768E+03  0.25500000000E-02 0.  1.
    8880023    1    1    2    0    0 -0.26629100811E+03  0.36005296977E+03 -0.36576422983E+03  0.87643751638E+03  0.65864270000E+03 0.  0.
    8880022    1    1    2    0    0  0.26629100811E+03 -0.36005296977E+03  0.11968798247E+04  0.12870361338E+04  0.15294330000E+03 0.  0.
<mgrwt>
<rscale>  0 0.69926591E+03</rscale>
<asrwt>0</asrwt>
<pdfrwt beam="1">  1        2 0.23035302E+00 0.79646673E+03</pdfrwt>
<pdfrwt beam="2">  1       -2 0.10248908E+00 0.79646673E+03</pdfrwt>
<totfact> 0.10105759E+01</totfact>
</mgrwt>
</event>
<event>
 4    1  0.8645356E-007  0.1170845E+04  0.7818608E-02  0.9185997E-01
          2   -1    0    0  501    0  0.00000000000E+00  0.00000000000E+00  0.63387339196E+03  0.63387339196E+03  0.25500000000E-02 0. -1.
         -2   -1    0    0    0  501 -0.00000000000E+00 -0.00000000000E+00 -0.36449151784E+04  0.36449151784E+04  0.25500000000E-02 0.  1.
    8880023    1    1    2    0    0  0.33479755363E+03  0.90828378942E+03 -0.30812888607E+04  0.32962433304E+04  0.65864270000E+03 0.  0.
    8880022    1    1    2    0    0 -0.33479755363E+03 -0.90828378942E+03  0.70247074267E+02  0.98254523992E+03  0.15294330000E+03 0.  0.
<mgrwt>
<rscale>  0 0.11199139E+04</rscale>
<asrwt>0</asrwt>
<pdfrwt beam="1">  1        2 0.97518986E-01 0.11708454E+04</pdfrwt>
<pdfrwt beam="2">  1       -2 0.56075617E+00 0.11708454E+04</pdfrwt>
<totfact> 0.33848854E-02</totfact>
</mgrwt>
</event>
<event>
 4    1  0.8645356E-007  0.8739485E+03  0.7818608E-02  0.9569218E-01
         -2   -1    0    0    0  501 -0.00000000000E+00  0.00000000000E+00  0.24698472030E+04  0.24698472030E+04  0.25500000000E-02 0.  1.
          2   -1    0    0  501    0  0.00000000000E+00 -0.00000000000E+00 -0.43800283884E+03  0.43800283885E+03  0.25500000000E-02 0. -1.
    8880023    1    1    2    0    0  0.13812336880E+03 -0.55758206381E+03  0.21327803460E+04  0.23048943649E+04  0.65864270000E+03 0.  1.
    8880022    1    1    2    0    0 -0.13812336880E+03  0.55758206381E+03 -0.10093598185E+03  0.60295567693E+03  0.15294330000E+03 0.  0.
<mgrwt>
<rscale>  0 0.79367502E+03</rscale>
<asrwt>0</asrwt>
<pdfrwt beam="1">  1        2 0.67385052E-01 0.87394853E+03</pdfrwt>
<pdfrwt beam="2">  1       -2 0.37997649E+00 0.87394853E+03</pdfrwt>
<totfact> 0.74566409E-01</totfact>
</mgrwt>
</event>
<event>
 4    1  0.8645356E-007  0.8280292E+03  0.7818608E-02  0.9653179E-01
          2   -1    0    0  501    0  0.00000000000E+00  0.00000000000E+00  0.93799813133E+03  0.93799813133E+03  0.25500000000E-02 0. -1.
         -2   -1    0    0    0  501 -0.00000000000E+00 -0.00000000000E+00 -0.83153776105E+03  0.83153776106E+03  0.25500000000E-02 0.  1.
    8880023    1    1    2    0    0  0.50179854709E+03 -0.45056770537E+01  0.62076125224E+03  0.10348801001E+04  0.65864270000E+03 0. -1.
    8880022    1    1    2    0    0 -0.50179854709E+03  0.45056770537E+01 -0.51430088196E+03  0.73465579232E+03  0.15294330000E+03 0.  0.
<mgrwt>
<rscale>  0 0.73874233E+03</rscale>
<asrwt>0</asrwt>
<pdfrwt beam="1">  1        2 0.14430740E+00 0.82802916E+03</pdfrwt>
<pdfrwt beam="2">  1       -2 0.12792889E+00 0.82802916E+03</pdfrwt>
<totfact> 0.12607586E+01</totfact>
</mgrwt>
</event>
<event>
 4    1  0.8645356E-007  0.6684673E+03  0.7818608E-02  0.1016786E+00
         -2   -1    0    0    0  501 -0.00000000000E+00  0.00000000000E+00  0.17178941017E+04  0.17178941017E+04  0.25500000000E-02 0.  1.
          2   -1    0    0  501    0  0.00000000000E+00 -0.00000000000E+00 -0.27149593183E+03  0.27149593185E+03  0.25500000000E-02 0. -1.
    8880023    1    1    2    0    0 -0.11263289258E+03 -0.18764138250E+02  0.16066535532E+04  0.17401678389E+04  0.65864270000E+03 0.  1.
    8880022    1    1    2    0    0  0.11263289258E+03  0.18764138250E+02 -0.16025538335E+03  0.24922219460E+03  0.15294330000E+03 0.  0.
<mgrwt>
<rscale>  0 0.48864378E+03</rscale>
<asrwt>0</asrwt>
<pdfrwt beam="1">  1        2 0.41768604E-01 0.66846725E+03</pdfrwt>
<pdfrwt beam="2">  1       -2 0.26429141E+00 0.66846725E+03</pdfrwt>
<totfact> 0.67079535E+00</totfact>
</mgrwt>
</event>
<event>
 4    1  0.8645356E-007  0.7428543E+03  0.7818608E-02  0.9851709E-01
         -2   -1    0    0    0  501 -0.00000000000E+00  0.00000000000E+00  0.44847057633E+03  0.44847057634E+03  0.25500000000E-02 0.  1.
          2   -1    0    0  501    0  0.00000000000E+00 -0.00000000000E+00 -0.22858580965E+04  0.22858580965E+04  0.25500000000E-02 0. -1.
    8880023    1    1    2    0    0  0.10292967025E+03 -0.32776186725E+03  0.11000920451E+03  0.75095578431E+03  0.65864270000E+03 0.  1.
    8880022    1    1    2    0    0 -0.10292967025E+03  0.32776186725E+03 -0.19473967247E+04  0.19833728886E+04  0.15294330000E+03 0.  0.
<mgrwt>
<rscale>  0 0.62659843E+03</rscale>
<asrwt>0</asrwt>
<pdfrwt beam="1">  1        2 0.35167047E+00 0.74285434E+03</pdfrwt>
<pdfrwt beam="2">  1       -2 0.68995474E-01 0.74285434E+03</pdfrwt>
<totfact> 0.92500763E+00</totfact>
</mgrwt>
</event>
<event>
 4    1  0.8645356E-007  0.9333361E+03  0.7818608E-02  0.9474506E-01
          2   -1    0    0  501    0  0.00000000000E+00  0.00000000000E+00  0.13345860099E+04  0.13345860099E+04  0.25500000000E-02 0. -1.
         -2   -1    0    0    0  501 -0.00000000000E+00 -0.00000000000E+00 -0.83673327452E+03  0.83673327453E+03  0.25500000000E-02 0.  1.
    8880023    1    1    2    0    0 -0.60314666660E+03 -0.27114599822E+03 -0.42515927354E+03  0.10256103880E+04  0.65864270000E+03 0.  0.
    8880022    1    1    2    0    0  0.60314666660E+03  0.27114599822E+03  0.92301200889E+03  0.11457088964E+04  0.15294330000E+03 0. -1.
<mgrwt>
<rscale>  0 0.86189736E+03</rscale>
<asrwt>0</asrwt>
<pdfrwt beam="1">  1        2 0.20532092E+00 0.93333609E+03</pdfrwt>
<pdfrwt beam="2">  1       -2 0.12872820E+00 0.93333609E+03</pdfrwt>
<totfact> 0.70248026E+00</totfact>
</mgrwt>
</event>
<event>
 4    1  0.8645356E-007  0.8080467E+03  0.7818608E-02  0.9693660E-01
         -2   -1    0    0    0  501 -0.00000000000E+00  0.00000000000E+00  0.53593153735E+03  0.53593153736E+03  0.25500000000E-02 0.  1.
          2   -1    0    0  501    0  0.00000000000E+00 -0.00000000000E+00 -0.79708896369E+03  0.79708896369E+03  0.25500000000E-02 0. -1.
    8880023    1    1    2    0    0 -0.33615298178E+03  0.32577670063E+03 -0.96651258191E+02  0.81380646213E+03  0.65864270000E+03 0.  0.
    8880022    1    1    2    0    0  0.33615298178E+03 -0.32577670063E+03 -0.16450616815E+03  0.51921403892E+03  0.15294330000E+03 0.  0.
<mgrwt>
<rscale>  0 0.71395527E+03</rscale>
<asrwt>0</asrwt>
<pdfrwt beam="1">  1        2 0.12262907E+00 0.80804671E+03</pdfrwt>
<pdfrwt beam="2">  1       -2 0.82451006E-01 0.80804671E+03</pdfrwt>
<totfact> 0.45103801E+01</totfact>
</mgrwt>
</event>
<event>
 4    1  0.8645356E-007  0.6833321E+03  0.7818608E-02  0.1007498E+00
          2   -1    0    0  501    0  0.00000000000E+00  0.00000000000E+00  0.11803411973E+04  0.11803411973E+04  0.25500000000E-02 0. -1.
         -2   -1    0    0    0  501 -0.00000000000E+00 -0.00000000000E+00 -0.34339020855E+03  0.34339020856E+03  0.25500000000E-02 0.  1.
    8880023    1    1    2    0    0  0.17398743826E+03 -0.53488167721E+02  0.31645958921E+02  0.68406453331E+03  0.65864270000E+03 0.  1.
    8880022    1    1    2    0    0 -0.17398743826E+03  0.53488167721E+02  0.80530502983E+03  0.83966687254E+03  0.15294330000E+03 0.  0.
<mgrwt>
<rscale>  0 0.52481139E+03</rscale>
<asrwt>0</asrwt>
<pdfrwt beam="1">  1        2 0.18159096E+00 0.68333214E+03</pdfrwt>
<pdfrwt beam="2">  1       -2 0.52829262E-01 0.68333214E+03</pdfrwt>
<totfact> 0.67281770E+01</totfact>
</mgrwt>
</event>
<event>
 4    1  0.8645356E-007  0.7344728E+03  0.7818608E-02  0.9876350E-01
         -2   -1    0    0    0  501 -0.00000000000E+00  0.00000000000E+00  0.23638906940E+03  0.23638906941E+03  0.25500000000E-02 0.  1.
          2   -1    0    0  501    0  0.00000000000E+00 -0.00000000000E+00 -0.35151265330E+04  0.35151265330E+04  0.25500000000E-02 0. -1.
    8880023    1    1    2    0    0 -0.11610024596E+03  0.30358009245E+03 -0.37318512826E+03  0.82384311969E+03  0.65864270000E+03 0.  1.
    8880022    1    1    2    0    0  0.11610024596E+03 -0.30358009245E+03 -0.29055523353E+04  0.29276724827E+04  0.15294330000E+03 0.  0.
<mgrwt>
<rscale>  0 0.61421285E+03</rscale>
<asrwt>0</asrwt>
<pdfrwt beam="1">  1        2 0.54078866E+00 0.73447284E+03</pdfrwt>
<pdfrwt beam="2">  1       -2 0.36367552E-01 0.73447284E+03</pdfrwt>
<totfact> 0.61349747E+00</totfact>
</mgrwt>
</event>
<event>
 4    1  0.8645356E-007  0.1066063E+04  0.7818608E-02  0.9299816E-01
         -2   -1    0    0    0  501 -0.00000000000E+00  0.00000000000E+00  0.15207553509E+04  0.15207553509E+04  0.25500000000E-02 0.  1.
          2   -1    0    0  501    0  0.00000000000E+00 -0.00000000000E+00 -0.82749846479E+03  0.82749846479E+03  0.25500000000E-02 0. -1.
    8880023    1    1    2    0    0 -0.77456607302E+03 -0.32051059810E+03  0.98114253561E+03  0.14488376467E+04  0.65864270000E+03 0.  0.
    8880022    1    1    2    0    0  0.77456607302E+03  0.32051059810E+03 -0.28788564947E+03  0.89941616905E+03  0.15294330000E+03 0.  0.
<mgrwt>
<rscale>  0 0.10079976E+04</rscale>
<asrwt>0</asrwt>
<pdfrwt beam="1">  1        2 0.12730746E+00 0.10660628E+04</pdfrwt>
<pdfrwt beam="2">  1       -2 0.23396236E+00 0.10660628E+04</pdfrwt>
<totfact> 0.26276084E+00</totfact>
</mgrwt>
</event>
<event>
 4    1  0.8645356E-007  0.1003535E+04  0.7818608E-02  0.9376947E-01
         -2   -1    0    0    0  501 -0.00000000000E+00  0.00000000000E+00  0.45425355591E+03  0.45425355592E+03  0.25500000000E-02 0.  1.
          2   -1    0    0  501    0  0.00000000000E+00 -0.00000000000E+00 -0.28649455640E+04  0.28649455640E+04  0.25500000000E-02 0. -1.
    8880023    1    1    2    0    0 -0.57667223272E+03 -0.49063349930E+03 -0.26387793006E+03  0.10376482366E+04  0.65864270000E+03 0.  1.
    8880022    1    1    2    0    0  0.57667223272E+03  0.49063349930E+03 -0.21468140780E+04  0.22815508833E+04  0.15294330000E+03 0.  0.
<mgrwt>
<rscale>  0 0.93997341E+03</rscale>
<asrwt>0</asrwt>
<pdfrwt beam="1">  1        2 0.44076085E+00 0.10035349E+04</pdfrwt>
<pdfrwt beam="2">  1       -2 0.69885164E-01 0.10035349E+04</pdfrwt>
<totfact> 0.40106784E+00</totfact>
</mgrwt>
</event>
<event>
 4    1  0.8645356E-007  0.6856906E+03  0.7818608E-02  0.1006272E+00
          2   -1    0    0  501    0  0.00000000000E+00  0.00000000000E+00  0.15547830548E+04  0.15547830548E+04  0.25500000000E-02 0. -1.
         -2   -1    0    0    0  501 -0.00000000000E+00 -0.00000000000E+00 -0.28762928058E+03  0.28762928060E+03  0.25500000000E-02 0.  1.
    8880023    1    1    2    0    0  0.15049825956E+03 -0.11709656318E+03  0.15404788282E+03  0.70278182084E+03  0.65864270000E+03 0.  1.
    8880022    1    1    2    0    0 -0.15049825956E+03  0.11709656318E+03  0.11131058914E+04  0.11396305145E+04  0.15294330000E+03 0.  0.
<mgrwt>
<rscale>  0 0.52983553E+03</rscale>
<asrwt>0</asrwt>
<pdfrwt beam="1">  1        2 0.23919739E+00 0.68569056E+03</pdfrwt>
<pdfrwt beam="2">  1       -2 0.44250658E-01 0.68569056E+03</pdfrwt>
<totfact> 0.58915664E+01</totfact>
</mgrwt>
</event>
<event>
 4    1  0.8645356E-007  0.6950890E+03  0.7818608E-02  0.1001822E+00
          2   -1    0    0  501    0  0.00000000000E+00  0.00000000000E+00  0.16379028195E+04  0.16379028195E+04  0.25500000000E-02 0. -1.
         -2   -1    0    0    0  501 -0.00000000000E+00 -0.00000000000E+00 -0.22968410961E+03  0.22968410963E+03  0.25500000000E-02 0.  1.
    8880023    1    1    2    0    0 -0.28837866759E+02  0.22024283236E+03  0.35520835778E+03  0.78059061707E+03  0.65864270000E+03 0.  0.
    8880022    1    1    2    0    0  0.28837866759E+02 -0.22024283236E+03  0.10530103522E+04  0.10869963121E+04  0.15294330000E+03 0.  0.
<mgrwt>
<rscale>  0 0.54858591E+03</rscale>
<asrwt>0</asrwt>
<pdfrwt beam="1">  1        2 0.25198505E+00 0.69508901E+03</pdfrwt>
<pdfrwt beam="2">  1       -2 0.35336017E-01 0.69508901E+03</pdfrwt>
<totfact> 0.82039772E+01</totfact>
</mgrwt>
</event>
<event>
 4    1  0.8645356E-007  0.6786122E+03  0.7818608E-02  0.1010120E+00
          2   -1    0    0  501    0  0.00000000000E+00  0.00000000000E+00  0.25144736640E+04  0.25144736640E+04  0.25500000000E-02 0. -1.
         -2   -1    0    0    0  501 -0.00000000000E+00 -0.00000000000E+00 -0.14032197909E+03  0.14032197912E+03  0.25500000000E-02 0.  1.
    8880023    1    1    2    0    0  0.15119867593E+03  0.61994652200E+02  0.23298034651E+04  0.24266229144E+04  0.65864270000E+03 0. -1.
    8880022    1    1    2    0    0 -0.15119867593E+03 -0.61994652200E+02  0.44348219792E+02  0.22817272869E+03  0.15294330000E+03 0.  0.
<mgrwt>
<rscale>  0 0.51427058E+03</rscale>
<asrwt>0</asrwt>
<pdfrwt beam="1">  1        2 0.38684212E+00 0.67861225E+03</pdfrwt>
<pdfrwt beam="2">  1       -2 0.21587996E-01 0.67861225E+03</pdfrwt>
<totfact> 0.66851176E+01</totfact>
</mgrwt>
</event>
<event>
 4    1  0.8645356E-007  0.9898276E+03  0.7818608E-02  0.9394989E-01
          2   -1    0    0  501    0  0.00000000000E+00  0.00000000000E+00  0.29404318341E+04  0.29404318341E+04  0.25500000000E-02 0. -1.
         -2   -1    0    0    0  501 -0.00000000000E+00 -0.00000000000E+00 -0.37275955313E+03  0.37275955314E+03  0.25500000000E-02 0.  1.
    8880023    1    1    2    0    0 -0.21706445673E+03 -0.70628010367E+03  0.49348476245E+03  0.11060225948E+04  0.65864270000E+03 0.  0.
    8880022    1    1    2    0    0  0.21706445673E+03  0.70628010367E+03  0.20741875185E+04  0.22071687924E+04  0.15294330000E+03 0.  0.
<mgrwt>
<rscale>  0 0.92489231E+03</rscale>
<asrwt>0</asrwt>
<pdfrwt beam="1">  1        2 0.45237413E+00 0.98982765E+03</pdfrwt>
<pdfrwt beam="2">  1       -2 0.57347623E-01 0.98982765E+03</pdfrwt>
<totfact> 0.55271548E+00</totfact>
</mgrwt>
</event>
<event>
 4    1  0.8645356E-007  0.1350863E+04  0.7818608E-02  0.9022836E-01
          2   -1    0    0  501    0  0.00000000000E+00  0.00000000000E+00  0.22532991293E+04  0.22532991293E+04  0.25500000000E-02 0. -1.
         -2   -1    0    0    0  501 -0.00000000000E+00 -0.00000000000E+00 -0.86853087450E+03  0.86853087451E+03  0.25500000000E-02 0.  1.
    8880023    1    1    2    0    0  0.65511869070E+03  0.98073443543E+03  0.75390134840E+02  0.13529650441E+04  0.65864270000E+03 0.  0.
    8880022    1    1    2    0    0 -0.65511869070E+03 -0.98073443543E+03  0.13093781199E+04  0.17688649597E+04  0.15294330000E+03 0.  0.
<mgrwt>
<rscale>  0 0.13085203E+04</rscale>
<asrwt>0</asrwt>
<pdfrwt beam="1">  1        2 0.34666139E+00 0.13508630E+04</pdfrwt>
<pdfrwt beam="2">  1       -2 0.13362014E+00 0.13508630E+04</pdfrwt>
<totfact> 0.18748338E+00</totfact>
</mgrwt>
</event>
<event>
 4    1  0.8645356E-007  0.7218274E+03  0.7818608E-02  0.9916450E-01
          2   -1    0    0  501    0  0.00000000000E+00  0.00000000000E+00  0.34393401095E+04  0.34393401095E+04  0.25500000000E-02 0. -1.
         -2   -1    0    0    0  501 -0.00000000000E+00 -0.00000000000E+00 -0.20211099633E+03  0.20211099635E+03  0.25500000000E-02 0.  1.
    8880023    1    1    2    0    0 -0.19162882999E+03 -0.22472869395E+03  0.48599596493E+03  0.87018784097E+03  0.65864270000E+03 0.  0.
    8880022    1    1    2    0    0  0.19162882999E+03  0.22472869395E+03  0.27512331482E+04  0.27712632649E+04  0.15294330000E+03 0.  0.
<mgrwt>
<rscale>  0 0.59470609E+03</rscale>
<asrwt>0</asrwt>
<pdfrwt beam="1">  1        2 0.52912926E+00 0.72182740E+03</pdfrwt>
<pdfrwt beam="2">  1       -2 0.31093998E-01 0.72182740E+03</pdfrwt>
<totfact> 0.93095653E+00</totfact>
</mgrwt>
</event>
<event>
 4    1  0.8645356E-007  0.7401018E+03  0.7818608E-02  0.9859651E-01
         -2   -1    0    0    0  501 -0.00000000000E+00  0.00000000000E+00  0.36604634526E+03  0.36604634527E+03  0.25500000000E-02 0.  1.
          2   -1    0    0  501    0  0.00000000000E+00 -0.00000000000E+00 -0.90369723065E+03  0.90369723065E+03  0.25500000000E-02 0. -1.
    8880023    1    1    2    0    0 -0.25846112356E+03 -0.21711343864E+03 -0.19579304282E+03  0.76556222445E+03  0.65864270000E+03 0.  1.
    8880022    1    1    2    0    0  0.25846112356E+03  0.21711343864E+03 -0.34185784256E+03  0.50418135147E+03  0.15294330000E+03 0.  0.
<mgrwt>
<rscale>  0 0.62257269E+03</rscale>
<asrwt>0</asrwt>
<pdfrwt beam="1">  1        2 0.13903034E+00 0.74010175E+03</pdfrwt>
<pdfrwt beam="2">  1       -2 0.56314823E-01 0.74010175E+03</pdfrwt>
<totfact> 0.87490255E+01</totfact>
</mgrwt>
</event>
<event>
 4    1  0.8645356E-007  0.7246388E+03  0.7818608E-02  0.9907191E-01
         -2   -1    0    0    0  501 -0.00000000000E+00  0.00000000000E+00  0.38726428230E+03  0.38726428231E+03  0.25500000000E-02 0.  1.
          2   -1    0    0  501    0  0.00000000000E+00 -0.00000000000E+00 -0.22869130131E+04  0.22869130131E+04  0.25500000000E-02 0. -1.
    8880023    1    1    2    0    0 -0.25210497292E+03 -0.16653624322E+03  0.19972179259E+02  0.72491401689E+03  0.65864270000E+03 0.  1.
    8880022    1    1    2    0    0  0.25210497292E+03  0.16653624322E+03 -0.19196209100E+04  0.19492632785E+04  0.15294330000E+03 0.  0.
<mgrwt>
<rscale>  0 0.59914030E+03</rscale>
<asrwt>0</asrwt>
<pdfrwt beam="1">  1        2 0.35183276E+00 0.72463884E+03</pdfrwt>
<pdfrwt beam="2">  1       -2 0.59579122E-01 0.72463884E+03</pdfrwt>
<totfact> 0.12685048E+01</totfact>
</mgrwt>
</event>
<event>
 4    1  0.8645356E-007  0.9233724E+03  0.7818608E-02  0.9489507E-01
          2   -1    0    0  501    0  0.00000000000E+00  0.00000000000E+00  0.15028770733E+04  0.15028770733E+04  0.25500000000E-02 0. -1.
         -2   -1    0    0    0  501 -0.00000000000E+00 -0.00000000000E+00 -0.53402562186E+03  0.53402562186E+03  0.25500000000E-02 0.  1.
    8880023    1    1    2    0    0  0.81849458512E+02 -0.64195564537E+03  0.10127156023E+04  0.13704778298E+04  0.65864270000E+03 0.  0.
    8880022    1    1    2    0    0 -0.81849458512E+02  0.64195564537E+03 -0.43864150854E+02  0.66642486540E+03  0.15294330000E+03 0.  0.
<mgrwt>
<rscale>  0 0.85061839E+03</rscale>
<asrwt>0</asrwt>
<pdfrwt beam="1">  1        2 0.23121185E+00 0.92337240E+03</pdfrwt>
<pdfrwt beam="2">  1       -2 0.82157789E-01 0.92337240E+03</pdfrwt>
<totfact> 0.16534289E+01</totfact>
</mgrwt>
</event>
<event>
 4    1  0.8645356E-007  0.1125336E+04  0.7818608E-02  0.9233358E-01
         -2   -1    0    0    0  501 -0.00000000000E+00  0.00000000000E+00  0.91419027146E+03  0.91419027146E+03  0.25500000000E-02 0.  1.
          2   -1    0    0  501    0  0.00000000000E+00 -0.00000000000E+00 -0.12420786669E+04  0.12420786669E+04  0.25500000000E-02 0. -1.
    8880023    1    1    2    0    0 -0.80998981734E+03 -0.42010533542E+03  0.11377110990E+03  0.11310729723E+04  0.65864270000E+03 0.  1.
    8880022    1    1    2    0    0  0.80998981734E+03  0.42010533542E+03 -0.44165950531E+03  0.10251959660E+04  0.15294330000E+03 0. -1.
<mgrwt>
<rscale>  0 0.10715655E+04</rscale>
<asrwt>0</asrwt>
<pdfrwt beam="1">  1        2 0.19108902E+00 0.11253365E+04</pdfrwt>
<pdfrwt beam="2">  1       -2 0.14064466E+00 0.11253365E+04</pdfrwt>
<totfact> 0.62180313E+00</totfact>
</mgrwt>
</event>
<event>
 4    1  0.8645356E-007  0.7276976E+03  0.7818608E-02  0.9897352E-01
         -2   -1    0    0    0  501 -0.00000000000E+00  0.00000000000E+00  0.21636127771E+03  0.21636127773E+03  0.25500000000E-02 0.  1.
          2   -1    0    0  501    0  0.00000000000E+00 -0.00000000000E+00 -0.22466261612E+04  0.22466261612E+04  0.25500000000E-02 0. -1.
    8880023    1    1    2    0    0 -0.28035428517E+03 -0.13090102624E+03 -0.47295378358E+03  0.86788771828E+03  0.65864270000E+03 0.  1.
    8880022    1    1    2    0    0  0.28035428517E+03  0.13090102624E+03 -0.15573110999E+04  0.15950997207E+04  0.15294330000E+03 0.  0.
<mgrwt>
<rscale>  0 0.60389814E+03</rscale>
<asrwt>0</asrwt>
<pdfrwt beam="1">  1        2 0.34563478E+00 0.72769761E+03</pdfrwt>
<pdfrwt beam="2">  1       -2 0.33286352E-01 0.72769761E+03</pdfrwt>
<totfact> 0.42560998E+01</totfact>
</mgrwt>
</event>
<event>
 4    1  0.8645356E-007  0.9128558E+03  0.7818608E-02  0.9505701E-01
          2   -1    0    0  501    0  0.00000000000E+00  0.00000000000E+00  0.16065849011E+04  0.16065849011E+04  0.25500000000E-02 0. -1.
         -2   -1    0    0    0  501 -0.00000000000E+00 -0.00000000000E+00 -0.90019779933E+03  0.90019779933E+03  0.25500000000E-02 0.  1.
    8880023    1    1    2    0    0  0.40961600926E+03  0.48136285090E+03 -0.56865140063E+03  0.10754859790E+04  0.65864270000E+03 0.  0.
    8880022    1    1    2    0    0 -0.40961600926E+03 -0.48136285090E+03  0.12750385024E+04  0.14312967215E+04  0.15294330000E+03 0. -1.
<mgrwt>
<rscale>  0 0.83864794E+03</rscale>
<asrwt>0</asrwt>
<pdfrwt beam="1">  1        2 0.24716691E+00 0.91285578E+03</pdfrwt>
<pdfrwt beam="2">  1       -2 0.13849197E+00 0.91285578E+03</pdfrwt>
<totfact> 0.41031746E+00</totfact>
</mgrwt>
</event>
<event>
 4    1  0.8645356E-007  0.8174688E+03  0.7818608E-02  0.9674225E-01
         -2   -1    0    0    0  501 -0.00000000000E+00  0.00000000000E+00  0.37800090640E+03  0.37800090641E+03  0.25500000000E-02 0.  1.
          2   -1    0    0  501    0  0.00000000000E+00 -0.00000000000E+00 -0.12742598886E+04  0.12742598886E+04  0.25500000000E-02 0. -1.
    8880023    1    1    2    0    0 -0.47521054809E+03  0.92843551509E+02 -0.30408955905E+03  0.87219588182E+03  0.65864270000E+03 0.  1.
    8880022    1    1    2    0    0  0.47521054809E+03 -0.92843551509E+02 -0.59216942315E+03  0.78006491320E+03  0.15294330000E+03 0.  0.
<mgrwt>
<rscale>  0 0.72572396E+03</rscale>
<asrwt>0</asrwt>
<pdfrwt beam="1">  1        2 0.19603998E+00 0.81746877E+03</pdfrwt>
<pdfrwt beam="2">  1       -2 0.58153986E-01 0.81746877E+03</pdfrwt>
<totfact> 0.47933839E+01</totfact>
</mgrwt>
</event>
<event>
 4    1  0.8645356E-007  0.1553986E+04  0.7818608E-02  0.8872426E-01
          2   -1    0    0  501    0  0.00000000000E+00  0.00000000000E+00  0.98812591515E+03  0.98812591516E+03  0.25500000000E-02 0. -1.
         -2   -1    0    0    0  501 -0.00000000000E+00 -0.00000000000E+00 -0.25196290676E+04  0.25196290676E+04  0.25500000000E-02 0.  1.
    8880023    1    1    2    0    0 -0.13178803188E+04 -0.49422119750E+03 -0.20466476780E+03  0.15674058186E+04  0.65864270000E+03 0.  0.
    8880022    1    1    2    0    0  0.13178803188E+04  0.49422119750E+03 -0.13268383846E+04  0.19403491641E+04  0.15294330000E+03 0.  0.
<mgrwt>
<rscale>  0 0.15182207E+04</rscale>
<asrwt>0</asrwt>
<pdfrwt beam="1">  1        2 0.15201937E+00 0.15539863E+04</pdfrwt>
<pdfrwt beam="2">  1       -2 0.38763524E+00 0.15539863E+04</pdfrwt>
<totfact> 0.21638778E-01</totfact>
</mgrwt>
</event>
<event>
 4    1  0.8645356E-007  0.1467983E+04  0.7818608E-02  0.8932582E-01
          2   -1    0    0  501    0  0.00000000000E+00  0.00000000000E+00  0.23371576942E+04  0.23371576942E+04  0.25500000000E-02 0. -1.
         -2   -1    0    0    0  501 -0.00000000000E+00 -0.00000000000E+00 -0.10999123847E+04  0.10999123847E+04  0.25500000000E-02 0.  1.
    8880023    1    1    2    0    0 -0.22787636550E+03 -0.12919890236E+04 -0.20406017183E+03  0.14820978493E+04  0.65864270000E+03 0.  0.
    8880022    1    1    2    0    0  0.22787636550E+03  0.12919890236E+04  0.14413054814E+04  0.19549722296E+04  0.15294330000E+03 0.  0.
<mgrwt>
<rscale>  0 0.14297210E+04</rscale>
<asrwt>0</asrwt>
<pdfrwt beam="1">  1        2 0.35956272E+00 0.14679828E+04</pdfrwt>
<pdfrwt beam="2">  1       -2 0.16921729E+00 0.14679828E+04</pdfrwt>
<totfact> 0.88115106E-01</totfact>
</mgrwt>
</event>
<event>
 4    1  0.8645356E-007  0.7467958E+03  0.7818608E-02  0.9840576E-01
         -2   -1    0    0    0  501 -0.00000000000E+00  0.00000000000E+00  0.11694006300E+04  0.11694006300E+04  0.25500000000E-02 0.  1.
          2   -1    0    0  501    0  0.00000000000E+00 -0.00000000000E+00 -0.50074962704E+03  0.50074962704E+03  0.25500000000E-02 0. -1.
    8880023    1    1    2    0    0 -0.34864619392E+03 -0.48369447462E+02  0.93969879478E+03  0.12003073786E+04  0.65864270000E+03 0.  1.
    8880022    1    1    2    0    0  0.34864619392E+03  0.48369447462E+02 -0.27104779179E+03  0.46984287845E+03  0.15294330000E+03 0.  0.
<mgrwt>
<rscale>  0 0.63229737E+03</rscale>
<asrwt>0</asrwt>
<pdfrwt beam="1">  1        2 0.77038405E-01 0.74679581E+03</pdfrwt>
<pdfrwt beam="2">  1       -2 0.17990779E+00 0.74679581E+03</pdfrwt>
<totfact> 0.11351710E+01</totfact>
</mgrwt>
</event>
<event>
 4    1  0.8645356E-007  0.6680160E+03  0.7818608E-02  0.1017127E+00
          2   -1    0    0  501    0  0.00000000000E+00  0.00000000000E+00  0.81196157248E+03  0.81196157249E+03  0.25500000000E-02 0. -1.
         -2   -1    0    0    0  501 -0.00000000000E+00 -0.00000000000E+00 -0.34584300017E+03  0.34584300017E+03  0.25500000000E-02 0.  1.
    8880023    1    1    2    0    0 -0.10343882119E+03  0.41660509382E+02  0.14553810285E+02  0.66817453366E+03  0.65864270000E+03 0.  1.
    8880022    1    1    2    0    0  0.10343882119E+03 -0.41660509382E+02  0.45156476203E+03  0.48963003900E+03  0.15294330000E+03 0.  0.
<mgrwt>
<rscale>  0 0.48737833E+03</rscale>
<asrwt>0</asrwt>
<pdfrwt beam="1">  1        2 0.12491716E+00 0.66801601E+03</pdfrwt>
<pdfrwt beam="2">  1       -2 0.53206616E-01 0.66801601E+03</pdfrwt>
<totfact> 0.11444040E+02</totfact>
</mgrwt>
</event>
<event>
 4    1  0.8645356E-007  0.1442068E+04  0.7818608E-02  0.8951665E-01
          2   -1    0    0  501    0  0.00000000000E+00  0.00000000000E+00  0.26955312631E+04  0.26955312631E+04  0.25500000000E-02 0. -1.
         -2   -1    0    0    0  501 -0.00000000000E+00 -0.00000000000E+00 -0.10719810831E+04  0.10719810831E+04  0.25500000000E-02 0.  1.
    8880023    1    1    2    0    0 -0.63566720886E+03 -0.11143060005E+04 -0.27797225946E+03  0.14686148053E+04  0.65864270000E+03 0.  0.
    8880022    1    1    2    0    0  0.63566720886E+03  0.11143060005E+04  0.19015224394E+04  0.22988975409E+04  0.15294330000E+03 0.  0.
<mgrwt>
<rscale>  0 0.14029786E+04</rscale>
<asrwt>0</asrwt>
<pdfrwt beam="1">  1        2 0.41469712E+00 0.14420683E+04</pdfrwt>
<pdfrwt beam="2">  1       -2 0.16492017E+00 0.14420683E+04</pdfrwt>
<totfact> 0.58840602E-01</totfact>
</mgrwt>
</event>
<event>
 4    1  0.8645356E-007  0.7733852E+03  0.7818608E-02  0.9771611E-01
          2   -1    0    0  501    0  0.00000000000E+00  0.00000000000E+00  0.27921737334E+04  0.27921737334E+04  0.25500000000E-02 0. -1.
         -2   -1    0    0    0  501 -0.00000000000E+00 -0.00000000000E+00 -0.26372445905E+03  0.26372445906E+03  0.25500000000E-02 0.  1.
    8880023    1    1    2    0    0  0.40535723349E+03  0.16733860681E+00  0.37538050868E+03  0.85967159270E+03  0.65864270000E+03 0.  0.
    8880022    1    1    2    0    0 -0.40535723349E+03 -0.16733860681E+00  0.21530687657E+04  0.21962265998E+04  0.15294330000E+03 0.  0.
<mgrwt>
<rscale>  0 0.66908566E+03</rscale>
<asrwt>0</asrwt>
<pdfrwt beam="1">  1        2 0.42956521E+00 0.77338523E+03</pdfrwt>
<pdfrwt beam="2">  1       -2 0.40572992E-01 0.77338523E+03</pdfrwt>
<totfact> 0.14134459E+01</totfact>
</mgrwt>
</event>
<event>
 4    1  0.8645356E-007  0.8473060E+03  0.7818608E-02  0.9616555E-01
         -2   -1    0    0    0  501 -0.00000000000E+00  0.00000000000E+00  0.68577205307E+03  0.68577205308E+03  0.25500000000E-02 0.  1.
          2   -1    0    0  501    0  0.00000000000E+00 -0.00000000000E+00 -0.80680385927E+03  0.80680385928E+03  0.25500000000E-02 0. -1.
    8880023    1    1    2    0    0 -0.33373446139E+03 -0.41561827691E+03  0.17318509577E+03  0.86482398584E+03  0.65864270000E+03 0.  1.
    8880022    1    1    2    0    0  0.33373446139E+03  0.41561827691E+03 -0.29421690197E+03  0.62775192651E+03  0.15294330000E+03 0. -1.
<mgrwt>
<rscale>  0 0.76210080E+03</rscale>
<asrwt>0</asrwt>
<pdfrwt beam="1">  1        2 0.12412367E+00 0.84730599E+03</pdfrwt>
<pdfrwt beam="2">  1       -2 0.10550339E+00 0.84730599E+03</pdfrwt>
<totfact> 0.24893711E+01</totfact>
</mgrwt>
</event>
<event>
 4    1  0.8645356E-007  0.7277482E+03  0.7818608E-02  0.9897191E-01
         -2   -1    0    0    0  501 -0.00000000000E+00  0.00000000000E+00  0.17159567804E+03  0.17159567806E+03  0.25500000000E-02 0.  1.
          2   -1    0    0  501    0  0.00000000000E+00 -0.00000000000E+00 -0.18726744869E+04  0.18726744869E+04  0.25500000000E-02 0. -1.
    8880023    1    1    2    0    0 -0.46704623461E+02 -0.30598350159E+03 -0.81139197203E+03  0.10899423671E+04  0.65864270000E+03 0.  1.
    8880022    1    1    2    0    0  0.46704623461E+02  0.30598350159E+03 -0.88968683688E+03  0.95432779789E+03  0.15294330000E+03 0.  0.
<mgrwt>
<rscale>  0 0.60397627E+03</rscale>
<asrwt>0</asrwt>
<pdfrwt beam="1">  1        2 0.28810375E+00 0.72774819E+03</pdfrwt>
<pdfrwt beam="2">  1       -2 0.26399336E-01 0.72774819E+03</pdfrwt>
<totfact> 0.10472780E+02</totfact>
</mgrwt>
</event>
<event>
 4    1  0.8645356E-007  0.9571298E+03  0.7818608E-02  0.9439929E-01
         -2   -1    0    0    0  501 -0.00000000000E+00  0.00000000000E+00  0.73961675570E+03  0.73961675570E+03  0.25500000000E-02 0.  1.
          2   -1    0    0  501    0  0.00000000000E+00 -0.00000000000E+00 -0.20358891132E+04  0.20358891132E+04  0.25500000000E-02 0. -1.
    8880023    1    1    2    0    0  0.59329577217E+03 -0.36095333961E+03  0.32041319678E+03  0.10093374112E+04  0.65864270000E+03 0.  0.
    8880022    1    1    2    0    0 -0.59329577217E+03  0.36095333961E+03 -0.16166855543E+04  0.17661684578E+04  0.15294330000E+03 0.  0.
<mgrwt>
<rscale>  0 0.88861260E+03</rscale>
<asrwt>0</asrwt>
<pdfrwt beam="1">  1        2 0.31321371E+00 0.95712977E+03</pdfrwt>
<pdfrwt beam="2">  1       -2 0.11378719E+00 0.95712977E+03</pdfrwt>
<totfact> 0.38823261E+00</totfact>
</mgrwt>
</event>
<event>
 4    1  0.8645356E-007  0.7786115E+03  0.7818608E-02  0.9759109E-01
         -2   -1    0    0    0  501 -0.00000000000E+00  0.00000000000E+00  0.10303462667E+04  0.10303462667E+04  0.25500000000E-02 0.  1.
          2   -1    0    0  501    0  0.00000000000E+00 -0.00000000000E+00 -0.66849716744E+03  0.66849716744E+03  0.25500000000E-02 0. -1.
    8880023    1    1    2    0    0 -0.40992974227E+03  0.66205793339E+02  0.77129699778E+03  0.10959629856E+04  0.65864270000E+03 0.  1.
    8880022    1    1    2    0    0  0.40992974227E+03 -0.66205793339E+02 -0.40944789852E+03  0.60288044858E+03  0.15294330000E+03 0.  0.
<mgrwt>
<rscale>  0 0.67603933E+03</rscale>
<asrwt>0</asrwt>
<pdfrwt beam="1">  1        2 0.10284572E+00 0.77861146E+03</pdfrwt>
<pdfrwt beam="2">  1       -2 0.15851481E+00 0.77861146E+03</pdfrwt>
<totfact> 0.11359818E+01</totfact>
</mgrwt>
</event>
<event>
 4    1  0.8645356E-007  0.7509057E+03  0.7818608E-02  0.9829247E-01
          2   -1    0    0  501    0  0.00000000000E+00  0.00000000000E+00  0.41741761186E+03  0.41741761187E+03  0.25500000000E-02 0. -1.
         -2   -1    0    0    0  501 -0.00000000000E+00 -0.00000000000E+00 -0.19771810862E+04  0.19771810862E+04  0.25500000000E-02 0.  1.
    8880023    1    1    2    0    0  0.35914144338E+03 -0.32658601660E+02 -0.17893755955E+04  0.19405474456E+04  0.65864270000E+03 0.  1.
    8880022    1    1    2    0    0 -0.35914144338E+03  0.32658601660E+02  0.22961212120E+03  0.45405125243E+03  0.15294330000E+03 0.  0.
<mgrwt>
<rscale>  0 0.63816306E+03</rscale>
<asrwt>0</asrwt>
<pdfrwt beam="1">  1        2 0.64218095E-01 0.75090570E+03</pdfrwt>
<pdfrwt beam="2">  1       -2 0.30418170E+00 0.75090570E+03</pdfrwt>
<totfact> 0.23651161E+00</totfact>
</mgrwt>
</event>
<event>
 4    1  0.8645356E-007  0.1392218E+04  0.7818608E-02  0.8989753E-01
          2   -1    0    0  501    0  0.00000000000E+00  0.00000000000E+00  0.27732151412E+04  0.27732151412E+04  0.25500000000E-02 0. -1.
         -2   -1    0    0    0  501 -0.00000000000E+00 -0.00000000000E+00 -0.63554000753E+03  0.63554000754E+03  0.25500000000E-02 0.  1.
    8880023    1    1    2    0    0 -0.12222832648E+04 -0.10239269656E+03  0.88950958016E+03  0.16521192884E+04  0.65864270000E+03 0.  0.
    8880022    1    1    2    0    0  0.12222832648E+04  0.10239269656E+03  0.12481655535E+04  0.17566358603E+04  0.15294330000E+03 0.  1.
<mgrwt>
<rscale>  0 0.13514208E+04</rscale>
<asrwt>0</asrwt>
<pdfrwt beam="1">  1        2 0.42664848E+00 0.13922180E+04</pdfrwt>
<pdfrwt beam="2">  1       -2 0.97775387E-01 0.13922180E+04</pdfrwt>
<totfact> 0.20196117E+00</totfact>
</mgrwt>
</event>
<event>
 4    1  0.8645356E-007  0.9665630E+03  0.7818608E-02  0.9426674E-01
          2   -1    0    0  501    0  0.00000000000E+00  0.00000000000E+00  0.76922999472E+03  0.76922999473E+03  0.25500000000E-02 0. -1.
         -2   -1    0    0    0  501 -0.00000000000E+00 -0.00000000000E+00 -0.19483558127E+04  0.19483558127E+04  0.25500000000E-02 0.  1.
    8880023    1    1    2    0    0 -0.70739639383E+03  0.49208107736E+01 -0.16081171297E+04  0.18762421969E+04  0.65864270000E+03 0.  0.
    8880022    1    1    2    0    0  0.70739639383E+03 -0.49208107736E+01  0.42899131173E+03  0.84134361050E+03  0.15294330000E+03 0.  0.
<mgrwt>
<rscale>  0 0.89912685E+03</rscale>
<asrwt>0</asrwt>
<pdfrwt beam="1">  1        2 0.11834308E+00 0.96656302E+03</pdfrwt>
<pdfrwt beam="2">  1       -2 0.29974705E+00 0.96656302E+03</pdfrwt>
<totfact> 0.11679134E+00</totfact>
</mgrwt>
</event>
<event>
 4    1  0.8645356E-007  0.8047139E+03  0.7818608E-02  0.9700695E-01
          2   -1    0    0  501    0  0.00000000000E+00  0.00000000000E+00  0.17063750150E+04  0.17063750150E+04  0.25500000000E-02 0. -1.
         -2   -1    0    0    0  501 -0.00000000000E+00 -0.00000000000E+00 -0.35337648524E+03  0.35337648525E+03  0.25500000000E-02 0.  1.
    8880023    1    1    2    0    0 -0.45009385649E+03  0.10568733195E+03  0.23190991259E+03  0.83746445035E+03  0.65864270000E+03 0.  0.
    8880022    1    1    2    0    0  0.45009385649E+03 -0.10568733195E+03  0.11210886172E+04  0.12222870499E+04  0.15294330000E+03 0.  0.
<mgrwt>
<rscale>  0 0.70975441E+03</rscale>
<asrwt>0</asrwt>
<pdfrwt beam="1">  1        2 0.26251923E+00 0.80471392E+03</pdfrwt>
<pdfrwt beam="2">  1       -2 0.54365613E-01 0.80471392E+03</pdfrwt>
<totfact> 0.31606163E+01</totfact>
</mgrwt>
</event>
<event>
 4    1  0.8645356E-007  0.7273099E+03  0.7818608E-02  0.9898586E-01
          2   -1    0    0  501    0  0.00000000000E+00  0.00000000000E+00  0.11013182518E+04  0.11013182518E+04  0.25500000000E-02 0. -1.
         -2   -1    0    0    0  501 -0.00000000000E+00 -0.00000000000E+00 -0.28706123541E+03  0.28706123543E+03  0.25500000000E-02 0.  1.
    8880023    1    1    2    0    0  0.48944037104E+02  0.30458829243E+03  0.34143069833E+03  0.80346417137E+03  0.65864270000E+03 0.  1.
    8880022    1    1    2    0    0 -0.48944037104E+02 -0.30458829243E+03  0.47282631801E+03  0.58491531581E+03  0.15294330000E+03 0. -1.
<mgrwt>
<rscale>  0 0.60329881E+03</rscale>
<asrwt>0</asrwt>
<pdfrwt beam="1">  1        2 0.16943358E+00 0.72730994E+03</pdfrwt>
<pdfrwt beam="2">  1       -2 0.44163267E-01 0.72730994E+03</pdfrwt>
<totfact> 0.10739593E+02</totfact>
</mgrwt>
</event>
<event>
 4    1  0.8645356E-007  0.8252362E+03  0.7818608E-02  0.9658673E-01
          2   -1    0    0  501    0  0.00000000000E+00  0.00000000000E+00  0.68933165286E+03  0.68933165287E+03  0.25500000000E-02 0. -1.
         -2   -1    0    0    0  501 -0.00000000000E+00 -0.00000000000E+00 -0.11156302963E+04  0.11156302963E+04  0.25500000000E-02 0.  1.
    8880023    1    1    2    0    0  0.95531255124E+02  0.48793271715E+03 -0.81172381237E+03  0.11575449499E+04  0.65864270000E+03 0.  1.
    8880022    1    1    2    0    0 -0.95531255124E+02 -0.48793271715E+03  0.38542516890E+03  0.64741699932E+03  0.15294330000E+03 0.  0.
<mgrwt>
<rscale>  0 0.73531582E+03</rscale>
<asrwt>0</asrwt>
<pdfrwt beam="1">  1        2 0.10605102E+00 0.82523619E+03</pdfrwt>
<pdfrwt beam="2">  1       -2 0.17163543E+00 0.82523619E+03</pdfrwt>
<totfact> 0.87461267E+00</totfact>
</mgrwt>
</event>
<event>
 4    1  0.8645356E-007  0.7529852E+03  0.7818608E-02  0.9823619E-01
         -2   -1    0    0    0  501 -0.00000000000E+00  0.00000000000E+00  0.61110691377E+03  0.61110691378E+03  0.25500000000E-02 0.  1.
          2   -1    0    0  501    0  0.00000000000E+00 -0.00000000000E+00 -0.76413904444E+03  0.76413904444E+03  0.25500000000E-02 0. -1.
    8880023    1    1    2    0    0  0.24412433652E+03 -0.27125610696E+03  0.26630937321E+03  0.79869108908E+03  0.65864270000E+03 0.  1.
    8880022    1    1    2    0    0 -0.24412433652E+03  0.27125610696E+03 -0.41934150387E+03  0.57655486914E+03  0.15294330000E+03 0. -1.
<mgrwt>
<rscale>  0 0.64110299E+03</rscale>
<asrwt>0</asrwt>
<pdfrwt beam="1">  1        2 0.11755985E+00 0.75298524E+03</pdfrwt>
<pdfrwt beam="2">  1       -2 0.94016449E-01 0.75298524E+03</pdfrwt>
<totfact> 0.35419362E+01</totfact>
</mgrwt>
</event>
<event>
 4    1  0.8645356E-007  0.8096667E+03  0.7818608E-02  0.9690272E-01
         -2   -1    0    0    0  501 -0.00000000000E+00  0.00000000000E+00  0.42165109481E+03  0.42165109481E+03  0.25500000000E-02 0.  1.
          2   -1    0    0  501    0  0.00000000000E+00 -0.00000000000E+00 -0.20995422936E+04  0.20995422936E+04  0.25500000000E-02 0. -1.
    8880023    1    1    2    0    0 -0.36799618036E+03 -0.29381762506E+03 -0.40607008413E+02  0.81068435347E+03  0.65864270000E+03 0.  1.
    8880022    1    1    2    0    0  0.36799618036E+03  0.29381762506E+03 -0.16372841904E+04  0.17105090350E+04  0.15294330000E+03 0.  0.
<mgrwt>
<rscale>  0 0.71598983E+03</rscale>
<asrwt>0</asrwt>
<pdfrwt beam="1">  1        2 0.32300650E+00 0.80966672E+03</pdfrwt>
<pdfrwt beam="2">  1       -2 0.64869400E-01 0.80966672E+03</pdfrwt>
<totfact> 0.13258888E+01</totfact>
</mgrwt>
</event>
<event>
 4    1  0.8645356E-007  0.7540720E+03  0.7818608E-02  0.9820703E-01
          2   -1    0    0  501    0  0.00000000000E+00  0.00000000000E+00  0.21198202926E+04  0.21198202926E+04  0.25500000000E-02 0. -1.
         -2   -1    0    0    0  501 -0.00000000000E+00 -0.00000000000E+00 -0.40926543978E+03  0.40926543979E+03  0.25500000000E-02 0.  1.
    8880023    1    1    2    0    0 -0.28255779858E+03  0.23446836728E+03 -0.19072795500E+02  0.75431313298E+03  0.65864270000E+03 0.  1.
    8880022    1    1    2    0    0  0.28255779858E+03 -0.23446836728E+03  0.17296276483E+04  0.17747725994E+04  0.15294330000E+03 0.  0.
<mgrwt>
<rscale>  0 0.64263216E+03</rscale>
<asrwt>0</asrwt>
<pdfrwt beam="1">  1        2 0.32612620E+00 0.75407197E+03</pdfrwt>
<pdfrwt beam="2">  1       -2 0.62963914E-01 0.75407197E+03</pdfrwt>
<totfact> 0.13885060E+01</totfact>
</mgrwt>
</event>
<event>
 4    1  0.8645356E-007  0.7802364E+03  0.7818608E-02  0.9755282E-01
         -2   -1    0    0    0  501 -0.00000000000E+00  0.00000000000E+00  0.59239985397E+03  0.59239985397E+03  0.25500000000E-02 0.  1.
          2   -1    0    0  501    0  0.00000000000E+00 -0.00000000000E+00 -0.99788488337E+03  0.99788488338E+03  0.25500000000E-02 0. -1.
    8880023    1    1    2    0    0 -0.14079607013E+03 -0.39387202953E+03  0.23076602240E+03  0.81364726532E+03  0.65864270000E+03 0.  1.
    8880022    1    1    2    0    0  0.14079607013E+03  0.39387202953E+03 -0.63625105181E+03  0.77663747202E+03  0.15294330000E+03 0.  0.
<mgrwt>
<rscale>  0 0.67818597E+03</rscale>
<asrwt>0</asrwt>
<pdfrwt beam="1">  1        2 0.15352075E+00 0.78023645E+03</pdfrwt>
<pdfrwt beam="2">  1       -2 0.91138439E-01 0.78023645E+03</pdfrwt>
<totfact> 0.26281901E+01</totfact>
</mgrwt>
</event>
<event>
 4    1  0.8645356E-007  0.7359968E+03  0.7818608E-02  0.9871765E-01
          2   -1    0    0  501    0  0.00000000000E+00  0.00000000000E+00  0.69730560709E+03  0.69730560709E+03  0.25500000000E-02 0. -1.
         -2   -1    0    0    0  501 -0.00000000000E+00 -0.00000000000E+00 -0.10974273613E+04  0.10974273613E+04  0.25500000000E-02 0.  1.
    8880023    1    1    2    0    0  0.32771141550E+03  0.22053495297E+02 -0.90927995845E+03  0.11698210879E+04  0.65864270000E+03 0.  0.
    8880022    1    1    2    0    0 -0.32771141550E+03 -0.22053495297E+02  0.50915820423E+03  0.62491188055E+03  0.15294330000E+03 0.  0.
<mgrwt>
<rscale>  0 0.61649391E+03</rscale>
<asrwt>0</asrwt>
<pdfrwt beam="1">  1        2 0.10727779E+00 0.73599683E+03</pdfrwt>
<pdfrwt beam="2">  1       -2 0.16883498E+00 0.73599683E+03</pdfrwt>
<totfact> 0.91105753E+00</totfact>
</mgrwt>
</event>
<event>
 4    1  0.8645356E-007  0.8367700E+03  0.7818608E-02  0.9636301E-01
          2   -1    0    0  501    0  0.00000000000E+00  0.00000000000E+00  0.13401345841E+04  0.13401345841E+04  0.25500000000E-02 0. -1.
         -2   -1    0    0    0  501 -0.00000000000E+00 -0.00000000000E+00 -0.35335070816E+03  0.35335070817E+03  0.25500000000E-02 0.  1.
    8880023    1    1    2    0    0  0.50542361294E+03  0.10450232761E+03  0.56560725328E+03  0.10099977902E+04  0.65864270000E+03 0. -1.
    8880022    1    1    2    0    0 -0.50542361294E+03 -0.10450232761E+03  0.42117662266E+03  0.68348750207E+03  0.15294330000E+03 0.  1.
<mgrwt>
<rscale>  0 0.74939429E+03</rscale>
<asrwt>0</asrwt>
<pdfrwt beam="1">  1        2 0.20617455E+00 0.83676996E+03</pdfrwt>
<pdfrwt beam="2">  1       -2 0.54361647E-01 0.83676996E+03</pdfrwt>
<totfact> 0.50462448E+01</totfact>
</mgrwt>
</event>
<event>
 4    1  0.8645356E-007  0.8061926E+03  0.7818608E-02  0.9697563E-01
          2   -1    0    0  501    0  0.00000000000E+00  0.00000000000E+00  0.33333845345E+04  0.33333845345E+04  0.25500000000E-02 0. -1.
         -2   -1    0    0    0  501 -0.00000000000E+00 -0.00000000000E+00 -0.45303408540E+03  0.45303408541E+03  0.25500000000E-02 0.  1.
    8880023    1    1    2    0    0 -0.35078154307E+02 -0.46357937673E+03 -0.57349405203E+02  0.80822984106E+03  0.65864270000E+03 0.  0.
    8880022    1    1    2    0    0  0.35078154307E+02  0.46357937673E+03  0.29376998543E+04  0.29781887789E+04  0.15294330000E+03 0.  0.
<mgrwt>
<rscale>  0 0.71162081E+03</rscale>
<asrwt>0</asrwt>
<pdfrwt beam="1">  1        2 0.51282841E+00 0.80619261E+03</pdfrwt>
<pdfrwt beam="2">  1       -2 0.69697549E-01 0.80619261E+03</pdfrwt>
<totfact> 0.21196979E+00</totfact>
</mgrwt>
</event>
<event>
 4    1  0.8645356E-007  0.8321661E+03  0.7818608E-02  0.9645133E-01
         -2   -1    0    0    0  501 -0.00000000000E+00  0.00000000000E+00  0.56732715961E+03  0.56732715961E+03  0.25500000000E-02 0.  1.
          2   -1    0    0  501    0  0.00000000000E+00 -0.00000000000E+00 -0.12021478483E+04  0.12021478483E+04  0.25500000000E-02 0. -1.
    8880023    1    1    2    0    0 -0.14528509244E+03 -0.48742424752E+03  0.12595971348E+03  0.84164494345E+03  0.65864270000E+03 0.  0.
    8880022    1    1    2    0    0  0.14528509244E+03  0.48742424752E+03 -0.76078040214E+03  0.92783006442E+03  0.15294330000E+03 0.  0.
<mgrwt>
<rscale>  0 0.74379694E+03</rscale>
<asrwt>0</asrwt>
<pdfrwt beam="1">  1        2 0.18494582E+00 0.83216607E+03</pdfrwt>
<pdfrwt beam="2">  1       -2 0.87281102E-01 0.83216607E+03</pdfrwt>
<totfact> 0.21639217E+01</totfact>
</mgrwt>
</event>
<event>
 4    1  0.8645356E-007  0.1369845E+04  0.7818608E-02  0.9007475E-01
          2   -1    0    0  501    0  0.00000000000E+00  0.00000000000E+00  0.91838603116E+03  0.91838603116E+03  0.25500000000E-02 0. -1.
         -2   -1    0    0    0  501 -0.00000000000E+00 -0.00000000000E+00 -0.30428700432E+04  0.30428700432E+04  0.25500000000E-02 0.  1.
    8880023    1    1    2    0    0  0.26788631009E+03 -0.11708554316E+04 -0.23590573436E+04  0.27279346168E+04  0.65864270000E+03 0.  0.
    8880022    1    1    2    0    0 -0.26788631009E+03  0.11708554316E+04  0.23457333151E+03  0.12333214576E+04  0.15294330000E+03 0.  0.
<mgrwt>
<rscale>  0 0.13282275E+04</rscale>
<asrwt>0</asrwt>
<pdfrwt beam="1">  1        2 0.14129016E+00 0.13698451E+04</pdfrwt>
<pdfrwt beam="2">  1       -2 0.46813385E+00 0.13698451E+04</pdfrwt>
<totfact> 0.72309358E-02</totfact>
</mgrwt>
</event>
<event>
 4    1  0.8645356E-007  0.6685385E+03  0.7818608E-02  0.1016733E+00
         -2   -1    0    0    0  501 -0.00000000000E+00  0.00000000000E+00  0.64883492284E+03  0.64883492284E+03  0.25500000000E-02 0.  1.
          2   -1    0    0  501    0  0.00000000000E+00 -0.00000000000E+00 -0.75645778660E+03  0.75645778661E+03  0.25500000000E-02 0. -1.
    8880023    1    1    2    0    0 -0.92434367539E+00 -0.11459773484E+03  0.45659752067E+03  0.80958322450E+03  0.65864270000E+03 0.  1.
    8880022    1    1    2    0    0  0.92434367539E+00  0.11459773484E+03 -0.56422038443E+03  0.59570948495E+03  0.15294330000E+03 0.  0.
<mgrwt>
<rscale>  0 0.48884233E+03</rscale>
<asrwt>0</asrwt>
<pdfrwt beam="1">  1        2 0.11637812E+00 0.66853848E+03</pdfrwt>
<pdfrwt beam="2">  1       -2 0.99820757E-01 0.66853848E+03</pdfrwt>
<totfact> 0.31419711E+01</totfact>
</mgrwt>
</event>
<event>
 4    1  0.8645356E-007  0.7687216E+03  0.7818608E-02  0.9783030E-01
         -2   -1    0    0    0  501 -0.00000000000E+00  0.00000000000E+00  0.20315418441E+04  0.20315418441E+04  0.25500000000E-02 0.  1.
          2   -1    0    0  501    0  0.00000000000E+00 -0.00000000000E+00 -0.39123659837E+03  0.39123659837E+03  0.25500000000E-02 0. -1.
    8880023    1    1    2    0    0  0.19508988651E+03  0.34505462291E+03  0.18090671758E+04  0.19656187345E+04  0.65864270000E+03 0.  1.
    8880022    1    1    2    0    0 -0.19508988651E+03 -0.34505462291E+03 -0.16876193001E+03  0.45715970803E+03  0.15294330000E+03 0.  0.
<mgrwt>
<rscale>  0 0.66281269E+03</rscale>
<asrwt>0</asrwt>
<pdfrwt beam="1">  1        2 0.60190245E-01 0.76872164E+03</pdfrwt>
<pdfrwt beam="2">  1       -2 0.31254490E+00 0.76872164E+03</pdfrwt>
<totfact> 0.22590444E+00</totfact>
</mgrwt>
</event>
<event>
 4    1  0.8645356E-007  0.1140445E+04  0.7818608E-02  0.9217307E-01
          2   -1    0    0  501    0  0.00000000000E+00  0.00000000000E+00  0.15964569064E+04  0.15964569064E+04  0.25500000000E-02 0. -1.
         -2   -1    0    0    0  501 -0.00000000000E+00 -0.00000000000E+00 -0.15849685947E+04  0.15849685947E+04  0.25500000000E-02 0.  1.
    8880023    1    1    2    0    0 -0.83769491069E+03 -0.40629170679E+03 -0.11936506879E+04  0.16508839709E+04  0.65864270000E+03 0.  1.
    8880022    1    1    2    0    0  0.83769491069E+03  0.40629170679E+03  0.12051389995E+04  0.15305415302E+04  0.15294330000E+03 0.  0.
<mgrwt>
<rscale>  0 0.10876563E+04</rscale>
<asrwt>0</asrwt>
<pdfrwt beam="1">  1        2 0.24560875E+00 0.11404455E+04</pdfrwt>
<pdfrwt beam="2">  1       -2 0.24384132E+00 0.11404455E+04</pdfrwt>
<totfact> 0.76898654E-01</totfact>
</mgrwt>
</event>
<event>
 4    1  0.8645356E-007  0.7789794E+03  0.7818608E-02  0.9758240E-01
         -2   -1    0    0    0  501 -0.00000000000E+00  0.00000000000E+00  0.18030944717E+03  0.18030944718E+03  0.25500000000E-02 0.  1.
          2   -1    0    0  501    0  0.00000000000E+00 -0.00000000000E+00 -0.26773943058E+04  0.26773943058E+04  0.25500000000E-02 0. -1.
    8880023    1    1    2    0    0 -0.14396369809E+03 -0.39022194108E+03 -0.85401529800E+03  0.11559199995E+04  0.65864270000E+03 0.  1.
    8880022    1    1    2    0    0  0.14396369809E+03  0.39022194108E+03 -0.16430695606E+04  0.17017837535E+04  0.15294330000E+03 0.  0.
<mgrwt>
<rscale>  0 0.67652602E+03</rscale>
<asrwt>0</asrwt>
<pdfrwt beam="1">  1        2 0.41190679E+00 0.77897941E+03</pdfrwt>
<pdfrwt beam="2">  1       -2 0.27739917E-01 0.77897941E+03</pdfrwt>
<totfact> 0.33863823E+01</totfact>
</mgrwt>
</event>
<event>
 4    1  0.8645356E-007  0.7322695E+03  0.7818608E-02  0.9883066E-01
         -2   -1    0    0    0  501 -0.00000000000E+00  0.00000000000E+00  0.44615780971E+03  0.44615780972E+03  0.25500000000E-02 0.  1.
          2   -1    0    0  501    0  0.00000000000E+00 -0.00000000000E+00 -0.16734195920E+04  0.16734195920E+04  0.25500000000E-02 0. -1.
    8880023    1    1    2    0    0  0.42021232580E+02 -0.31724221598E+03  0.10603848431E+03  0.73990727393E+03  0.65864270000E+03 0.  1.
    8880022    1    1    2    0    0 -0.42021232580E+02  0.31724221598E+03 -0.13333002666E+04  0.13796701278E+04  0.15294330000E+03 0.  0.
<mgrwt>
<rscale>  0 0.61089042E+03</rscale>
<asrwt>0</asrwt>
<pdfrwt beam="1">  1        2 0.25744916E+00 0.73226950E+03</pdfrwt>
<pdfrwt beam="2">  1       -2 0.68639664E-01 0.73226950E+03</pdfrwt>
<totfact> 0.20269490E+01</totfact>
</mgrwt>
</event>
<event>
 4    1  0.8645356E-007  0.8897774E+03  0.7818608E-02  0.9542645E-01
         -2   -1    0    0    0  501 -0.00000000000E+00  0.00000000000E+00  0.29643915760E+03  0.29643915761E+03  0.25500000000E-02 0.  1.
          2   -1    0    0  501    0  0.00000000000E+00 -0.00000000000E+00 -0.27103651434E+04  0.27103651434E+04  0.25500000000E-02 0. -1.
    8880023    1    1    2    0    0 -0.11009767535E+03 -0.58802391059E+03 -0.55660702608E+03  0.10495309454E+04  0.65864270000E+03 0.  0.
    8880022    1    1    2    0    0  0.11009767535E+03  0.58802391059E+03 -0.18573189597E+04  0.19572733556E+04  0.15294330000E+03 0.  0.
<mgrwt>
<rscale>  0 0.81211453E+03</rscale>
<asrwt>0</asrwt>
<pdfrwt beam="1">  1        2 0.41697924E+00 0.88977740E+03</pdfrwt>
<pdfrwt beam="2">  1       -2 0.45606026E-01 0.88977740E+03</pdfrwt>
<totfact> 0.12309265E+01</totfact>
</mgrwt>
</event>
<event>
 4    1  0.8645356E-007  0.6977385E+03  0.7818608E-02  0.1000671E+00
         -2   -1    0    0    0  501 -0.00000000000E+00  0.00000000000E+00  0.88518350270E+03  0.88518350270E+03  0.25500000000E-02 0.  1.
          2   -1    0    0  501    0  0.00000000000E+00 -0.00000000000E+00 -0.83836240356E+03  0.83836240357E+03  0.25500000000E-02 0. -1.
    8880023    1    1    2    0    0 -0.32376232174E+02 -0.22799264368E+03  0.71585819097E+03  0.99964594823E+03  0.65864270000E+03 0.  1.
    8880022    1    1    2    0    0  0.32376232174E+02  0.22799264368E+03 -0.66903709183E+03  0.72389995804E+03  0.15294330000E+03 0.  0.
<mgrwt>
<rscale>  0 0.55356775E+03</rscale>
<asrwt>0</asrwt>
<pdfrwt beam="1">  1        2 0.12897883E+00 0.69773854E+03</pdfrwt>
<pdfrwt beam="2">  1       -2 0.13618208E+00 0.69773854E+03</pdfrwt>
<totfact> 0.12748265E+01</totfact>
</mgrwt>
</event>
<event>
 4    1  0.8645356E-007  0.7903234E+03  0.7818608E-02  0.9732123E-01
         -2   -1    0    0    0  501 -0.00000000000E+00  0.00000000000E+00  0.35673397780E+03  0.35673397781E+03  0.25500000000E-02 0.  1.
          2   -1    0    0  501    0  0.00000000000E+00 -0.00000000000E+00 -0.18831806205E+04  0.18831806205E+04  0.25500000000E-02 0. -1.
    8880023    1    1    2    0    0  0.41547689430E+03  0.13483243930E+03 -0.15872527565E+04  0.17731278453E+04  0.65864270000E+03 0.  0.
    8880022    1    1    2    0    0 -0.41547689430E+03 -0.13483243930E+03  0.60806113749E+02  0.46678675310E+03  0.15294330000E+03 0.  0.
<mgrwt>
<rscale>  0 0.69135984E+03</rscale>
<asrwt>0</asrwt>
<pdfrwt beam="1">  1        2 0.28972009E+00 0.79032338E+03</pdfrwt>
<pdfrwt beam="2">  1       -2 0.54882152E-01 0.79032338E+03</pdfrwt>
<totfact> 0.24849660E+01</totfact>
</mgrwt>
</event>
<event>
 4    1  0.8645356E-007  0.7218190E+03  0.7818608E-02  0.9916479E-01
         -2   -1    0    0    0  501 -0.00000000000E+00  0.00000000000E+00  0.29257515820E+03  0.29257515821E+03  0.25500000000E-02 0.  1.
          2   -1    0    0  501    0  0.00000000000E+00 -0.00000000000E+00 -0.16553272321E+04  0.16553272321E+04  0.25500000000E-02 0. -1.
    8880023    1    1    2    0    0 -0.16639925148E+03 -0.24397488517E+03 -0.21532609513E+03  0.75325161068E+03  0.65864270000E+03 0.  1.
    8880022    1    1    2    0    0  0.16639925148E+03  0.24397488517E+03 -0.11474259787E+04  0.11946507796E+04  0.15294330000E+03 0. -1.
<mgrwt>
<rscale>  0 0.59469274E+03</rscale>
<asrwt>0</asrwt>
<pdfrwt beam="1">  1        2 0.25466572E+00 0.72181900E+03</pdfrwt>
<pdfrwt beam="2">  1       -2 0.45011564E-01 0.72181900E+03</pdfrwt>
<totfact> 0.49938627E+01</totfact>
</mgrwt>
</event>
<event>
 4    1  0.8645356E-007  0.8826180E+03  0.7818608E-02  0.9554532E-01
         -2   -1    0    0    0  501 -0.00000000000E+00  0.00000000000E+00  0.20221754314E+04  0.20221754314E+04  0.25500000000E-02 0.  1.
          2   -1    0    0  501    0  0.00000000000E+00 -0.00000000000E+00 -0.50346455106E+03  0.50346455107E+03  0.25500000000E-02 0. -1.
    8880023    1    1    2    0    0 -0.50458747769E+03  0.30099123205E+03  0.16797554004E+04  0.18975227682E+04  0.65864270000E+03 0.  0.
    8880022    1    1    2    0    0  0.50458747769E+03 -0.30099123205E+03 -0.16104452005E+03  0.62811721427E+03  0.15294330000E+03 0.  0.
<mgrwt>
<rscale>  0 0.80380070E+03</rscale>
<asrwt>0</asrwt>
<pdfrwt beam="1">  1        2 0.77456084E-01 0.88261795E+03</pdfrwt>
<pdfrwt beam="2">  1       -2 0.31110391E+00 0.88261795E+03</pdfrwt>
<totfact> 0.16993428E+00</totfact>
</mgrwt>
</event>
<event>
 4    1  0.8645356E-007  0.6768133E+03  0.7818608E-02  0.1011187E+00
         -2   -1    0    0    0  501 -0.00000000000E+00  0.00000000000E+00  0.33233383073E+03  0.33233383074E+03  0.25500000000E-02 0.  1.
          2   -1    0    0  501    0  0.00000000000E+00 -0.00000000000E+00 -0.10619485712E+04  0.10619485712E+04  0.25500000000E-02 0. -1.
    8880023    1    1    2    0    0  0.37749130897E+02  0.15113265285E+03 -0.47945295056E+02  0.67850942014E+03  0.65864270000E+03 0.  1.
    8880022    1    1    2    0    0 -0.37749130897E+02 -0.15113265285E+03 -0.68166944538E+03  0.71577298176E+03  0.15294330000E+03 0.  0.
<mgrwt>
<rscale>  0 0.51005657E+03</rscale>
<asrwt>0</asrwt>
<pdfrwt beam="1">  1        2 0.16337670E+00 0.67681333E+03</pdfrwt>
<pdfrwt beam="2">  1       -2 0.51128282E-01 0.67681333E+03</pdfrwt>
<totfact> 0.84910129E+01</totfact>
</mgrwt>
</event>
<event>
 4    1  0.8645356E-007  0.1076975E+04  0.7818608E-02  0.9287135E-01
         -2   -1    0    0    0  501 -0.00000000000E+00  0.00000000000E+00  0.54172807208E+03  0.54172807208E+03  0.25500000000E-02 0.  1.
          2   -1    0    0  501    0  0.00000000000E+00 -0.00000000000E+00 -0.24836971626E+04  0.24836971626E+04  0.25500000000E-02 0. -1.
    8880023    1    1    2    0    0  0.71730768352E+03  0.45992985085E+03 -0.22163129515E+03  0.10995437316E+04  0.65864270000E+03 0.  0.
    8880022    1    1    2    0    0 -0.71730768352E+03 -0.45992985085E+03 -0.17203377954E+04  0.19258815030E+04  0.15294330000E+03 0.  0.
<mgrwt>
<rscale>  0 0.10197594E+04</rscale>
<asrwt>0</asrwt>
<pdfrwt beam="1">  1        2 0.38210725E+00 0.10769754E+04</pdfrwt>
<pdfrwt beam="2">  1       -2 0.83342782E-01 0.10769754E+04</pdfrwt>
<totfact> 0.44819468E+00</totfact>
</mgrwt>
</event>
<event>
 4    1  0.8645356E-007  0.7931488E+03  0.7818608E-02  0.9725810E-01
          2   -1    0    0  501    0  0.00000000000E+00  0.00000000000E+00  0.15163313437E+04  0.15163313437E+04  0.25500000000E-02 0. -1.
         -2   -1    0    0    0  501 -0.00000000000E+00 -0.00000000000E+00 -0.56233160741E+03  0.56233160742E+03  0.25500000000E-02 0.  1.
    8880023    1    1    2    0    0  0.43967156038E+03  0.44314696396E+02 -0.21317697512E+03  0.82129745057E+03  0.65864270000E+03 0.  0.
    8880022    1    1    2    0    0 -0.43967156038E+03 -0.44314696396E+02  0.11671767114E+04  0.12573655006E+04  0.15294330000E+03 0.  0.
<mgrwt>
<rscale>  0 0.69500641E+03</rscale>
<asrwt>0</asrwt>
<pdfrwt beam="1">  1        2 0.23328174E+00 0.79314884E+03</pdfrwt>
<pdfrwt beam="2">  1       -2 0.86512556E-01 0.79314884E+03</pdfrwt>
<totfact> 0.14657089E+01</totfact>
</mgrwt>
</event>
<event>
 4    1  0.8645356E-007  0.6977911E+03  0.7818608E-02  0.1000649E+00
          2   -1    0    0  501    0  0.00000000000E+00  0.00000000000E+00  0.62252644945E+03  0.62252644946E+03  0.25500000000E-02 0. -1.
         -2   -1    0    0    0  501 -0.00000000000E+00 -0.00000000000E+00 -0.14476808995E+04  0.14476808995E+04  0.25500000000E-02 0.  1.
    8880023    1    1    2    0    0 -0.18672002257E+03 -0.13504745493E+03 -0.13258157369E+04  0.14982322104E+04  0.65864270000E+03 0.  1.
    8880022    1    1    2    0    0  0.18672002257E+03  0.13504745493E+03  0.50066128686E+03  0.57197513852E+03  0.15294330000E+03 0.  0.
<mgrwt>
<rscale>  0 0.55366537E+03</rscale>
<asrwt>0</asrwt>
<pdfrwt beam="1">  1        2 0.95773300E-01 0.69779108E+03</pdfrwt>
<pdfrwt beam="2">  1       -2 0.22272014E+00 0.69779108E+03</pdfrwt>
<totfact> 0.46471371E+00</totfact>
</mgrwt>
</event>
<event>
 4    1  0.8645356E-007  0.7469014E+03  0.7818608E-02  0.9840281E-01
         -2   -1    0    0    0  501 -0.00000000000E+00  0.00000000000E+00  0.43011184815E+03  0.43011184816E+03  0.25500000000E-02 0.  1.
          2   -1    0    0  501    0  0.00000000000E+00 -0.00000000000E+00 -0.26187871131E+04  0.26187871131E+04  0.25500000000E-02 0. -1.
    8880023    1    1    2    0    0 -0.26448733898E+03  0.23258974298E+03  0.77051059350E+02  0.75086524292E+03  0.65864270000E+03 0.  0.
    8880022    1    1    2    0    0  0.26448733898E+03 -0.23258974298E+03 -0.22657263243E+04  0.22980337184E+04  0.15294330000E+03 0.  0.
<mgrwt>
<rscale>  0 0.63244907E+03</rscale>
<asrwt>0</asrwt>
<pdfrwt beam="1">  1        2 0.40289032E+00 0.74690143E+03</pdfrwt>
<pdfrwt beam="2">  1       -2 0.66171055E-01 0.74690143E+03</pdfrwt>
<totfact> 0.65663259E+00</totfact>
</mgrwt>
</event>
<event>
 4    1  0.8645356E-007  0.6818410E+03  0.7818608E-02  0.1008301E+00
          2   -1    0    0  501    0  0.00000000000E+00  0.00000000000E+00  0.78494363705E+03  0.78494363705E+03  0.25500000000E-02 0. -1.
         -2   -1    0    0    0  501 -0.00000000000E+00 -0.00000000000E+00 -0.35634925567E+03  0.35634925568E+03  0.25500000000E-02 0.  1.
    8880023    1    1    2    0    0  0.16900513205E+03 -0.50340912652E+02  0.33831990823E+02  0.68267983126E+03  0.65864270000E+03 0.  1.
    8880022    1    1    2    0    0 -0.16900513205E+03  0.50340912652E+02  0.39476239055E+03  0.45861306147E+03  0.15294330000E+03 0.  0.
<mgrwt>
<rscale>  0 0.52155551E+03</rscale>
<asrwt>0</asrwt>
<pdfrwt beam="1">  1        2 0.12076056E+00 0.68184100E+03</pdfrwt>
<pdfrwt beam="2">  1       -2 0.54822963E-01 0.68184100E+03</pdfrwt>
<totfact> 0.11238967E+02</totfact>
</mgrwt>
</event>
<event>
 4    1  0.8645356E-007  0.6716009E+03  0.7818608E-02  0.1014540E+00
         -2   -1    0    0    0  501 -0.00000000000E+00  0.00000000000E+00  0.48464026968E+03  0.48464026969E+03  0.25500000000E-02 0.  1.
          2   -1    0    0  501    0  0.00000000000E+00 -0.00000000000E+00 -0.56250299987E+03  0.56250299988E+03  0.25500000000E-02 0. -1.
    8880023    1    1    2    0    0  0.95634443847E+02 -0.89953468947E+02  0.20284247135E+03  0.70156457142E+03  0.65864270000E+03 0.  1.
    8880022    1    1    2    0    0 -0.95634443847E+02  0.89953468947E+02 -0.28070520154E+03  0.34557869815E+03  0.15294330000E+03 0.  0.
<mgrwt>
<rscale>  0 0.49709372E+03</rscale>
<asrwt>0</asrwt>
<pdfrwt beam="1">  1        2 0.86538923E-01 0.67160091E+03</pdfrwt>
<pdfrwt beam="2">  1       -2 0.74560042E-01 0.67160091E+03</pdfrwt>
<totfact> 0.88129423E+01</totfact>
</mgrwt>
</event>
<event>
 4    1  0.8645356E-007  0.1068074E+04  0.7818608E-02  0.9297463E-01
          2   -1    0    0  501    0  0.00000000000E+00  0.00000000000E+00  0.12387283294E+04  0.12387283294E+04  0.25500000000E-02 0. -1.
         -2   -1    0    0    0  501 -0.00000000000E+00 -0.00000000000E+00 -0.12855048538E+04  0.12855048538E+04  0.25500000000E-02 0.  1.
    8880023    1    1    2    0    0  0.84009613943E+03  0.34786819452E+02 -0.83954725696E+03  0.13585365101E+04  0.65864270000E+03 0.  1.
    8880022    1    1    2    0    0 -0.84009613943E+03 -0.34786819452E+02  0.79277073251E+03  0.11656966731E+04  0.15294330000E+03 0.  0.
<mgrwt>
<rscale>  0 0.10101674E+04</rscale>
<asrwt>0</asrwt>
<pdfrwt beam="1">  1        2 0.19057359E+00 0.10680739E+04</pdfrwt>
<pdfrwt beam="2">  1       -2 0.19776998E+00 0.10680739E+04</pdfrwt>
<totfact> 0.24325860E+00</totfact>
</mgrwt>
</event>
<event>
 4    1  0.8645356E-007  0.7097598E+03  0.7818608E-02  0.9958894E-01
         -2   -1    0    0    0  501 -0.00000000000E+00  0.00000000000E+00  0.61115993106E+03  0.61115993106E+03  0.25500000000E-02 0.  1.
          2   -1    0    0  501    0  0.00000000000E+00 -0.00000000000E+00 -0.23682332590E+04  0.23682332590E+04  0.25500000000E-02 0. -1.
    8880023    1    1    2    0    0  0.25773021425E+03 -0.59361897600E+02  0.39057136955E+03  0.81012647112E+03  0.65864270000E+03 0.  1.
    8880022    1    1    2    0    0 -0.25773021425E+03  0.59361897600E+02 -0.21476446975E+04  0.21692667190E+04  0.15294330000E+03 0.  0.
<mgrwt>
<rscale>  0 0.57489986E+03</rscale>
<asrwt>0</asrwt>
<pdfrwt beam="1">  1        2 0.36434357E+00 0.70975975E+03</pdfrwt>
<pdfrwt beam="2">  1       -2 0.94024606E-01 0.70975975E+03</pdfrwt>
<totfact> 0.41712813E+00</totfact>
</mgrwt>
</event>
<event>
 4    1  0.8645356E-007  0.1285216E+04  0.7818608E-02  0.9078433E-01
          2   -1    0    0  501    0  0.00000000000E+00  0.00000000000E+00  0.10642747876E+04  0.10642747876E+04  0.25500000000E-02 0. -1.
         -2   -1    0    0    0  501 -0.00000000000E+00 -0.00000000000E+00 -0.16764885661E+04  0.16764885661E+04  0.25500000000E-02 0.  1.
    8880023    1    1    2    0    0 -0.21038529976E+03 -0.10833781511E+04  0.27763605129E+03  0.13148620368E+04  0.65864270000E+03 0.  0.
    8880022    1    1    2    0    0  0.21038529976E+03  0.10833781511E+04 -0.88984982982E+03  0.14259013168E+04  0.15294330000E+03 0.  0.
<mgrwt>
<rscale>  0 0.12401363E+04</rscale>
<asrwt>0</asrwt>
<pdfrwt beam="1">  1        2 0.16373458E+00 0.12852161E+04</pdfrwt>
<pdfrwt beam="2">  1       -2 0.25792132E+00 0.12852161E+04</pdfrwt>
<totfact> 0.12718562E+00</totfact>
</mgrwt>
</event>
<event>
 4    1  0.8645356E-007  0.6744635E+03  0.7818608E-02  0.1012647E+00
         -2   -1    0    0    0  501 -0.00000000000E+00  0.00000000000E+00  0.25580235079E+03  0.25580235080E+03  0.25500000000E-02 0.  1.
          2   -1    0    0  501    0  0.00000000000E+00 -0.00000000000E+00 -0.16687721501E+04  0.16687721501E+04  0.25500000000E-02 0. -1.
    8880023    1    1    2    0    0  0.12186386703E+03  0.78993897483E+02 -0.21459197682E+03  0.70777875124E+03  0.65864270000E+03 0.  1.
    8880022    1    1    2    0    0 -0.12186386703E+03 -0.78993897483E+02 -0.11983778225E+04  0.12167957496E+04  0.15294330000E+03 0.  0.
<mgrwt>
<rscale>  0 0.50436215E+03</rscale>
<asrwt>0</asrwt>
<pdfrwt beam="1">  1        2 0.25673417E+00 0.67446352E+03</pdfrwt>
<pdfrwt beam="2">  1       -2 0.39354209E-01 0.67446352E+03</pdfrwt>
<totfact> 0.64297573E+01</totfact>
</mgrwt>
</event>
<event>
 4    1  0.8645356E-007  0.8008579E+03  0.7818608E-02  0.9708944E-01
          2   -1    0    0  501    0  0.00000000000E+00  0.00000000000E+00  0.74250616038E+03  0.74250616038E+03  0.25500000000E-02 0. -1.
         -2   -1    0    0    0  501 -0.00000000000E+00 -0.00000000000E+00 -0.17992471307E+04  0.17992471307E+04  0.25500000000E-02 0.  1.
    8880023    1    1    2    0    0  0.18419544441E+03  0.41669549365E+03 -0.16164930017E+04  0.18040019199E+04  0.65864270000E+03 0.  0.
    8880022    1    1    2    0    0 -0.18419544441E+03 -0.41669549365E+03  0.55975203133E+03  0.73775137124E+03  0.15294330000E+03 0.  0.
<mgrwt>
<rscale>  0 0.70486743E+03</rscale>
<asrwt>0</asrwt>
<pdfrwt beam="1">  1        2 0.11423172E+00 0.80085785E+03</pdfrwt>
<pdfrwt beam="2">  1       -2 0.27680725E+00 0.80085785E+03</pdfrwt>
<totfact> 0.17222196E+00</totfact>
</mgrwt>
</event>
<event>
 4    1  0.8645356E-007  0.6648974E+03  0.7818608E-02  0.1019620E+00
         -2   -1    0    0    0  501 -0.00000000000E+00  0.00000000000E+00  0.14258052296E+03  0.14258052298E+03  0.25500000000E-02 0.  1.
          2   -1    0    0  501    0  0.00000000000E+00 -0.00000000000E+00 -0.14922435087E+04  0.14922435087E+04  0.25500000000E-02 0. -1.
    8880023    1    1    2    0    0 -0.21546026305E+02 -0.88397182993E+02 -0.71802533578E+03  0.97859536188E+03  0.65864270000E+03 0.  0.
    8880022    1    1    2    0    0  0.21546026305E+02  0.88397182993E+02 -0.63163764993E+03  0.65622866978E+03  0.15294330000E+03 0.  0.
<mgrwt>
<rscale>  0 0.47824107E+03</rscale>
<asrwt>0</asrwt>
<pdfrwt beam="1">  1        2 0.22957591E+00 0.66489736E+03</pdfrwt>
<pdfrwt beam="2">  1       -2 0.21935466E-01 0.66489736E+03</pdfrwt>
<totfact> 0.23719743E+02</totfact>
</mgrwt>
</event>
<event>
 4    1  0.8645356E-007  0.6811809E+03  0.7818608E-02  0.1008663E+00
          2   -1    0    0  501    0  0.00000000000E+00  0.00000000000E+00  0.91542159240E+03  0.91542159240E+03  0.25500000000E-02 0. -1.
         -2   -1    0    0    0  501 -0.00000000000E+00 -0.00000000000E+00 -0.46280252972E+03  0.46280252973E+03  0.25500000000E-02 0.  1.
    8880023    1    1    2    0    0 -0.14431979255E+03 -0.96793680241E+02 -0.18001558431E+03  0.70456584924E+03  0.65864270000E+03 0.  1.
    8880022    1    1    2    0    0  0.14431979255E+03  0.96793680241E+02  0.63263464698E+03  0.67365827289E+03  0.15294330000E+03 0.  0.
<mgrwt>
<rscale>  0 0.52009320E+03</rscale>
<asrwt>0</asrwt>
<pdfrwt beam="1">  1        2 0.14083409E+00 0.68118090E+03</pdfrwt>
<pdfrwt beam="2">  1       -2 0.71200390E-01 0.68118090E+03</pdfrwt>
<totfact> 0.52330424E+01</totfact>
</mgrwt>
</event>
<event>
 4    1  0.8645356E-007  0.8443462E+03  0.7818608E-02  0.9622039E-01
          2   -1    0    0  501    0  0.00000000000E+00  0.00000000000E+00  0.17098062290E+04  0.17098062290E+04  0.25500000000E-02 0. -1.
         -2   -1    0    0    0  501 -0.00000000000E+00 -0.00000000000E+00 -0.54248414038E+03  0.54248414038E+03  0.25500000000E-02 0.  1.
    8880023    1    1    2    0    0 -0.39640680711E+03  0.34924482458E+03 -0.11959114064E+03  0.85277344670E+03  0.65864270000E+03 0.  1.
    8880022    1    1    2    0    0  0.39640680711E+03 -0.34924482458E+03  0.12869132293E+04  0.13995169227E+04  0.15294330000E+03 0.  0.
<mgrwt>
<rscale>  0 0.75854516E+03</rscale>
<asrwt>0</asrwt>
<pdfrwt beam="1">  1        2 0.26304711E+00 0.84434620E+03</pdfrwt>
<pdfrwt beam="2">  1       -2 0.83459100E-01 0.84434620E+03</pdfrwt>
<totfact> 0.12360017E+01</totfact>
</mgrwt>
</event>
<event>
 4    1  0.1099223E-006  0.6941063E+03  0.7818608E-02  0.1002259E+00
         -2   -1    0    0    0  501 -0.00000000000E+00  0.00000000000E+00  0.96001372441E+03  0.96001372441E+03  0.25500000000E-02 0.  1.
          2   -1    0    0  501    0  0.00000000000E+00 -0.00000000000E+00 -0.13556270089E+04  0.13556270089E+04  0.25500000000E-02 0. -1.
    8880023    1    1    2    0    0 -0.40058302071E+02  0.21533376062E+03  0.81809763964E+03  0.10728780221E+04  0.65864270000E+03 0.  1.
    8880022    1    1    2    0    0  0.40058302071E+02 -0.21533376062E+03 -0.12137109241E+04  0.12427627112E+04  0.15294330000E+03 0.  0.
<mgrwt>
<rscale>  0 0.54670758E+03</rscale>
<asrwt>0</asrwt>
<pdfrwt beam="1">  1        2 0.20855800E+00 0.69410626E+03</pdfrwt>
<pdfrwt beam="2">  1       -2 0.14769442E+00 0.69410626E+03</pdfrwt>
<totfact> 0.49465102E+00</totfact>
</mgrwt>
</event>
<event>
 4    1  0.8645356E-007  0.8415937E+03  0.7818608E-02  0.9627183E-01
         -2   -1    0    0    0  501 -0.00000000000E+00  0.00000000000E+00  0.83906696960E+03  0.83906696961E+03  0.25500000000E-02 0.  1.
          2   -1    0    0  501    0  0.00000000000E+00 -0.00000000000E+00 -0.71289782854E+03  0.71289782855E+03  0.25500000000E-02 0. -1.
    8880023    1    1    2    0    0 -0.51811380121E+03  0.77638806824E+02  0.41072608788E+03  0.93646987184E+03  0.65864270000E+03 0.  1.
    8880022    1    1    2    0    0  0.51811380121E+03 -0.77638806824E+02 -0.28455694682E+03  0.61549492632E+03  0.15294330000E+03 0. -1.
<mgrwt>
<rscale>  0 0.75522892E+03</rscale>
<asrwt>0</asrwt>
<pdfrwt beam="1">  1        2 0.10967659E+00 0.84159367E+03</pdfrwt>
<pdfrwt beam="2">  1       -2 0.12908723E+00 0.84159367E+03</pdfrwt>
<totfact> 0.17801174E+01</totfact>
</mgrwt>
</event>
<event>
 4    1  0.8645356E-007  0.7030291E+03  0.7818608E-02  0.9984860E-01
         -2   -1    0    0    0  501 -0.00000000000E+00  0.00000000000E+00  0.58646565795E+03  0.58646565796E+03  0.25500000000E-02 0.  1.
          2   -1    0    0  501    0  0.00000000000E+00 -0.00000000000E+00 -0.91471088006E+03  0.91471088007E+03  0.25500000000E-02 0. -1.
    8880023    1    1    2    0    0 -0.10352696547E+03 -0.22298408702E+03  0.33405102317E+03  0.77835726243E+03  0.65864270000E+03 0.  1.
    8880022    1    1    2    0    0  0.10352696547E+03  0.22298408702E+03 -0.66229624528E+03  0.72281927559E+03  0.15294330000E+03 0.  0.
<mgrwt>
<rscale>  0 0.56319114E+03</rscale>
<asrwt>0</asrwt>
<pdfrwt beam="1">  1        2 0.14072475E+00 0.70302912E+03</pdfrwt>
<pdfrwt beam="2">  1       -2 0.90225486E-01 0.70302912E+03</pdfrwt>
<totfact> 0.30708630E+01</totfact>
</mgrwt>
</event>
<event>
 4    1  0.8645356E-007  0.9833838E+03  0.7818608E-02  0.9403627E-01
         -2   -1    0    0    0  501 -0.00000000000E+00  0.00000000000E+00  0.10795708033E+04  0.10795708033E+04  0.25500000000E-02 0.  1.
          2   -1    0    0  501    0  0.00000000000E+00 -0.00000000000E+00 -0.15336625638E+04  0.15336625638E+04  0.25500000000E-02 0. -1.
    8880023    1    1    2    0    0  0.62944949471E+03 -0.37017138392E+03  0.72234103671E+03  0.12201722417E+04  0.65864270000E+03 0.  1.
    8880022    1    1    2    0    0 -0.62944949471E+03  0.37017138392E+03 -0.11764327972E+04  0.13930611255E+04  0.15294330000E+03 0.  0.
<mgrwt>
<rscale>  0 0.91777801E+03</rscale>
<asrwt>0</asrwt>
<pdfrwt beam="1">  1        2 0.23594809E+00 0.98338381E+03</pdfrwt>
<pdfrwt beam="2">  1       -2 0.16608782E+00 0.98338381E+03</pdfrwt>
<totfact> 0.27483135E+00</totfact>
</mgrwt>
</event>
<event>
 4    1  0.8645356E-007  0.8119594E+03  0.7818608E-02  0.9685510E-01
         -2   -1    0    0    0  501 -0.00000000000E+00  0.00000000000E+00  0.63102777519E+03  0.63102777520E+03  0.25500000000E-02 0.  1.
          2   -1    0    0  501    0  0.00000000000E+00 -0.00000000000E+00 -0.10762765729E+04  0.10762765729E+04  0.25500000000E-02 0. -1.
    8880023    1    1    2    0    0 -0.70402165501E+02 -0.46958647340E+03  0.25182694190E+03  0.85011466041E+03  0.65864270000E+03 0.  1.
    8880022    1    1    2    0    0  0.70402165501E+02  0.46958647340E+03 -0.69707573958E+03  0.85718968766E+03  0.15294330000E+03 0.  0.
<mgrwt>
<rscale>  0 0.71886120E+03</rscale>
<asrwt>0</asrwt>
<pdfrwt beam="1">  1        2 0.16558101E+00 0.81195944E+03</pdfrwt>
<pdfrwt beam="2">  1       -2 0.97081196E-01 0.81195944E+03</pdfrwt>
<totfact> 0.20183106E+01</totfact>
</mgrwt>
</event>
<event>
 4    1  0.8645356E-007  0.7845842E+03  0.7818608E-02  0.9745177E-01
         -2   -1    0    0    0  501 -0.00000000000E+00  0.00000000000E+00  0.33244960688E+03  0.33244960689E+03  0.25500000000E-02 0.  1.
          2   -1    0    0  501    0  0.00000000000E+00 -0.00000000000E+00 -0.28069512524E+04  0.28069512524E+04  0.25500000000E-02 0. -1.
    8880023    1    1    2    0    0  0.32602084339E+03  0.27472271803E+03 -0.18576433855E+03  0.80627585718E+03  0.65864270000E+03 0.  1.
    8880022    1    1    2    0    0 -0.32602084339E+03 -0.27472271803E+03 -0.22887373069E+04  0.23331250021E+04  0.15294330000E+03 0.  0.
<mgrwt>
<rscale>  0 0.68389530E+03</rscale>
<asrwt>0</asrwt>
<pdfrwt beam="1">  1        2 0.43183864E+00 0.78458420E+03</pdfrwt>
<pdfrwt beam="2">  1       -2 0.51146095E-01 0.78458420E+03</pdfrwt>
<totfact> 0.87006658E+00</totfact>
</mgrwt>
</event>
<event>
 4    1  0.8645356E-007  0.6604106E+03  0.7818608E-02  0.1023740E+00
         -2   -1    0    0    0  501 -0.00000000000E+00  0.00000000000E+00  0.51339078290E+03  0.51339078291E+03  0.25500000000E-02 0.  1.
          2   -1    0    0  501    0  0.00000000000E+00 -0.00000000000E+00 -0.38848798189E+03  0.38848798190E+03  0.25500000000E-02 0. -1.
    8880023    1    1    2    0    0  0.42307169470E+01 -0.48103998869E+02  0.24193794249E+03  0.70333211782E+03  0.65864270000E+03 0.  1.
    8880022    1    1    2    0    0 -0.42307169470E+01  0.48103998869E+02 -0.11703514148E+03  0.19854664699E+03  0.15294330000E+03 0.  0.
<mgrwt>
<rscale>  0 0.46360900E+03</rscale>
<asrwt>0</asrwt>
<pdfrwt beam="1">  1        2 0.59767382E-01 0.66041055E+03</pdfrwt>
<pdfrwt beam="2">  1       -2 0.78983198E-01 0.66041055E+03</pdfrwt>
<totfact> 0.11862047E+02</totfact>
</mgrwt>
</event>
<event>
 4    1  0.8645356E-007  0.8733916E+03  0.7818608E-02  0.9570172E-01
          2   -1    0    0  501    0  0.00000000000E+00  0.00000000000E+00  0.23268995294E+04  0.23268995294E+04  0.25500000000E-02 0. -1.
         -2   -1    0    0    0  501 -0.00000000000E+00 -0.00000000000E+00 -0.31493974449E+03  0.31493974450E+03  0.25500000000E-02 0.  1.
    8880023    1    1    2    0    0 -0.53390800206E+03  0.20963044969E+03  0.47495437138E+03  0.99418033639E+03  0.65864270000E+03 0.  0.
    8880022    1    1    2    0    0  0.53390800206E+03 -0.20963044969E+03  0.15370054135E+04  0.16476589375E+04  0.15294330000E+03 0.  0.
<mgrwt>
<rscale>  0 0.79302225E+03</rscale>
<asrwt>0</asrwt>
<pdfrwt beam="1">  1        2 0.35798454E+00 0.87339160E+03</pdfrwt>
<pdfrwt beam="2">  1       -2 0.48452269E-01 0.87339160E+03</pdfrwt>
<totfact> 0.18086783E+01</totfact>
</mgrwt>
</event>
<event>
 4    1  0.8645356E-007  0.8248724E+03  0.7818608E-02  0.9659393E-01
         -2   -1    0    0    0  501 -0.00000000000E+00  0.00000000000E+00  0.15111221186E+04  0.15111221186E+04  0.25500000000E-02 0.  1.
          2   -1    0    0  501    0  0.00000000000E+00 -0.00000000000E+00 -0.12591487857E+04  0.12591487857E+04  0.25500000000E-02 0. -1.
    8880023    1    1    2    0    0  0.49482603060E+03 -0.41849647778E+02  0.13348662005E+04  0.15691660757E+04  0.65864270000E+03 0.  0.
    8880022    1    1    2    0    0 -0.49482603060E+03  0.41849647778E+02 -0.10828928676E+04  0.12011048286E+04  0.15294330000E+03 0.  0.
<mgrwt>
<rscale>  0 0.73486861E+03</rscale>
<asrwt>0</asrwt>
<pdfrwt beam="1">  1        2 0.19371520E+00 0.82487235E+03</pdfrwt>
<pdfrwt beam="2">  1       -2 0.23248033E+00 0.82487235E+03</pdfrwt>
<totfact> 0.14713449E+00</totfact>
</mgrwt>
</event>
<event>
 4    1  0.8645356E-007  0.1524447E+04  0.7818608E-02  0.8892563E-01
         -2   -1    0    0    0  501 -0.00000000000E+00  0.00000000000E+00  0.11964842641E+04  0.11964842641E+04  0.25500000000E-02 0.  1.
          2   -1    0    0  501    0  0.00000000000E+00 -0.00000000000E+00 -0.21326172978E+04  0.21326172978E+04  0.25500000000E-02 0. -1.
    8880023    1    1    2    0    0 -0.12662441463E+04  0.53549567270E+03 -0.11757730609E+04  0.19251967043E+04  0.65864270000E+03 0.  0.
    8880022    1    1    2    0    0  0.12662441463E+04 -0.53549567270E+03  0.23964002720E+03  0.14039048576E+04  0.15294330000E+03 0.  0.
<mgrwt>
<rscale>  0 0.14878650E+04</rscale>
<asrwt>0</asrwt>
<pdfrwt beam="1">  1        2 0.32809497E+00 0.15244475E+04</pdfrwt>
<pdfrwt beam="2">  1       -2 0.18407450E+00 0.15244475E+04</pdfrwt>
<totfact> 0.89857763E-01</totfact>
</mgrwt>
</event>
<event>
 4    1  0.8645356E-007  0.6927236E+03  0.7818608E-02  0.1002884E+00
          2   -1    0    0  501    0  0.00000000000E+00  0.00000000000E+00  0.17085636081E+04  0.17085636081E+04  0.25500000000E-02 0. -1.
         -2   -1    0    0    0  501 -0.00000000000E+00 -0.00000000000E+00 -0.49129467822E+03  0.49129467823E+03  0.25500000000E-02 0.  1.
    8880023    1    1    2    0    0 -0.11748620476E+03  0.17959074637E+03 -0.22914058908E+03  0.72963789671E+03  0.65864270000E+03 0.  1.
    8880022    1    1    2    0    0  0.11748620476E+03 -0.17959074637E+03  0.14464095189E+04  0.14702203896E+04  0.15294330000E+03 0.  0.
<mgrwt>
<rscale>  0 0.54403531E+03</rscale>
<asrwt>0</asrwt>
<pdfrwt beam="1">  1        2 0.26285594E+00 0.69272365E+03</pdfrwt>
<pdfrwt beam="2">  1       -2 0.75583797E-01 0.69272365E+03</pdfrwt>
<totfact> 0.15780780E+01</totfact>
</mgrwt>
</event>
<event>
 4    1  0.8645356E-007  0.6818400E+03  0.7818608E-02  0.1008301E+00
         -2   -1    0    0    0  501 -0.00000000000E+00  0.00000000000E+00  0.25120489923E+03  0.25120489924E+03  0.25500000000E-02 0.  1.
          2   -1    0    0  501    0  0.00000000000E+00 -0.00000000000E+00 -0.28870112533E+04  0.28870112533E+04  0.25500000000E-02 0. -1.
    8880023    1    1    2    0    0 -0.10567709906E+03 -0.14116644012E+03 -0.22774784937E+03  0.71887057405E+03  0.65864270000E+03 0.  1.
    8880022    1    1    2    0    0  0.10567709906E+03  0.14116644012E+03 -0.24080585047E+04  0.24193455785E+04  0.15294330000E+03 0.  0.
<mgrwt>
<rscale>  0 0.52155336E+03</rscale>
<asrwt>0</asrwt>
<pdfrwt beam="1">  1        2 0.44415555E+00 0.68184002E+03</pdfrwt>
<pdfrwt beam="2">  1       -2 0.38646910E-01 0.68184002E+03</pdfrwt>
<totfact> 0.13865846E+01</totfact>
</mgrwt>
</event>
<event>
 4    1  0.8645356E-007  0.1059856E+04  0.7818608E-02  0.9307126E-01
         -2   -1    0    0    0  501 -0.00000000000E+00  0.00000000000E+00  0.15320988198E+04  0.15320988199E+04  0.25500000000E-02 0.  1.
          2   -1    0    0  501    0  0.00000000000E+00 -0.00000000000E+00 -0.78190751229E+03  0.78190751229E+03  0.25500000000E-02 0. -1.
    8880023    1    1    2    0    0 -0.63825264316E+02 -0.82789486424E+03  0.97517110980E+03  0.14402265344E+04  0.65864270000E+03 0.  1.
    8880022    1    1    2    0    0  0.63825264316E+02  0.82789486424E+03 -0.22497980224E+03  0.87377979779E+03  0.15294330000E+03 0.  0.
<mgrwt>
<rscale>  0 0.10012942E+04</rscale>
<asrwt>0</asrwt>
<pdfrwt beam="1">  1        2 0.12029346E+00 0.10598555E+04</pdfrwt>
<pdfrwt beam="2">  1       -2 0.23570751E+00 0.10598555E+04</pdfrwt>
<totfact> 0.27675319E+00</totfact>
</mgrwt>
</event>
<event>
 4    1  0.8645356E-007  0.6668157E+03  0.7818608E-02  0.1018056E+00
         -2   -1    0    0    0  501 -0.00000000000E+00  0.00000000000E+00  0.13361406824E+03  0.13361406826E+03  0.25500000000E-02 0.  1.
          2   -1    0    0  501    0  0.00000000000E+00 -0.00000000000E+00 -0.14713292750E+04  0.14713292750E+04  0.25500000000E-02 0. -1.
    8880023    1    1    2    0    0  0.10108313460E+03  0.24802996581E+02 -0.83066443384E+03  0.10651979143E+04  0.65864270000E+03 0.  1.
    8880022    1    1    2    0    0 -0.10108313460E+03 -0.24802996581E+02 -0.50705077296E+03  0.53974542899E+03  0.15294330000E+03 0. -1.
<mgrwt>
<rscale>  0 0.48394581E+03</rscale>
<asrwt>0</asrwt>
<pdfrwt beam="1">  1        2 0.22635834E+00 0.66681571E+03</pdfrwt>
<pdfrwt beam="2">  1       -2 0.20556012E-01 0.66681571E+03</pdfrwt>
<totfact> 0.27310656E+02</totfact>
</mgrwt>
</event>
<event>
 4    1  0.8645356E-007  0.1029518E+04  0.7818608E-02  0.9343919E-01
          2   -1    0    0  501    0  0.00000000000E+00  0.00000000000E+00  0.20460768839E+04  0.20460768839E+04  0.25500000000E-02 0. -1.
         -2   -1    0    0    0  501 -0.00000000000E+00 -0.00000000000E+00 -0.44837262990E+03  0.44837262991E+03  0.25500000000E-02 0.  1.
    8880023    1    1    2    0    0 -0.72082564136E+03  0.32635510568E+03  0.53353600563E+03  0.11595551457E+04  0.65864270000E+03 0.  0.
    8880022    1    1    2    0    0  0.72082564136E+03 -0.32635510568E+03  0.10641682483E+04  0.13348943681E+04  0.15294330000E+03 0.  0.
<mgrwt>
<rscale>  0 0.96838254E+03</rscale>
<asrwt>0</asrwt>
<pdfrwt beam="1">  1        2 0.31478105E+00 0.10295181E+04</pdfrwt>
<pdfrwt beam="2">  1       -2 0.68980406E-01 0.10295181E+04</pdfrwt>
<totfact> 0.12093273E+01</totfact>
</mgrwt>
</event>
<event>
 4    1  0.8645356E-007  0.1586726E+04  0.7818608E-02  0.8850705E-01
          2   -1    0    0  501    0  0.00000000000E+00  0.00000000000E+00  0.27841773843E+04  0.27841773843E+04  0.25500000000E-02 0. -1.
         -2   -1    0    0    0  501 -0.00000000000E+00 -0.00000000000E+00 -0.12367845775E+04  0.12367845775E+04  0.25500000000E-02 0.  1.
    8880023    1    1    2    0    0 -0.11532405666E+04  0.86828817255E+03  0.19504964781E+04  0.25143855854E+04  0.65864270000E+03 0.  0.
    8880022    1    1    2    0    0  0.11532405666E+04 -0.86828817255E+03 -0.40310367123E+03  0.15065763764E+04  0.15294330000E+03 0.  0.
<mgrwt>
<rscale>  0 0.15518211E+04</rscale>
<asrwt>0</asrwt>
<pdfrwt beam="1">  1        2 0.42833497E+00 0.15867257E+04</pdfrwt>
<pdfrwt beam="2">  1       -2 0.19027456E+00 0.15867257E+04</pdfrwt>
<totfact> 0.34025467E-01</totfact>
</mgrwt>
</event>
<event>
 4    1  0.8645356E-007  0.7216253E+03  0.7818608E-02  0.9917124E-01
         -2   -1    0    0    0  501 -0.00000000000E+00  0.00000000000E+00  0.29507756912E+03  0.29507756913E+03  0.25500000000E-02 0.  1.
          2   -1    0    0  501    0  0.00000000000E+00 -0.00000000000E+00 -0.12384107829E+04  0.12384107829E+04  0.25500000000E-02 0. -1.
    8880023    1    1    2    0    0  0.24448795162E+03  0.16479846248E+03 -0.24826915498E+03  0.76313869729E+03  0.65864270000E+03 0.  0.
    8880022    1    1    2    0    0 -0.24448795162E+03 -0.16479846248E+03 -0.69506405878E+03  0.77034965473E+03  0.15294330000E+03 0.  0.
<mgrwt>
<rscale>  0 0.59438500E+03</rscale>
<asrwt>0</asrwt>
<pdfrwt beam="1">  1        2 0.19052473E+00 0.72162532E+03</pdfrwt>
<pdfrwt beam="2">  1       -2 0.45396550E-01 0.72162532E+03</pdfrwt>
<totfact> 0.84240994E+01</totfact>
</mgrwt>
</event>
<event>
 4    1  0.8645356E-007  0.8022992E+03  0.7818608E-02  0.9705847E-01
          2   -1    0    0  501    0  0.00000000000E+00  0.00000000000E+00  0.11614478963E+04  0.11614478963E+04  0.25500000000E-02 0. -1.
         -2   -1    0    0    0  501 -0.00000000000E+00 -0.00000000000E+00 -0.10345684197E+04  0.10345684197E+04  0.25500000000E-02 0.  1.
    8880023    1    1    2    0    0 -0.12394246914E+03 -0.44103514188E+03 -0.81118256815E+03  0.11409211617E+04  0.65864270000E+03 0.  1.
    8880022    1    1    2    0    0  0.12394246914E+03  0.44103514188E+03  0.93806204472E+03  0.10550951544E+04  0.15294330000E+03 0.  0.
<mgrwt>
<rscale>  0 0.70669747E+03</rscale>
<asrwt>0</asrwt>
<pdfrwt beam="1">  1        2 0.17868429E+00 0.80229916E+03</pdfrwt>
<pdfrwt beam="2">  1       -2 0.15916437E+00 0.80229916E+03</pdfrwt>
<totfact> 0.51779369E+00</totfact>
</mgrwt>
</event>
<event>
 4    1  0.8645356E-007  0.6882807E+03  0.7818608E-02  0.1004981E+00
         -2   -1    0    0    0  501 -0.00000000000E+00  0.00000000000E+00  0.10616487401E+03  0.10616487404E+03  0.25500000000E-02 0.  1.
          2   -1    0    0  501    0  0.00000000000E+00 -0.00000000000E+00 -0.24426402912E+04  0.24426402912E+04  0.25500000000E-02 0. -1.
    8880023    1    1    2    0    0 -0.10353048314E+03 -0.17088455468E+03 -0.11870209035E+04  0.13721329832E+04  0.65864270000E+03 0.  0.
    8880022    1    1    2    0    0  0.10353048314E+03  0.17088455468E+03 -0.11494545137E+04  0.11766721820E+04  0.15294330000E+03 0.  0.
<mgrwt>
<rscale>  0 0.53519213E+03</rscale>
<asrwt>0</asrwt>
<pdfrwt beam="1">  1        2 0.37579077E+00 0.68828068E+03</pdfrwt>
<pdfrwt beam="2">  1       -2 0.16333059E-01 0.68828068E+03</pdfrwt>
<totfact> 0.11887921E+02</totfact>
</mgrwt>
</event>
<event>
 4    1  0.8645356E-007  0.9928895E+03  0.7818608E-02  0.9390920E-01
         -2   -1    0    0    0  501 -0.00000000000E+00  0.00000000000E+00  0.10420560511E+04  0.10420560511E+04  0.25500000000E-02 0.  1.
          2   -1    0    0  501    0  0.00000000000E+00 -0.00000000000E+00 -0.16600591439E+04  0.16600591440E+04  0.25500000000E-02 0. -1.
    8880023    1    1    2    0    0 -0.54823139462E+03 -0.50145964131E+03  0.67669791902E+03  0.12015613650E+04  0.65864270000E+03 0.  0.
    8880022    1    1    2    0    0  0.54823139462E+03  0.50145964131E+03 -0.12947010119E+04  0.15005538301E+04  0.15294330000E+03 0.  0.
<mgrwt>
<rscale>  0 0.92826715E+03</rscale>
<asrwt>0</asrwt>
<pdfrwt beam="1">  1        2 0.25539371E+00 0.99288954E+03</pdfrwt>
<pdfrwt beam="2">  1       -2 0.16031632E+00 0.99288954E+03</pdfrwt>
<totfact> 0.25725454E+00</totfact>
</mgrwt>
</event>
<event>
 4    1  0.8645356E-007  0.9095290E+03  0.7818608E-02  0.9510904E-01
          2   -1    0    0  501    0  0.00000000000E+00  0.00000000000E+00  0.18432034212E+04  0.18432034212E+04  0.25500000000E-02 0. -1.
         -2   -1    0    0    0  501 -0.00000000000E+00 -0.00000000000E+00 -0.35654705865E+03  0.35654705866E+03  0.25500000000E-02 0.  1.
    8880023    1    1    2    0    0 -0.41377364173E+03  0.47140659699E+03  0.55246198638E+03  0.10641697510E+04  0.65864270000E+03 0.  0.
    8880022    1    1    2    0    0  0.41377364173E+03 -0.47140659699E+03  0.93419437621E+03  0.11355807289E+04  0.15294330000E+03 0.  0.
<mgrwt>
<rscale>  0 0.83484637E+03</rscale>
<asrwt>0</asrwt>
<pdfrwt beam="1">  1        2 0.28356976E+00 0.90952901E+03</pdfrwt>
<pdfrwt beam="2">  1       -2 0.54853393E-01 0.90952901E+03</pdfrwt>
<totfact> 0.25808905E+01</totfact>
</mgrwt>
</event>
<event>
 4    1  0.8645356E-007  0.8816952E+03  0.7818608E-02  0.9556080E-01
         -2   -1    0    0    0  501 -0.00000000000E+00  0.00000000000E+00  0.73793031221E+03  0.73793031222E+03  0.25500000000E-02 0.  1.
          2   -1    0    0  501    0  0.00000000000E+00 -0.00000000000E+00 -0.13000680930E+04  0.13000680930E+04  0.25500000000E-02 0. -1.
    8880023    1    1    2    0    0 -0.52217717463E+03  0.26628393896E+03  0.34533292902E+03  0.94691138761E+03  0.65864270000E+03 0.  0.
    8880022    1    1    2    0    0  0.52217717463E+03 -0.26628393896E+03 -0.90747070985E+03  0.10910870177E+04  0.15294330000E+03 0.  0.
<mgrwt>
<rscale>  0 0.80272601E+03</rscale>
<asrwt>0</asrwt>
<pdfrwt beam="1">  1        2 0.20001047E+00 0.88169515E+03</pdfrwt>
<pdfrwt beam="2">  1       -2 0.11352774E+00 0.88169515E+03</pdfrwt>
<totfact> 0.10113241E+01</totfact>
</mgrwt>
</event>
<event>
 4    1  0.8645356E-007  0.6605145E+03  0.7818608E-02  0.1023635E+00
          2   -1    0    0  501    0  0.00000000000E+00  0.00000000000E+00  0.85587095159E+03  0.85587095159E+03  0.25500000000E-02 0. -1.
         -2   -1    0    0    0  501 -0.00000000000E+00 -0.00000000000E+00 -0.89304586268E+03  0.89304586269E+03  0.25500000000E-02 0.  1.
    8880023    1    1    2    0    0 -0.42080671443E+02 -0.26427190059E+02 -0.76086837610E+03  0.10075713728E+04  0.65864270000E+03 0.  1.
    8880022    1    1    2    0    0  0.42080671443E+02  0.26427190059E+02  0.72369346501E+03  0.74134544148E+03  0.15294330000E+03 0.  0.
<mgrwt>
<rscale>  0 0.46397232E+03</rscale>
<asrwt>0</asrwt>
<pdfrwt beam="1">  1        2 0.13167245E+00 0.66051449E+03</pdfrwt>
<pdfrwt beam="2">  1       -2 0.13739167E+00 0.66051449E+03</pdfrwt>
<totfact> 0.12173793E+01</totfact>
</mgrwt>
</event>
<event>
 4    1  0.8645356E-007  0.8485351E+03  0.7818608E-02  0.9614292E-01
          2   -1    0    0  501    0  0.00000000000E+00  0.00000000000E+00  0.31634235424E+04  0.31634235424E+04  0.25500000000E-02 0. -1.
         -2   -1    0    0    0  501 -0.00000000000E+00 -0.00000000000E+00 -0.53261758901E+03  0.53261758902E+03  0.25500000000E-02 0.  1.
    8880023    1    1    2    0    0 -0.24251508613E+03 -0.47685227221E+03 -0.14863420900E+03  0.86145457852E+03  0.65864270000E+03 0.  1.
    8880022    1    1    2    0    0  0.24251508613E+03  0.47685227221E+03  0.27794401624E+04  0.28345865529E+04  0.15294330000E+03 0.  0.
<mgrwt>
<rscale>  0 0.76357432E+03</rscale>
<asrwt>0</asrwt>
<pdfrwt beam="1">  1        2 0.48668054E+00 0.84853513E+03</pdfrwt>
<pdfrwt beam="2">  1       -2 0.81941169E-01 0.84853513E+03</pdfrwt>
<totfact> 0.18879635E+00</totfact>
</mgrwt>
</event>
<event>
 4    1  0.8645356E-007  0.7861411E+03  0.7818608E-02  0.9741604E-01
         -2   -1    0    0    0  501 -0.00000000000E+00  0.00000000000E+00  0.15340054496E+04  0.15340054496E+04  0.25500000000E-02 0.  1.
          2   -1    0    0  501    0  0.00000000000E+00 -0.00000000000E+00 -0.59737285314E+03  0.59737285315E+03  0.25500000000E-02 0. -1.
    8880023    1    1    2    0    0  0.42359598794E+03  0.69094392896E+02  0.13197042387E+04  0.15361110247E+04  0.65864270000E+03 0.  0.
    8880022    1    1    2    0    0 -0.42359598794E+03 -0.69094392896E+02 -0.38307164232E+03  0.59526727803E+03  0.15294330000E+03 0.  0.
<mgrwt>
<rscale>  0 0.68592810E+03</rscale>
<asrwt>0</asrwt>
<pdfrwt beam="1">  1        2 0.91903517E-01 0.78614108E+03</pdfrwt>
<pdfrwt beam="2">  1       -2 0.23600084E+00 0.78614108E+03</pdfrwt>
<totfact> 0.39966411E+00</totfact>
</mgrwt>
</event>
<event>
 4    1  0.8645356E-007  0.9482118E+03  0.7818608E-02  0.9452692E-01
         -2   -1    0    0    0  501 -0.00000000000E+00  0.00000000000E+00  0.10600206560E+04  0.10600206560E+04  0.25500000000E-02 0.  1.
          2   -1    0    0  501    0  0.00000000000E+00 -0.00000000000E+00 -0.12941853019E+04  0.12941853019E+04  0.25500000000E-02 0. -1.
    8880023    1    1    2    0    0  0.59571711568E+03 -0.33228992894E+03  0.70632187578E+03  0.11823689260E+04  0.65864270000E+03 0.  0.
    8880022    1    1    2    0    0 -0.59571711568E+03  0.33228992894E+03 -0.94048652164E+03  0.11718370318E+04  0.15294330000E+03 0.  0.
<mgrwt>
<rscale>  0 0.87863377E+03</rscale>
<asrwt>0</asrwt>
<pdfrwt beam="1">  1        2 0.19910543E+00 0.94821184E+03</pdfrwt>
<pdfrwt beam="2">  1       -2 0.16308010E+00 0.94821184E+03</pdfrwt>
<totfact> 0.39732180E+00</totfact>
</mgrwt>
</event>
<event>
 4    1  0.8645356E-007  0.6747837E+03  0.7818608E-02  0.1012443E+00
          2   -1    0    0  501    0  0.00000000000E+00  0.00000000000E+00  0.11682251438E+04  0.11682251438E+04  0.25500000000E-02 0. -1.
         -2   -1    0    0    0  501 -0.00000000000E+00 -0.00000000000E+00 -0.28011147224E+03  0.28011147225E+03  0.25500000000E-02 0.  1.
    8880023    1    1    2    0    0 -0.14204410687E+01  0.14669979231E+03  0.16480290704E+03  0.69461719756E+03  0.65864270000E+03 0.  0.
    8880022    1    1    2    0    0  0.14204410687E+01 -0.14669979231E+03  0.72331076454E+03  0.75371941850E+03  0.15294330000E+03 0.  0.
<mgrwt>
<rscale>  0 0.50515163E+03</rscale>
<asrwt>0</asrwt>
<pdfrwt beam="1">  1        2 0.17972694E+00 0.67478371E+03</pdfrwt>
<pdfrwt beam="2">  1       -2 0.43094073E-01 0.67478371E+03</pdfrwt>
<totfact> 0.10318207E+02</totfact>
</mgrwt>
</event>
<event>
 4    1  0.1069213E-006  0.1030191E+04  0.7818608E-02  0.9343082E-01
         -2   -1    0    0    0  501 -0.00000000000E+00  0.00000000000E+00  0.20367839464E+04  0.20367839464E+04  0.25500000000E-02 0.  1.
          2   -1    0    0  501    0  0.00000000000E+00 -0.00000000000E+00 -0.15471220862E+04  0.15471220862E+04  0.25500000000E-02 0. -1.
    8880023    1    1    2    0    0 -0.53735756364E+03  0.58200544407E+03  0.17832050862E+04  0.20593965315E+04  0.65864270000E+03 0.  1.
    8880022    1    1    2    0    0  0.53735756364E+03 -0.58200544407E+03 -0.12935432260E+04  0.15245095010E+04  0.15294330000E+03 0.  0.
<mgrwt>
<rscale>  0 0.96911553E+03</rscale>
<asrwt>0</asrwt>
<pdfrwt beam="1">  1        2 0.23801878E+00 0.10301911E+04</pdfrwt>
<pdfrwt beam="2">  1       -2 0.31335138E+00 0.10301911E+04</pdfrwt>
<totfact> 0.31501064E-01</totfact>
</mgrwt>
</event>
<event>
 4    1  0.8645356E-007  0.7104763E+03  0.7818608E-02  0.9956236E-01
          2   -1    0    0  501    0  0.00000000000E+00  0.00000000000E+00  0.14258205644E+04  0.14258205644E+04  0.25500000000E-02 0. -1.
         -2   -1    0    0    0  501 -0.00000000000E+00 -0.00000000000E+00 -0.52668030944E+03  0.52668030944E+03  0.25500000000E-02 0.  1.
    8880023    1    1    2    0    0 -0.20245353284E+01  0.26638755628E+03 -0.25755015806E+03  0.75571735395E+03  0.65864270000E+03 0.  0.
    8880022    1    1    2    0    0  0.20245353284E+01 -0.26638755628E+03  0.11566904130E+04  0.11967835199E+04  0.15294330000E+03 0. -1.
<mgrwt>
<rscale>  0 0.57611556E+03</rscale>
<asrwt>0</asrwt>
<pdfrwt beam="1">  1        2 0.21935701E+00 0.71047634E+03</pdfrwt>
<pdfrwt beam="2">  1       -2 0.81027741E-01 0.71047634E+03</pdfrwt>
<totfact> 0.19306302E+01</totfact>
</mgrwt>
</event>
<event>
 4    1  0.8645356E-007  0.7640023E+03  0.7818608E-02  0.9794854E-01
          2   -1    0    0  501    0  0.00000000000E+00  0.00000000000E+00  0.33859005639E+04  0.33859005639E+04  0.25500000000E-02 0. -1.
         -2   -1    0    0    0  501 -0.00000000000E+00 -0.00000000000E+00 -0.43741986614E+03  0.43741986615E+03  0.25500000000E-02 0.  1.
    8880023    1    1    2    0    0  0.24297532207E+02 -0.38639215273E+03 -0.78341233982E+02  0.76800834694E+03  0.65864270000E+03 0.  1.
    8880022    1    1    2    0    0 -0.24297532207E+02  0.38639215273E+03  0.30268219318E+04  0.30553120831E+04  0.15294330000E+03 0.  0.
<mgrwt>
<rscale>  0 0.65639434E+03</rscale>
<asrwt>0</asrwt>
<pdfrwt beam="1">  1        2 0.52090774E+00 0.76400227E+03</pdfrwt>
<pdfrwt beam="2">  1       -2 0.67295369E-01 0.76400227E+03</pdfrwt>
<totfact> 0.21307688E+00</totfact>
</mgrwt>
</event>
<event>
 4    1  0.8645356E-007  0.9273998E+03  0.7818608E-02  0.9483405E-01
         -2   -1    0    0    0  501 -0.00000000000E+00  0.00000000000E+00  0.32038701459E+03  0.32038701460E+03  0.25500000000E-02 0.  1.
          2   -1    0    0  501    0  0.00000000000E+00 -0.00000000000E+00 -0.36873080197E+04  0.36873080197E+04  0.25500000000E-02 0. -1.
    8880023    1    1    2    0    0 -0.47251884702E+03 -0.45053984251E+03 -0.48065408449E+03  0.10445567317E+04  0.65864270000E+03 0.  1.
    8880022    1    1    2    0    0  0.47251884702E+03  0.45053984251E+03 -0.28862669206E+04  0.29631383026E+04  0.15294330000E+03 0.  0.
<mgrwt>
<rscale>  0 0.85518447E+03</rscale>
<asrwt>0</asrwt>
<pdfrwt beam="1">  1        2 0.56727812E+00 0.92739981E+03</pdfrwt>
<pdfrwt beam="2">  1       -2 0.49290313E-01 0.92739981E+03</pdfrwt>
<totfact> 0.24549883E+00</totfact>
</mgrwt>
</event>
<event>
 4    1  0.8645356E-007  0.8742296E+03  0.7818608E-02  0.9568736E-01
          2   -1    0    0  501    0  0.00000000000E+00  0.00000000000E+00  0.12447866997E+04  0.12447866997E+04  0.25500000000E-02 0. -1.
         -2   -1    0    0    0  501 -0.00000000000E+00 -0.00000000000E+00 -0.17154580135E+04  0.17154580135E+04  0.25500000000E-02 0.  1.
    8880023    1    1    2    0    0 -0.53700114674E+03 -0.20517550778E+03 -0.15203201202E+04  0.17537533164E+04  0.65864270000E+03 0.  1.
    8880022    1    1    2    0    0  0.53700114674E+03  0.20517550778E+03  0.10496488064E+04  0.12064913967E+04  0.15294330000E+03 0.  0.
<mgrwt>
<rscale>  0 0.79400438E+03</rscale>
<asrwt>0</asrwt>
<pdfrwt beam="1">  1        2 0.19150565E+00 0.87422962E+03</pdfrwt>
<pdfrwt beam="2">  1       -2 0.26391662E+00 0.87422962E+03</pdfrwt>
<totfact> 0.95761245E-01</totfact>
</mgrwt>
</event>
<event>
 4    1  0.8645356E-007  0.7680178E+03  0.7818608E-02  0.9784776E-01
          2   -1    0    0  501    0  0.00000000000E+00  0.00000000000E+00  0.32034444230E+04  0.32034444230E+04  0.25500000000E-02 0. -1.
         -2   -1    0    0    0  501 -0.00000000000E+00 -0.00000000000E+00 -0.16847198354E+03  0.16847198356E+03  0.25500000000E-02 0.  1.
    8880023    1    1    2    0    0  0.37185429842E+03  0.13328737515E+03  0.84715798018E+03  0.11434719031E+04  0.65864270000E+03 0.  0.
    8880022    1    1    2    0    0 -0.37185429842E+03 -0.13328737515E+03  0.21878144593E+04  0.22284445034E+04  0.15294330000E+03 0.  0.
<mgrwt>
<rscale>  0 0.66186009E+03</rscale>
<asrwt>0</asrwt>
<pdfrwt beam="1">  1        2 0.49283758E+00 0.76801781E+03</pdfrwt>
<pdfrwt beam="2">  1       -2 0.25918768E-01 0.76801781E+03</pdfrwt>
<totfact> 0.18408242E+01</totfact>
</mgrwt>
</event>
<event>
 4    1  0.8645356E-007  0.9023835E+03  0.7818608E-02  0.9522216E-01
         -2   -1    0    0    0  501 -0.00000000000E+00  0.00000000000E+00  0.40371643808E+03  0.40371643809E+03  0.25500000000E-02 0.  1.
          2   -1    0    0  501    0  0.00000000000E+00 -0.00000000000E+00 -0.14748371267E+04  0.14748371267E+04  0.25500000000E-02 0. -1.
    8880023    1    1    2    0    0 -0.51472876175E+03  0.33991194803E+03 -0.70493768607E+03  0.11450909039E+04  0.65864270000E+03 0. -1.
    8880022    1    1    2    0    0  0.51472876175E+03 -0.33991194803E+03 -0.36618300250E+03  0.73346266089E+03  0.15294330000E+03 0.  0.
<mgrwt>
<rscale>  0 0.82665553E+03</rscale>
<asrwt>0</asrwt>
<pdfrwt beam="1">  1        2 0.22689802E+00 0.90238353E+03</pdfrwt>
<pdfrwt beam="2">  1       -2 0.62110222E-01 0.90238353E+03</pdfrwt>
<totfact> 0.31785278E+01</totfact>
</mgrwt>
</event>
<event>
 4    1  0.8645356E-007  0.8676540E+03  0.7818608E-02  0.9580091E-01
          2   -1    0    0  501    0  0.00000000000E+00  0.00000000000E+00  0.22039287617E+04  0.22039287617E+04  0.25500000000E-02 0. -1.
         -2   -1    0    0    0  501 -0.00000000000E+00 -0.00000000000E+00 -0.25735543799E+03  0.25735543800E+03  0.25500000000E-02 0.  1.
    8880023    1    1    2    0    0 -0.15815003284E+03 -0.54221942813E+03  0.14684745445E+04  0.17056497399E+04  0.65864270000E+03 0.  1.
    8880022    1    1    2    0    0  0.15815003284E+03  0.54221942813E+03  0.47809877919E+03  0.75563445978E+03  0.15294330000E+03 0. -1.
<mgrwt>
<rscale>  0 0.78628042E+03</rscale>
<asrwt>0</asrwt>
<pdfrwt beam="1">  1        2 0.33906595E+00 0.86765405E+03</pdfrwt>
<pdfrwt beam="2">  1       -2 0.39593146E-01 0.86765405E+03</pdfrwt>
<totfact> 0.31658331E+01</totfact>
</mgrwt>
</event>
<event>
 4    1  0.8645356E-007  0.8456061E+03  0.7818608E-02  0.9619699E-01
          2   -1    0    0  501    0  0.00000000000E+00  0.00000000000E+00  0.10775929457E+04  0.10775929457E+04  0.25500000000E-02 0. -1.
         -2   -1    0    0    0  501 -0.00000000000E+00 -0.00000000000E+00 -0.83157565160E+03  0.83157565160E+03  0.25500000000E-02 0.  1.
    8880023    1    1    2    0    0  0.19229209317E+03 -0.49422994514E+03  0.77327612088E+03  0.11458645876E+04  0.65864270000E+03 0.  0.
    8880022    1    1    2    0    0 -0.19229209317E+03  0.49422994514E+03 -0.52725882678E+03  0.76330400969E+03  0.15294330000E+03 0.  0.
<mgrwt>
<rscale>  0 0.76005999E+03</rscale>
<asrwt>0</asrwt>
<pdfrwt beam="1">  1        2 0.16578353E+00 0.84560611E+03</pdfrwt>
<pdfrwt beam="2">  1       -2 0.12793472E+00 0.84560611E+03</pdfrwt>
<totfact> 0.10247203E+01</totfact>
</mgrwt>
</event>
<event>
 4    1  0.8645356E-007  0.6864287E+03  0.7818608E-02  0.1005898E+00
         -2   -1    0    0    0  501 -0.00000000000E+00  0.00000000000E+00  0.47375399231E+03  0.47375399232E+03  0.25500000000E-02 0.  1.
          2   -1    0    0  501    0  0.00000000000E+00 -0.00000000000E+00 -0.10673923959E+04  0.10673923959E+04  0.25500000000E-02 0. -1.
    8880023    1    1    2    0    0 -0.77052707431E+02  0.17730485046E+03  0.19605077913E+03  0.71387691095E+03  0.65864270000E+03 0.  1.
    8880022    1    1    2    0    0  0.77052707431E+02 -0.17730485046E+03 -0.78968918274E+03  0.82726947730E+03  0.15294330000E+03 0.  0.
<mgrwt>
<rscale>  0 0.53137847E+03</rscale>
<asrwt>0</asrwt>
<pdfrwt beam="1">  1        2 0.16421421E+00 0.68642868E+03</pdfrwt>
<pdfrwt beam="2">  1       -2 0.72885230E-01 0.68642868E+03</pdfrwt>
<totfact> 0.39723687E+01</totfact>
</mgrwt>
</event>
<event>
 4    1  0.8645356E-007  0.8672204E+03  0.7818608E-02  0.9580847E-01
         -2   -1    0    0    0  501 -0.00000000000E+00  0.00000000000E+00  0.38477982012E+03  0.38477982013E+03  0.25500000000E-02 0.  1.
          2   -1    0    0  501    0  0.00000000000E+00 -0.00000000000E+00 -0.20774332487E+04  0.20774332487E+04  0.25500000000E-02 0. -1.
    8880023    1    1    2    0    0  0.56412506720E+03  0.48826735491E+01 -0.24523369428E+03  0.90122733149E+03  0.65864270000E+03 0.  1.
    8880022    1    1    2    0    0 -0.56412506720E+03 -0.48826735491E+01 -0.14474197342E+04  0.15609857373E+04  0.15294330000E+03 0.  0.
<mgrwt>
<rscale>  0 0.78576953E+03</rscale>
<asrwt>0</asrwt>
<pdfrwt beam="1">  1        2 0.31960511E+00 0.86722035E+03</pdfrwt>
<pdfrwt beam="2">  1       -2 0.59196897E-01 0.86722035E+03</pdfrwt>
<totfact> 0.16444080E+01</totfact>
</mgrwt>
</event>
<event>
 4    1  0.8645356E-007  0.1056922E+04  0.7818608E-02  0.9310607E-01
          2   -1    0    0  501    0  0.00000000000E+00  0.00000000000E+00  0.64996794835E+03  0.64996794836E+03  0.25500000000E-02 0. -1.
         -2   -1    0    0    0  501 -0.00000000000E+00 -0.00000000000E+00 -0.17078206434E+04  0.17078206434E+04  0.25500000000E-02 0.  1.
    8880023    1    1    2    0    0  0.80407754711E+03  0.19165635285E+03 -0.10876905838E+04  0.15166258180E+04  0.65864270000E+03 0.  1.
    8880022    1    1    2    0    0 -0.80407754711E+03 -0.19165635285E+03  0.29837888792E+02  0.84116277377E+03  0.15294330000E+03 0.  0.
<mgrwt>
<rscale>  0 0.99812219E+03</rscale>
<asrwt>0</asrwt>
<pdfrwt beam="1">  1        2 0.99995069E-01 0.10569215E+04</pdfrwt>
<pdfrwt beam="2">  1       -2 0.26274164E+00 0.10569215E+04</pdfrwt>
<totfact> 0.23991057E+00</totfact>
</mgrwt>
</event>
<event>
 4    1  0.8645356E-007  0.8721914E+03  0.7818608E-02  0.9572235E-01
          2   -1    0    0  501    0  0.00000000000E+00  0.00000000000E+00  0.13592707548E+04  0.13592707548E+04  0.25500000000E-02 0. -1.
         -2   -1    0    0    0  501 -0.00000000000E+00 -0.00000000000E+00 -0.42123335476E+03  0.42123335477E+03  0.25500000000E-02 0.  1.
    8880023    1    1    2    0    0 -0.47168711678E+03  0.32313905532E+03  0.33155497788E+03  0.93308439856E+03  0.65864270000E+03 0.  0.
    8880022    1    1    2    0    0  0.47168711678E+03 -0.32313905532E+03  0.60648242217E+03  0.84741971102E+03  0.15294330000E+03 0.  0.
<mgrwt>
<rscale>  0 0.79161450E+03</rscale>
<asrwt>0</asrwt>
<pdfrwt beam="1">  1        2 0.20911858E+00 0.87219137E+03</pdfrwt>
<pdfrwt beam="2">  1       -2 0.64805130E-01 0.87219137E+03</pdfrwt>
<totfact> 0.33841585E+01</totfact>
</mgrwt>
</event>
<event>
 4    1  0.8645356E-007  0.8852978E+03  0.7818608E-02  0.9550058E-01
         -2   -1    0    0    0  501 -0.00000000000E+00  0.00000000000E+00  0.13049179800E+04  0.13049179800E+04  0.25500000000E-02 0.  1.
          2   -1    0    0  501    0  0.00000000000E+00 -0.00000000000E+00 -0.10225676466E+04  0.10225676466E+04  0.25500000000E-02 0. -1.
    8880023    1    1    2    0    0 -0.45275428335E+03  0.38073025190E+03  0.10324400614E+04  0.13600311218E+04  0.65864270000E+03 0.  0.
    8880022    1    1    2    0    0  0.45275428335E+03 -0.38073025190E+03 -0.75008972798E+03  0.96745450479E+03  0.15294330000E+03 0. -1.
<mgrwt>
<rscale>  0 0.80691757E+03</rscale>
<asrwt>0</asrwt>
<pdfrwt beam="1">  1        2 0.15731810E+00 0.88529779E+03</pdfrwt>
<pdfrwt beam="2">  1       -2 0.20075661E+00 0.88529779E+03</pdfrwt>
<totfact> 0.32219337E+00</totfact>
</mgrwt>
</event>
<event>
 4    1  0.8645356E-007  0.7062213E+03  0.7818608E-02  0.9972310E-01
          2   -1    0    0  501    0  0.00000000000E+00  0.00000000000E+00  0.25894440389E+04  0.25894440389E+04  0.25500000000E-02 0. -1.
         -2   -1    0    0    0  501 -0.00000000000E+00 -0.00000000000E+00 -0.97554007039E+02  0.97554007072E+02  0.25500000000E-02 0.  1.
    8880023    1    1    2    0    0  0.14981250375E+03 -0.20614204241E+03  0.16789590585E+04  0.18214423005E+04  0.65864270000E+03 0.  1.
    8880022    1    1    2    0    0 -0.14981250375E+03  0.20614204241E+03  0.81293097337E+03  0.86555574541E+03  0.15294330000E+03 0. -1.
<mgrwt>
<rscale>  0 0.56881250E+03</rscale>
<asrwt>0</asrwt>
<pdfrwt beam="1">  1        2 0.39837600E+00 0.70622131E+03</pdfrwt>
<pdfrwt beam="2">  1       -2 0.15008309E-01 0.70622131E+03</pdfrwt>
<totfact> 0.11305029E+02</totfact>
</mgrwt>
</event>
<event>
 4    1  0.8645356E-007  0.9412046E+03  0.7818608E-02  0.9462883E-01
          2   -1    0    0  501    0  0.00000000000E+00  0.00000000000E+00  0.19749878677E+04  0.19749878677E+04  0.25500000000E-02 0. -1.
         -2   -1    0    0    0  501 -0.00000000000E+00 -0.00000000000E+00 -0.99327395831E+03  0.99327395831E+03  0.25500000000E-02 0.  1.
    8880023    1    1    2    0    0 -0.66146920487E+03 -0.12047572284E+03 -0.68530702188E+03  0.11642645014E+04  0.65864270000E+03 0.  1.
    8880022    1    1    2    0    0  0.66146920487E+03  0.12047572284E+03  0.16670209313E+04  0.18039973246E+04  0.15294330000E+03 0.  0.
<mgrwt>
<rscale>  0 0.87076479E+03</rscale>
<asrwt>0</asrwt>
<pdfrwt beam="1">  1        2 0.30384428E+00 0.94120461E+03</pdfrwt>
<pdfrwt beam="2">  1       -2 0.15281138E+00 0.94120461E+03</pdfrwt>
<totfact> 0.19784343E+00</totfact>
</mgrwt>
</event>
<event>
 4    1  0.8645356E-007  0.7817310E+03  0.7818608E-02  0.9751786E-01
         -2   -1    0    0    0  501 -0.00000000000E+00  0.00000000000E+00  0.29635767792E+03  0.29635767793E+03  0.25500000000E-02 0.  1.
          2   -1    0    0  501    0  0.00000000000E+00 -0.00000000000E+00 -0.27704204050E+04  0.27704204050E+04  0.25500000000E-02 0. -1.
    8880023    1    1    2    0    0  0.19812441865E+03 -0.37153713966E+03 -0.28455332857E+03  0.83190981150E+03  0.65864270000E+03 0.  1.
    8880022    1    1    2    0    0 -0.19812441865E+03  0.37153713966E+03 -0.21895093985E+04  0.22348682714E+04  0.15294330000E+03 0.  0.
<mgrwt>
<rscale>  0 0.68015407E+03</rscale>
<asrwt>0</asrwt>
<pdfrwt beam="1">  1        2 0.42621851E+00 0.78173099E+03</pdfrwt>
<pdfrwt beam="2">  1       -2 0.45593491E-01 0.78173099E+03</pdfrwt>
<totfact> 0.11542631E+01</totfact>
</mgrwt>
</event>
<event>
 4    1  0.8645356E-007  0.1037772E+04  0.7818608E-02  0.9333728E-01
         -2   -1    0    0    0  501 -0.00000000000E+00  0.00000000000E+00  0.53749500073E+03  0.53749500074E+03  0.25500000000E-02 0.  1.
          2   -1    0    0  501    0  0.00000000000E+00 -0.00000000000E+00 -0.18956896539E+04  0.18956896539E+04  0.25500000000E-02 0. -1.
    8880023    1    1    2    0    0 -0.56276269084E+03 -0.57136484183E+03 -0.12257902711E+04  0.16060920346E+04  0.65864270000E+03 0.  0.
    8880022    1    1    2    0    0  0.56276269084E+03  0.57136484183E+03 -0.13240438208E+03  0.82709262002E+03  0.15294330000E+03 0.  0.
<mgrwt>
<rscale>  0 0.97736217E+03</rscale>
<asrwt>0</asrwt>
<pdfrwt beam="1">  1        2 0.29164456E+00 0.10377716E+04</pdfrwt>
<pdfrwt beam="2">  1       -2 0.82691540E-01 0.10377716E+04</pdfrwt>
<totfact> 0.97600744E+00</totfact>
</mgrwt>
</event>
<event>
 4    1  0.8645356E-007  0.7490642E+03  0.7818608E-02  0.9834289E-01
          2   -1    0    0  501    0  0.00000000000E+00  0.00000000000E+00  0.66014546015E+03  0.66014546015E+03  0.25500000000E-02 0. -1.
         -2   -1    0    0    0  501 -0.00000000000E+00 -0.00000000000E+00 -0.68377184774E+03  0.68377184775E+03  0.25500000000E-02 0.  1.
    8880023    1    1    2    0    0 -0.23976603897E+03 -0.26419554622E+03 -0.35926006111E+03  0.83076172146E+03  0.65864270000E+03 0.  1.
    8880022    1    1    2    0    0  0.23976603897E+03  0.26419554622E+03  0.33563367351E+03  0.51315558644E+03  0.15294330000E+03 0.  0.
<mgrwt>
<rscale>  0 0.63554423E+03</rscale>
<asrwt>0</asrwt>
<pdfrwt beam="1">  1        2 0.10156084E+00 0.74906425E+03</pdfrwt>
<pdfrwt beam="2">  1       -2 0.10519567E+00 0.74906425E+03</pdfrwt>
<totfact> 0.32700748E+01</totfact>
</mgrwt>
</event>
<event>
 4    1  0.8645356E-007  0.6933413E+03  0.7818608E-02  0.1002603E+00
         -2   -1    0    0    0  501 -0.00000000000E+00  0.00000000000E+00  0.21013234108E+03  0.21013234109E+03  0.25500000000E-02 0.  1.
          2   -1    0    0  501    0  0.00000000000E+00 -0.00000000000E+00 -0.24339163336E+04  0.24339163336E+04  0.25500000000E-02 0. -1.
    8880023    1    1    2    0    0  0.85130895126E+02  0.19915980091E+03 -0.39869481397E+03  0.79979976029E+03  0.65864270000E+03 0.  1.
    8880022    1    1    2    0    0 -0.85130895126E+02 -0.19915980091E+03 -0.18250891786E+04  0.18442489144E+04  0.15294330000E+03 0.  0.
<mgrwt>
<rscale>  0 0.54523338E+03</rscale>
<asrwt>0</asrwt>
<pdfrwt beam="1">  1        2 0.37444865E+00 0.69334126E+03</pdfrwt>
<pdfrwt beam="2">  1       -2 0.32328054E-01 0.69334126E+03</pdfrwt>
<totfact> 0.35543167E+01</totfact>
</mgrwt>
</event>
<event>
 4    1  0.8645356E-007  0.9205569E+03  0.7818608E-02  0.9493806E-01
          2   -1    0    0  501    0  0.00000000000E+00  0.00000000000E+00  0.17167267123E+04  0.17167267123E+04  0.25500000000E-02 0. -1.
         -2   -1    0    0    0  501 -0.00000000000E+00 -0.00000000000E+00 -0.91681766824E+03  0.91681766824E+03  0.25500000000E-02 0.  1.
    8880023    1    1    2    0    0 -0.61986535410E+03  0.17141122025E+03 -0.59071771269E+03  0.10937881358E+04  0.65864270000E+03 0.  0.
    8880022    1    1    2    0    0  0.61986535410E+03 -0.17141122025E+03  0.13906267567E+04  0.15397562447E+04  0.15294330000E+03 0.  0.
<mgrwt>
<rscale>  0 0.84742053E+03</rscale>
<asrwt>0</asrwt>
<pdfrwt beam="1">  1        2 0.26411180E+00 0.92055693E+03</pdfrwt>
<pdfrwt beam="2">  1       -2 0.14104887E+00 0.92055693E+03</pdfrwt>
<totfact> 0.33976811E+00</totfact>
</mgrwt>
</event>
<event>
 4    1  0.8645356E-007  0.7313569E+03  0.7818608E-02  0.9885879E-01
         -2   -1    0    0    0  501 -0.00000000000E+00  0.00000000000E+00  0.51812388895E+03  0.51812388896E+03  0.25500000000E-02 0.  1.
          2   -1    0    0  501    0  0.00000000000E+00 -0.00000000000E+00 -0.15631303472E+04  0.15631303472E+04  0.25500000000E-02 0. -1.
    8880023    1    1    2    0    0  0.16547600664E+03 -0.27145962362E+03  0.22338607605E+03  0.76471182890E+03  0.65864270000E+03 0.  1.
    8880022    1    1    2    0    0 -0.16547600664E+03  0.27145962362E+03 -0.12683925342E+04  0.13165424072E+04  0.15294330000E+03 0.  0.
<mgrwt>
<rscale>  0 0.60950545E+03</rscale>
<asrwt>0</asrwt>
<pdfrwt beam="1">  1        2 0.24048159E+00 0.73135685E+03</pdfrwt>
<pdfrwt beam="2">  1       -2 0.79711368E-01 0.73135685E+03</pdfrwt>
<totfact> 0.16752283E+01</totfact>
</mgrwt>
</event>
<event>
 4    1  0.8645356E-007  0.7965690E+03  0.7818608E-02  0.9718264E-01
         -2   -1    0    0    0  501 -0.00000000000E+00  0.00000000000E+00  0.16927584327E+04  0.16927584327E+04  0.25500000000E-02 0.  1.
          2   -1    0    0  501    0  0.00000000000E+00 -0.00000000000E+00 -0.26690464331E+03  0.26690464332E+03  0.25500000000E-02 0. -1.
    8880023    1    1    2    0    0 -0.41277226521E+02  0.44610330643E+03  0.11867773939E+04  0.14293224823E+04  0.65864270000E+03 0.  1.
    8880022    1    1    2    0    0  0.41277226521E+02 -0.44610330643E+03  0.23907639542E+03  0.53034059368E+03  0.15294330000E+03 0.  0.
<mgrwt>
<rscale>  0 0.69939683E+03</rscale>
<asrwt>0</asrwt>
<pdfrwt beam="1">  1        2 0.41062254E-01 0.79656900E+03</pdfrwt>
<pdfrwt beam="2">  1       -2 0.26042437E+00 0.79656900E+03</pdfrwt>
<totfact> 0.71036321E+00</totfact>
</mgrwt>
</event>
<event>
 4    1  0.8645356E-007  0.7622539E+03  0.7818608E-02  0.9799307E-01
          2   -1    0    0  501    0  0.00000000000E+00  0.00000000000E+00  0.27631455989E+04  0.27631455989E+04  0.25500000000E-02 0. -1.
         -2   -1    0    0    0  501 -0.00000000000E+00 -0.00000000000E+00 -0.25609068488E+03  0.25609068490E+03  0.25500000000E-02 0.  1.
    8880023    1    1    2    0    0  0.35913829617E+03  0.13505762456E+03  0.37864828034E+03  0.85112020549E+03  0.65864270000E+03 0.  0.
    8880022    1    1    2    0    0 -0.35913829617E+03 -0.13505762456E+03  0.21284066337E+04  0.21681160783E+04  0.15294330000E+03 0.  0.
<mgrwt>
<rscale>  0 0.65399756E+03</rscale>
<asrwt>0</asrwt>
<pdfrwt beam="1">  1        2 0.42509934E+00 0.76225395E+03</pdfrwt>
<pdfrwt beam="2">  1       -2 0.39398565E-01 0.76225395E+03</pdfrwt>
<totfact> 0.15597475E+01</totfact>
</mgrwt>
</event>
<event>
 4    1  0.8645356E-007  0.6751690E+03  0.7818608E-02  0.1012200E+00
          2   -1    0    0  501    0  0.00000000000E+00  0.00000000000E+00  0.91234947071E+03  0.91234947071E+03  0.25500000000E-02 0. -1.
         -2   -1    0    0    0  501 -0.00000000000E+00 -0.00000000000E+00 -0.30611400195E+03  0.30611400196E+03  0.25500000000E-02 0.  1.
    8880023    1    1    2    0    0  0.28886302212E+02  0.14563160898E+03  0.11756528671E+03  0.68532823296E+03  0.65864270000E+03 0.  1.
    8880022    1    1    2    0    0 -0.28886302212E+02 -0.14563160898E+03  0.48867018204E+03  0.53313523971E+03  0.15294330000E+03 0.  0.
<mgrwt>
<rscale>  0 0.50609583E+03</rscale>
<asrwt>0</asrwt>
<pdfrwt beam="1">  1        2 0.14036145E+00 0.67516901E+03</pdfrwt>
<pdfrwt beam="2">  1       -2 0.47094463E-01 0.67516901E+03</pdfrwt>
<totfact> 0.12506179E+02</totfact>
</mgrwt>
</event>
<event>
 4    1  0.8645356E-007  0.6676025E+03  0.7818608E-02  0.1017443E+00
         -2   -1    0    0    0  501 -0.00000000000E+00  0.00000000000E+00  0.44529221394E+03  0.44529221395E+03  0.25500000000E-02 0.  1.
          2   -1    0    0  501    0  0.00000000000E+00 -0.00000000000E+00 -0.14887230035E+04  0.14887230035E+04  0.25500000000E-02 0. -1.
    8880023    1    1    2    0    0  0.68056859558E+02  0.85153799900E+02  0.18384327672E+03  0.69245322039E+03  0.65864270000E+03 0.  0.
    8880022    1    1    2    0    0 -0.68056859558E+02 -0.85153799900E+02 -0.12272740662E+04  0.12415619970E+04  0.15294330000E+03 0. -1.
<mgrwt>
<rscale>  0 0.48620696E+03</rscale>
<asrwt>0</asrwt>
<pdfrwt beam="1">  1        2 0.22903431E+00 0.66760251E+03</pdfrwt>
<pdfrwt beam="2">  1       -2 0.68506495E-01 0.66760251E+03</pdfrwt>
<totfact> 0.25951141E+01</totfact>
</mgrwt>
</event>
<event>
 4    1  0.8645356E-007  0.9361790E+03  0.7818608E-02  0.9470285E-01
         -2   -1    0    0    0  501 -0.00000000000E+00  0.00000000000E+00  0.57915243346E+03  0.57915243347E+03  0.25500000000E-02 0.  1.
          2   -1    0    0  501    0  0.00000000000E+00 -0.00000000000E+00 -0.12071363856E+04  0.12071363856E+04  0.25500000000E-02 0. -1.
    8880023    1    1    2    0    0  0.37709026662E+03  0.54810942131E+03 -0.13869265025E+03  0.94639677958E+03  0.65864270000E+03 0.  1.
    8880022    1    1    2    0    0 -0.37709026662E+03 -0.54810942131E+03 -0.48929130191E+03  0.83989203952E+03  0.15294330000E+03 0. -1.
<mgrwt>
<rscale>  0 0.86510516E+03</rscale>
<asrwt>0</asrwt>
<pdfrwt beam="1">  1        2 0.18571329E+00 0.93617905E+03</pdfrwt>
<pdfrwt beam="2">  1       -2 0.89100375E-01 0.93617905E+03</pdfrwt>
<totfact> 0.20296395E+01</totfact>
</mgrwt>
</event>
<event>
 4    1  0.8645356E-007  0.6756750E+03  0.7818608E-02  0.1011884E+00
         -2   -1    0    0    0  501 -0.00000000000E+00  0.00000000000E+00  0.32921082339E+03  0.32921082340E+03  0.25500000000E-02 0.  1.
          2   -1    0    0  501    0  0.00000000000E+00 -0.00000000000E+00 -0.28926851708E+04  0.28926851708E+04  0.25500000000E-02 0. -1.
    8880023    1    1    2    0    0 -0.15063860074E+03 -0.58711212956E+01 -0.26861303649E+02  0.67620869116E+03  0.65864270000E+03 0.  1.
    8880022    1    1    2    0    0  0.15063860074E+03  0.58711212956E+01 -0.25366130438E+04  0.25456873030E+04  0.15294330000E+03 0.  0.
<mgrwt>
<rscale>  0 0.50732622E+03</rscale>
<asrwt>0</asrwt>
<pdfrwt beam="1">  1        2 0.44502847E+00 0.67567497E+03</pdfrwt>
<pdfrwt beam="2">  1       -2 0.50647821E-01 0.67567497E+03</pdfrwt>
<totfact> 0.80526357E+00</totfact>
</mgrwt>
</event>
<event>
 4    1  0.8645356E-007  0.6926302E+03  0.7818608E-02  0.1002927E+00
          2   -1    0    0  501    0  0.00000000000E+00  0.00000000000E+00  0.29909932668E+04  0.29909932668E+04  0.25500000000E-02 0. -1.
         -2   -1    0    0    0  501 -0.00000000000E+00 -0.00000000000E+00 -0.95498997925E+02  0.95498997959E+02  0.25500000000E-02 0.  1.
    8880023    1    1    2    0    0  0.18542306283E+03 -0.10744632565E+03  0.13353900557E+04  0.15043281664E+04  0.65864270000E+03 0.  0.
    8880022    1    1    2    0    0 -0.18542306283E+03  0.10744632565E+03  0.15601042132E+04  0.15821640984E+04  0.15294330000E+03 0.  0.
<mgrwt>
<rscale>  0 0.54385346E+03</rscale>
<asrwt>0</asrwt>
<pdfrwt beam="1">  1        2 0.46015288E+00 0.69263023E+03</pdfrwt>
<pdfrwt beam="2">  1       -2 0.14692151E-01 0.69263023E+03</pdfrwt>
<totfact> 0.68069580E+01</totfact>
</mgrwt>
</event>
<event>
 4    1  0.8645356E-007  0.9812283E+03  0.7818608E-02  0.9406539E-01
          2   -1    0    0  501    0  0.00000000000E+00  0.00000000000E+00  0.13844716737E+04  0.13844716737E+04  0.25500000000E-02 0. -1.
         -2   -1    0    0    0  501 -0.00000000000E+00 -0.00000000000E+00 -0.88952690305E+03  0.88952690305E+03  0.25500000000E-02 0.  1.
    8880023    1    1    2    0    0  0.14590021320E+03 -0.71253906276E+03 -0.44357406521E+03  0.10768319023E+04  0.65864270000E+03 0. -1.
    8880022    1    1    2    0    0 -0.14590021320E+03  0.71253906276E+03  0.93851883581E+03  0.11971666744E+04  0.15294330000E+03 0.  0.
<mgrwt>
<rscale>  0 0.91539455E+03</rscale>
<asrwt>0</asrwt>
<pdfrwt beam="1">  1        2 0.21299564E+00 0.98122831E+03</pdfrwt>
<pdfrwt beam="2">  1       -2 0.13685029E+00 0.98122831E+03</pdfrwt>
<totfact> 0.55962223E+00</totfact>
</mgrwt>
</event>
<event>
 4    1  0.8645356E-007  0.7533383E+03  0.7818608E-02  0.9822669E-01
          2   -1    0    0  501    0  0.00000000000E+00  0.00000000000E+00  0.18232507416E+04  0.18232507416E+04  0.25500000000E-02 0. -1.
         -2   -1    0    0    0  501 -0.00000000000E+00 -0.00000000000E+00 -0.35168649026E+03  0.35168649027E+03  0.25500000000E-02 0.  1.
    8880023    1    1    2    0    0 -0.36336004093E+03  0.40962453634E+02  0.11550750708E+03  0.76214213399E+03  0.65864270000E+03 0.  1.
    8880022    1    1    2    0    0  0.36336004093E+03 -0.40962453634E+02  0.13560567443E+04  0.14127950979E+04  0.15294330000E+03 0.  0.
<mgrwt>
<rscale>  0 0.64160037E+03</rscale>
<asrwt>0</asrwt>
<pdfrwt beam="1">  1        2 0.28050012E+00 0.75333834E+03</pdfrwt>
<pdfrwt beam="2">  1       -2 0.54105613E-01 0.75333834E+03</pdfrwt>
<totfact> 0.27722582E+01</totfact>
</mgrwt>
</event>
<event>
 4    1  0.8645356E-007  0.8853281E+03  0.7818608E-02  0.9550007E-01
         -2   -1    0    0    0  501 -0.00000000000E+00  0.00000000000E+00  0.11593522447E+04  0.11593522447E+04  0.25500000000E-02 0.  1.
          2   -1    0    0  501    0  0.00000000000E+00 -0.00000000000E+00 -0.80174096482E+03  0.80174096483E+03  0.25500000000E-02 0. -1.
    8880023    1    1    2    0    0  0.30297062375E+03 -0.50813819497E+03  0.81066208940E+03  0.12004077863E+04  0.65864270000E+03 0.  0.
    8880022    1    1    2    0    0 -0.30297062375E+03  0.50813819497E+03 -0.45305080951E+03  0.76068542320E+03  0.15294330000E+03 0.  0.
<mgrwt>
<rscale>  0 0.80695278E+03</rscale>
<asrwt>0</asrwt>
<pdfrwt beam="1">  1        2 0.12334476E+00 0.88532809E+03</pdfrwt>
<pdfrwt beam="2">  1       -2 0.17836188E+00 0.88532809E+03</pdfrwt>
<totfact> 0.64137768E+00</totfact>
</mgrwt>
</event>
<event>
 4    1  0.8645356E-007  0.7026018E+03  0.7818608E-02  0.9986574E-01
         -2   -1    0    0    0  501 -0.00000000000E+00  0.00000000000E+00  0.11278569642E+04  0.11278569642E+04  0.25500000000E-02 0.  1.
          2   -1    0    0  501    0  0.00000000000E+00 -0.00000000000E+00 -0.59512093682E+03  0.59512093682E+03  0.25500000000E-02 0. -1.
    8880023    1    1    2    0    0  0.23732831336E+03 -0.59282266754E+02  0.97084500783E+03  0.11984111778E+04  0.65864270000E+03 0.  1.
    8880022    1    1    2    0    0 -0.23732831336E+03  0.59282266754E+02 -0.43810898041E+03  0.52456672331E+03  0.15294330000E+03 0.  0.
<mgrwt>
<rscale>  0 0.56242866E+03</rscale>
<asrwt>0</asrwt>
<pdfrwt beam="1">  1        2 0.91557069E-01 0.70260182E+03</pdfrwt>
<pdfrwt beam="2">  1       -2 0.17351645E+00 0.70260182E+03</pdfrwt>
<totfact> 0.10301505E+01</totfact>
</mgrwt>
</event>
<event>
 4    1  0.8645356E-007  0.1025870E+04  0.7818608E-02  0.9348468E-01
         -2   -1    0    0    0  501 -0.00000000000E+00  0.00000000000E+00  0.10499481310E+04  0.10499481310E+04  0.25500000000E-02 0.  1.
          2   -1    0    0  501    0  0.00000000000E+00 -0.00000000000E+00 -0.92808540677E+03  0.92808540678E+03  0.25500000000E-02 0. -1.
    8880023    1    1    2    0    0  0.72491492990E+03  0.30511768660E+03  0.43959971376E+03  0.11160898588E+04  0.65864270000E+03 0.  0.
    8880022    1    1    2    0    0 -0.72491492990E+03 -0.30511768660E+03 -0.31773698952E+03  0.86194367901E+03  0.15294330000E+03 0.  0.
<mgrwt>
<rscale>  0 0.96440665E+03</rscale>
<asrwt>0</asrwt>
<pdfrwt beam="1">  1        2 0.14278237E+00 0.10258697E+04</pdfrwt>
<pdfrwt beam="2">  1       -2 0.16153048E+00 0.10258697E+04</pdfrwt>
<totfact> 0.68138127E+00</totfact>
</mgrwt>
</event>
<event>
 4    1  0.8645356E-007  0.1014609E+04  0.7818608E-02  0.9362690E-01
          2   -1    0    0  501    0  0.00000000000E+00  0.00000000000E+00  0.13148916273E+04  0.13148916273E+04  0.25500000000E-02 0. -1.
         -2   -1    0    0    0  501 -0.00000000000E+00 -0.00000000000E+00 -0.86858571531E+03  0.86858571532E+03  0.25500000000E-02 0.  1.
    8880023    1    1    2    0    0  0.74779513441E+03  0.19084777829E+03  0.82745616815E+03  0.13092419005E+04  0.65864270000E+03 0.  0.
    8880022    1    1    2    0    0 -0.74779513441E+03 -0.19084777829E+03 -0.38115025614E+03  0.87423544214E+03  0.15294330000E+03 0.  0.
<mgrwt>
<rscale>  0 0.95210819E+03</rscale>
<asrwt>0</asrwt>
<pdfrwt beam="1">  1        2 0.20229102E+00 0.10146086E+04</pdfrwt>
<pdfrwt beam="2">  1       -2 0.13362857E+00 0.10146086E+04</pdfrwt>
<totfact> 0.65013830E+00</totfact>
</mgrwt>
</event>
<event>
 4    1  0.8645356E-007  0.7060502E+03  0.7818608E-02  0.9972972E-01
          2   -1    0    0  501    0  0.00000000000E+00  0.00000000000E+00  0.27211212947E+04  0.27211212947E+04  0.25500000000E-02 0. -1.
         -2   -1    0    0    0  501 -0.00000000000E+00 -0.00000000000E+00 -0.11226003302E+03  0.11226003305E+03  0.25500000000E-02 0.  1.
    8880023    1    1    2    0    0 -0.25053470996E+03 -0.43920057409E+02  0.22961321011E+04  0.24022342610E+04  0.65864270000E+03 0.  1.
    8880022    1    1    2    0    0  0.25053470996E+03  0.43920057409E+02  0.31272916050E+03  0.43114706677E+03  0.15294330000E+03 0.  0.
<mgrwt>
<rscale>  0 0.56851434E+03</rscale>
<asrwt>0</asrwt>
<pdfrwt beam="1">  1        2 0.41863399E+00 0.70605015E+03</pdfrwt>
<pdfrwt beam="2">  1       -2 0.17270777E-01 0.70605015E+03</pdfrwt>
<totfact> 0.74712483E+01</totfact>
</mgrwt>
</event>
<event>
 4    1  0.8645356E-007  0.6666060E+03  0.7818608E-02  0.1018222E+00
         -2   -1    0    0    0  501 -0.00000000000E+00  0.00000000000E+00  0.35730084769E+03  0.35730084770E+03  0.25500000000E-02 0.  1.
          2   -1    0    0  501    0  0.00000000000E+00 -0.00000000000E+00 -0.31031685479E+04  0.31031685479E+04  0.25500000000E-02 0. -1.
    8880023    1    1    2    0    0 -0.17201641248E+02 -0.10127885272E+03  0.40671883735E+02  0.66784557411E+03  0.65864270000E+03 0.  1.
    8880022    1    1    2    0    0  0.17201641248E+02  0.10127885272E+03 -0.27865395840E+04  0.27926238215E+04  0.15294330000E+03 0.  0.
<mgrwt>
<rscale>  0 0.48333562E+03</rscale>
<asrwt>0</asrwt>
<pdfrwt beam="1">  1        2 0.47741053E+00 0.66660596E+03</pdfrwt>
<pdfrwt beam="2">  1       -2 0.54969363E-01 0.66660596E+03</pdfrwt>
<totfact> 0.50743249E+00</totfact>
</mgrwt>
</event>
<event>
 4    1  0.8645356E-007  0.7233209E+03  0.7818608E-02  0.9911505E-01
          2   -1    0    0  501    0  0.00000000000E+00  0.00000000000E+00  0.13842064430E+04  0.13842064430E+04  0.25500000000E-02 0. -1.
         -2   -1    0    0    0  501 -0.00000000000E+00 -0.00000000000E+00 -0.25741698854E+03  0.25741698855E+03  0.25500000000E-02 0.  1.
    8880023    1    1    2    0    0 -0.58114280574E+02 -0.29326715071E+03  0.36737040438E+03  0.81126697922E+03  0.65864270000E+03 0.  1.
    8880022    1    1    2    0    0  0.58114280574E+02  0.29326715071E+03  0.75941905004E+03  0.83035645230E+03  0.15294330000E+03 0.  0.
<mgrwt>
<rscale>  0 0.59706916E+03</rscale>
<asrwt>0</asrwt>
<pdfrwt beam="1">  1        2 0.21295484E+00 0.72332088E+03</pdfrwt>
<pdfrwt beam="2">  1       -2 0.39602614E-01 0.72332088E+03</pdfrwt>
<totfact> 0.90887132E+01</totfact>
</mgrwt>
</event>
<event>
 4    1  0.8645356E-007  0.7098689E+03  0.7818608E-02  0.9958488E-01
          2   -1    0    0  501    0  0.00000000000E+00  0.00000000000E+00  0.17174801346E+04  0.17174801346E+04  0.25500000000E-02 0. -1.
         -2   -1    0    0    0  501 -0.00000000000E+00 -0.00000000000E+00 -0.26138439663E+03  0.26138439664E+03  0.25500000000E-02 0.  1.
    8880023    1    1    2    0    0  0.28392860273E+02  0.26324410274E+03  0.27904293983E+03  0.76274424329E+03  0.65864270000E+03 0.  1.
    8880022    1    1    2    0    0 -0.28392860273E+02 -0.26324410274E+03  0.11770527982E+04  0.12161202880E+04  0.15294330000E+03 0.  0.
<mgrwt>
<rscale>  0 0.57508535E+03</rscale>
<asrwt>0</asrwt>
<pdfrwt beam="1">  1        2 0.26422772E+00 0.70986887E+03</pdfrwt>
<pdfrwt beam="2">  1       -2 0.40212984E-01 0.70986887E+03</pdfrwt>
<totfact> 0.57751105E+01</totfact>
</mgrwt>
</event>
<event>
 4    1  0.8645356E-007  0.6959317E+03  0.7818608E-02  0.1001452E+00
          2   -1    0    0  501    0  0.00000000000E+00  0.00000000000E+00  0.53799884040E+03  0.53799884041E+03  0.25500000000E-02 0. -1.
         -2   -1    0    0    0  501 -0.00000000000E+00 -0.00000000000E+00 -0.68889026042E+03  0.68889026042E+03  0.25500000000E-02 0.  1.
    8880023    1    1    2    0    0 -0.21515646070E+03  0.64949161880E+02 -0.44527042871E+03  0.82618802773E+03  0.65864270000E+03 0.  0.
    8880022    1    1    2    0    0  0.21515646070E+03 -0.64949161880E+02  0.29437900869E+03  0.40070107310E+03  0.15294330000E+03 0.  0.
<mgrwt>
<rscale>  0 0.55018309E+03</rscale>
<asrwt>0</asrwt>
<pdfrwt beam="1">  1        2 0.82769052E-01 0.69593168E+03</pdfrwt>
<pdfrwt beam="2">  1       -2 0.10598312E+00 0.69593168E+03</pdfrwt>
<totfact> 0.41277615E+01</totfact>
</mgrwt>
</event>
<event>
 4    1  0.8645356E-007  0.6621630E+03  0.7818608E-02  0.1022042E+00
         -2   -1    0    0    0  501 -0.00000000000E+00  0.00000000000E+00  0.24549001963E+04  0.24549001963E+04  0.25500000000E-02 0.  1.
          2   -1    0    0  501    0  0.00000000000E+00 -0.00000000000E+00 -0.45271623595E+03  0.45271623596E+03  0.25500000000E-02 0. -1.
    8880023    1    1    2    0    0 -0.45787659988E+02 -0.50528654999E+02  0.23927410655E+04  0.24826738947E+04  0.65864270000E+03 0.  1.
    8880022    1    1    2    0    0  0.45787659988E+02  0.50528654999E+02 -0.39055710517E+03  0.42494253752E+03  0.15294330000E+03 0.  0.
<mgrwt>
<rscale>  0 0.46956798E+03</rscale>
<asrwt>0</asrwt>
<pdfrwt beam="1">  1        2 0.69648654E-01 0.66216302E+03</pdfrwt>
<pdfrwt beam="2">  1       -2 0.37767694E+00 0.66216302E+03</pdfrwt>
<totfact> 0.77176940E-01</totfact>
</mgrwt>
</event>
<event>
 4    1  0.8645356E-007  0.1268569E+04  0.7818608E-02  0.9093189E-01
          2   -1    0    0  501    0  0.00000000000E+00  0.00000000000E+00  0.18189774405E+04  0.18189774405E+04  0.25500000000E-02 0. -1.
         -2   -1    0    0    0  501 -0.00000000000E+00 -0.00000000000E+00 -0.10825311266E+04  0.10825311266E+04  0.25500000000E-02 0.  1.
    8880023    1    1    2    0    0  0.23652515000E+03  0.10580698698E+04 -0.39340023801E+03  0.13281678921E+04  0.65864270000E+03 0.  0.
    8880022    1    1    2    0    0 -0.23652515000E+03 -0.10580698698E+04  0.11298465519E+04  0.15733406751E+04  0.15294330000E+03 0.  0.
<mgrwt>
<rscale>  0 0.12227311E+04</rscale>
<asrwt>0</asrwt>
<pdfrwt beam="1">  1        2 0.27984268E+00 0.12685686E+04</pdfrwt>
<pdfrwt beam="2">  1       -2 0.16654325E+00 0.12685686E+04</pdfrwt>
<totfact> 0.18323705E+00</totfact>
</mgrwt>
</event>
<event>
 4    1  0.8645356E-007  0.6848932E+03  0.7818608E-02  0.1006681E+00
         -2   -1    0    0    0  501 -0.00000000000E+00  0.00000000000E+00  0.34351389500E+03  0.34351389501E+03  0.25500000000E-02 0.  1.
          2   -1    0    0  501    0  0.00000000000E+00 -0.00000000000E+00 -0.18187630752E+04  0.18187630752E+04  0.25500000000E-02 0. -1.
    8880023    1    1    2    0    0 -0.19507024377E+02  0.18678322072E+03 -0.18095627539E+02  0.68513221610E+03  0.65864270000E+03 0.  1.
    8880022    1    1    2    0    0  0.19507024377E+02 -0.18678322072E+03 -0.14571535526E+04  0.14771447541E+04  0.15294330000E+03 0.  0.
<mgrwt>
<rscale>  0 0.52815335E+03</rscale>
<asrwt>0</asrwt>
<pdfrwt beam="1">  1        2 0.27980970E+00 0.68489320E+03</pdfrwt>
<pdfrwt beam="2">  1       -2 0.52848293E-01 0.68489320E+03</pdfrwt>
<totfact> 0.29528806E+01</totfact>
</mgrwt>
</event>
<event>
 4    1  0.8645356E-007  0.6977507E+03  0.7818608E-02  0.1000666E+00
          2   -1    0    0  501    0  0.00000000000E+00  0.00000000000E+00  0.71746851259E+03  0.71746851259E+03  0.25500000000E-02 0. -1.
         -2   -1    0    0    0  501 -0.00000000000E+00 -0.00000000000E+00 -0.12958402871E+04  0.12958402871E+04  0.25500000000E-02 0.  1.
    8880023    1    1    2    0    0 -0.47340313030E+02  0.22539916734E+03 -0.11688706609E+04  0.13612915625E+04  0.65864270000E+03 0.  1.
    8880022    1    1    2    0    0  0.47340313030E+02 -0.22539916734E+03  0.59049888635E+03  0.65201723725E+03  0.15294330000E+03 0.  0.
<mgrwt>
<rscale>  0 0.55359042E+03</rscale>
<asrwt>0</asrwt>
<pdfrwt beam="1">  1        2 0.11037977E+00 0.69775074E+03</pdfrwt>
<pdfrwt beam="2">  1       -2 0.19936004E+00 0.69775074E+03</pdfrwt>
<totfact> 0.54823819E+00</totfact>
</mgrwt>
</event>
<event>
 4    1  0.8645356E-007  0.6720635E+03  0.7818608E-02  0.1014225E+00
         -2   -1    0    0    0  501 -0.00000000000E+00  0.00000000000E+00  0.32874143866E+03  0.32874143867E+03  0.25500000000E-02 0.  1.
          2   -1    0    0  501    0  0.00000000000E+00 -0.00000000000E+00 -0.17508074606E+04  0.17508074606E+04  0.25500000000E-02 0. -1.
    8880023    1    1    2    0    0 -0.75276493955E+02  0.11041980984E+03 -0.29987490319E+02  0.67273214639E+03  0.65864270000E+03 0.  1.
    8880022    1    1    2    0    0  0.75276493955E+02 -0.11041980984E+03 -0.13920785316E+04  0.14068167529E+04  0.15294330000E+03 0.  0.
<mgrwt>
<rscale>  0 0.49829517E+03</rscale>
<asrwt>0</asrwt>
<pdfrwt beam="1">  1        2 0.26935499E+00 0.67206346E+03</pdfrwt>
<pdfrwt beam="2">  1       -2 0.50575607E-01 0.67206346E+03</pdfrwt>
<totfact> 0.35238593E+01</totfact>
</mgrwt>
</event>
<event>
 4    1  0.8645356E-007  0.7566622E+03  0.7818608E-02  0.9813827E-01
          2   -1    0    0  501    0  0.00000000000E+00  0.00000000000E+00  0.10799288217E+04  0.10799288217E+04  0.25500000000E-02 0. -1.
         -2   -1    0    0    0  501 -0.00000000000E+00 -0.00000000000E+00 -0.40185612005E+03  0.40185612006E+03  0.25500000000E-02 0.  1.
    8880023    1    1    2    0    0 -0.32520796295E+03 -0.18156896406E+03  0.80101073432E+02  0.76089019977E+03  0.65864270000E+03 0.  1.
    8880022    1    1    2    0    0  0.32520796295E+03  0.18156896406E+03  0.59797162821E+03  0.72089474199E+03  0.15294330000E+03 0.  0.
<mgrwt>
<rscale>  0 0.64625785E+03</rscale>
<asrwt>0</asrwt>
<pdfrwt beam="1">  1        2 0.16614290E+00 0.75666222E+03</pdfrwt>
<pdfrwt beam="2">  1       -2 0.61824019E-01 0.75666222E+03</pdfrwt>
<totfact> 0.55332545E+01</totfact>
</mgrwt>
</event>
<event>
 4    1  0.8645356E-007  0.8381340E+03  0.7818608E-02  0.9633709E-01
         -2   -1    0    0    0  501 -0.00000000000E+00  0.00000000000E+00  0.20849751164E+03  0.20849751166E+03  0.25500000000E-02 0.  1.
          2   -1    0    0  501    0  0.00000000000E+00 -0.00000000000E+00 -0.32647951170E+04  0.32647951170E+04  0.25500000000E-02 0. -1.
    8880023    1    1    2    0    0 -0.48031727338E+03  0.19481702093E+03 -0.81972164277E+03  0.11723532457E+04  0.65864270000E+03 0.  1.
    8880022    1    1    2    0    0  0.48031727338E+03 -0.19481702093E+03 -0.22365759626E+04  0.23009393830E+04  0.15294330000E+03 0.  0.
<mgrwt>
<rscale>  0 0.75104721E+03</rscale>
<asrwt>0</asrwt>
<pdfrwt beam="1">  1        2 0.50227613E+00 0.83813398E+03</pdfrwt>
<pdfrwt beam="2">  1       -2 0.32076543E-01 0.83813398E+03</pdfrwt>
<totfact> 0.11209756E+01</totfact>
</mgrwt>
</event>
<event>
 4    1  0.8645356E-007  0.7542101E+03  0.7818608E-02  0.9820334E-01
          2   -1    0    0  501    0  0.00000000000E+00  0.00000000000E+00  0.19514019021E+04  0.19514019021E+04  0.25500000000E-02 0. -1.
         -2   -1    0    0    0  501 -0.00000000000E+00 -0.00000000000E+00 -0.29097374680E+03  0.29097374681E+03  0.25500000000E-02 0.  1.
    8880023    1    1    2    0    0  0.45728751854E+02  0.36459770838E+03  0.27803503967E+03  0.80382603668E+03  0.65864270000E+03 0.  1.
    8880022    1    1    2    0    0 -0.45728751854E+02 -0.36459770838E+03  0.13823931156E+04  0.14385496122E+04  0.15294330000E+03 0.  0.
<mgrwt>
<rscale>  0 0.64282613E+03</rscale>
<asrwt>0</asrwt>
<pdfrwt beam="1">  1        2 0.30021568E+00 0.75421006E+03</pdfrwt>
<pdfrwt beam="2">  1       -2 0.44765191E-01 0.75421006E+03</pdfrwt>
<totfact> 0.34671483E+01</totfact>
</mgrwt>
</event>
<event>
 4    1  0.8645356E-007  0.6801195E+03  0.7818608E-02  0.1009256E+00
          2   -1    0    0  501    0  0.00000000000E+00  0.00000000000E+00  0.12745938304E+04  0.12745938305E+04  0.25500000000E-02 0. -1.
         -2   -1    0    0    0  501 -0.00000000000E+00 -0.00000000000E+00 -0.26881400031E+03  0.26881400032E+03  0.25500000000E-02 0.  1.
    8880023    1    1    2    0    0 -0.11037861716E+03 -0.12872031073E+03  0.20446139001E+03  0.71018802003E+03  0.65864270000E+03 0.  1.
    8880022    1    1    2    0    0  0.11037861716E+03  0.12872031073E+03  0.80131844013E+03  0.83321981075E+03  0.15294330000E+03 0.  0.
<mgrwt>
<rscale>  0 0.51771349E+03</rscale>
<asrwt>0</asrwt>
<pdfrwt beam="1">  1        2 0.19609135E+00 0.68011952E+03</pdfrwt>
<pdfrwt beam="2">  1       -2 0.41356001E-01 0.68011952E+03</pdfrwt>
<totfact> 0.96868683E+01</totfact>
</mgrwt>
</event>
<event>
 4    1  0.8645356E-007  0.9035686E+03  0.7818608E-02  0.9520327E-01
          2   -1    0    0  501    0  0.00000000000E+00  0.00000000000E+00  0.11840389213E+04  0.11840389213E+04  0.25500000000E-02 0. -1.
         -2   -1    0    0    0  501 -0.00000000000E+00 -0.00000000000E+00 -0.66124873326E+03  0.66124873326E+03  0.25500000000E-02 0.  1.
    8880023    1    1    2    0    0  0.21886696671E+03 -0.57855269913E+03 -0.15303928464E+03  0.91643723391E+03  0.65864270000E+03 0.  1.
    8880022    1    1    2    0    0 -0.21886696671E+03  0.57855269913E+03  0.67582947267E+03  0.92885042065E+03  0.15294330000E+03 0.  0.
<mgrwt>
<rscale>  0 0.82801643E+03</rscale>
<asrwt>0</asrwt>
<pdfrwt beam="1">  1        2 0.18215983E+00 0.90356858E+03</pdfrwt>
<pdfrwt beam="2">  1       -2 0.10173058E+00 0.90356858E+03</pdfrwt>
<totfact> 0.15395760E+01</totfact>
</mgrwt>
</event>
<event>
 4    1  0.8645356E-007  0.8501621E+03  0.7818608E-02  0.9611308E-01
         -2   -1    0    0    0  501 -0.00000000000E+00  0.00000000000E+00  0.25435185218E+03  0.25435185219E+03  0.25500000000E-02 0.  1.
          2   -1    0    0  501    0  0.00000000000E+00 -0.00000000000E+00 -0.30889623600E+04  0.30889623600E+04  0.25500000000E-02 0. -1.
    8880023    1    1    2    0    0 -0.51434205895E+03 -0.15626167620E+03 -0.60176125282E+03  0.10415816227E+04  0.65864270000E+03 0.  1.
    8880022    1    1    2    0    0  0.51434205895E+03  0.15626167620E+03 -0.22328492550E+04  0.23017325895E+04  0.15294330000E+03 0.  0.
<mgrwt>
<rscale>  0 0.76552213E+03</rscale>
<asrwt>0</asrwt>
<pdfrwt beam="1">  1        2 0.47522495E+00 0.85016214E+03</pdfrwt>
<pdfrwt beam="2">  1       -2 0.39131056E-01 0.85016214E+03</pdfrwt>
<totfact> 0.98952274E+00</totfact>
</mgrwt>
</event>
<event>
 4    1  0.8645356E-007  0.6700513E+03  0.7818608E-02  0.1015626E+00
         -2   -1    0    0    0  501 -0.00000000000E+00  0.00000000000E+00  0.27194692148E+03  0.27194692150E+03  0.25500000000E-02 0.  1.
          2   -1    0    0  501    0  0.00000000000E+00 -0.00000000000E+00 -0.16881678799E+04  0.16881678799E+04  0.25500000000E-02 0. -1.
    8880023    1    1    2    0    0 -0.42768718863E+02  0.11545312794E+03 -0.16032672867E+03  0.68896549569E+03  0.65864270000E+03 0.  1.
    8880022    1    1    2    0    0  0.42768718863E+02 -0.11545312794E+03 -0.12558942298E+04  0.12711493057E+04  0.15294330000E+03 0.  0.
<mgrwt>
<rscale>  0 0.49298584E+03</rscale>
<asrwt>0</asrwt>
<pdfrwt beam="1">  1        2 0.25971813E+00 0.67005134E+03</pdfrwt>
<pdfrwt beam="2">  1       -2 0.41837989E-01 0.67005134E+03</pdfrwt>
<totfact> 0.55711554E+01</totfact>
</mgrwt>
</event>
<event>
 4    1  0.8645356E-007  0.6698162E+03  0.7818608E-02  0.1015795E+00
         -2   -1    0    0    0  501 -0.00000000000E+00  0.00000000000E+00  0.59126226646E+03  0.59126226646E+03  0.25500000000E-02 0.  1.
          2   -1    0    0  501    0  0.00000000000E+00 -0.00000000000E+00 -0.69492205257E+03  0.69492205257E+03  0.25500000000E-02 0. -1.
    8880023    1    1    2    0    0 -0.11514844688E+03 -0.39804381376E+02  0.37604600697E+03  0.76815646793E+03  0.65864270000E+03 0.  1.
    8880022    1    1    2    0    0  0.11514844688E+03  0.39804381376E+02 -0.47970579308E+03  0.51802785111E+03  0.15294330000E+03 0.  0.
<mgrwt>
<rscale>  0 0.49235083E+03</rscale>
<asrwt>0</asrwt>
<pdfrwt beam="1">  1        2 0.10691109E+00 0.66981621E+03</pdfrwt>
<pdfrwt beam="2">  1       -2 0.90963425E-01 0.66981621E+03</pdfrwt>
<totfact> 0.43480183E+01</totfact>
</mgrwt>
</event>
<event>
 4    1  0.8645356E-007  0.1081368E+04  0.7818608E-02  0.9282089E-01
          2   -1    0    0  501    0  0.00000000000E+00  0.00000000000E+00  0.28101542375E+04  0.28101542375E+04  0.25500000000E-02 0. -1.
         -2   -1    0    0    0  501 -0.00000000000E+00 -0.00000000000E+00 -0.46911090314E+03  0.46911090315E+03  0.25500000000E-02 0.  1.
    8880023    1    1    2    0    0 -0.82809618936E+03 -0.22316838340E+03  0.40228656839E+03  0.11537729913E+04  0.65864270000E+03 0.  0.
    8880022    1    1    2    0    0  0.82809618936E+03  0.22316838340E+03  0.19387567660E+04  0.21254921493E+04  0.15294330000E+03 0.  0.
<mgrwt>
<rscale>  0 0.10244862E+04</rscale>
<asrwt>0</asrwt>
<pdfrwt beam="1">  1        2 0.43233142E+00 0.10813684E+04</pdfrwt>
<pdfrwt beam="2">  1       -2 0.72170909E-01 0.10813684E+04</pdfrwt>
<totfact> 0.39880451E+00</totfact>
</mgrwt>
</event>
<event>
 4    1  0.8645356E-007  0.7727127E+03  0.7818608E-02  0.9773242E-01
          2   -1    0    0  501    0  0.00000000000E+00  0.00000000000E+00  0.18490083383E+04  0.18490083383E+04  0.25500000000E-02 0. -1.
         -2   -1    0    0    0  501 -0.00000000000E+00 -0.00000000000E+00 -0.30538067103E+03  0.30538067104E+03  0.25500000000E-02 0.  1.
    8880023    1    1    2    0    0 -0.20466538566E+03 -0.34840610800E+03  0.28487426872E+03  0.82355223964E+03  0.65864270000E+03 0.  0.
    8880022    1    1    2    0    0  0.20466538566E+03  0.34840610800E+03  0.12587533986E+04  0.13308367697E+04  0.15294330000E+03 0.  0.
<mgrwt>
<rscale>  0 0.66818514E+03</rscale>
<asrwt>0</asrwt>
<pdfrwt beam="1">  1        2 0.28446281E+00 0.77271272E+03</pdfrwt>
<pdfrwt beam="2">  1       -2 0.46981643E-01 0.77271272E+03</pdfrwt>
<totfact> 0.35712440E+01</totfact>
</mgrwt>
</event>
<event>
 4    1  0.8645356E-007  0.7321729E+03  0.7818608E-02  0.9883363E-01
          2   -1    0    0  501    0  0.00000000000E+00  0.00000000000E+00  0.12457392021E+04  0.12457392021E+04  0.25500000000E-02 0. -1.
         -2   -1    0    0    0  501 -0.00000000000E+00 -0.00000000000E+00 -0.45453482665E+03  0.45453482666E+03  0.25500000000E-02 0.  1.
    8880023    1    1    2    0    0  0.30613379803E+03  0.92461074482E+02 -0.10205202768E+03  0.73925082023E+03  0.65864270000E+03 0.  1.
    8880022    1    1    2    0    0 -0.30613379803E+03 -0.92461074482E+02  0.89325640309E+03  0.96102320850E+03  0.15294330000E+03 0.  0.
<mgrwt>
<rscale>  0 0.61074408E+03</rscale>
<asrwt>0</asrwt>
<pdfrwt beam="1">  1        2 0.19165219E+00 0.73217290E+03</pdfrwt>
<pdfrwt beam="2">  1       -2 0.69928434E-01 0.73217290E+03</pdfrwt>
<totfact> 0.33842240E+01</totfact>
</mgrwt>
</event>
<event>
 4    1  0.8645356E-007  0.9388149E+03  0.7818608E-02  0.9466393E-01
         -2   -1    0    0    0  501 -0.00000000000E+00  0.00000000000E+00  0.55754887508E+03  0.55754887509E+03  0.25500000000E-02 0.  1.
          2   -1    0    0  501    0  0.00000000000E+00 -0.00000000000E+00 -0.15503299287E+04  0.15503299287E+04  0.25500000000E-02 0. -1.
    8880023    1    1    2    0    0 -0.35220732040E+03 -0.56878226108E+03 -0.47842706143E+02  0.94003318444E+03  0.65864270000E+03 0.  0.
    8880022    1    1    2    0    0  0.35220732040E+03  0.56878226108E+03 -0.94493834744E+03  0.11678456193E+04  0.15294330000E+03 0.  0.
<mgrwt>
<rscale>  0 0.86807531E+03</rscale>
<asrwt>0</asrwt>
<pdfrwt beam="1">  1        2 0.23851229E+00 0.93881492E+03</pdfrwt>
<pdfrwt beam="2">  1       -2 0.85776751E-01 0.93881492E+03</pdfrwt>
<totfact> 0.14077004E+01</totfact>
</mgrwt>
</event>
<event>
 4    1  0.8645356E-007  0.1425141E+04  0.7818608E-02  0.8964390E-01
         -2   -1    0    0    0  501 -0.00000000000E+00  0.00000000000E+00  0.13522545586E+04  0.13522545586E+04  0.25500000000E-02 0.  1.
          2   -1    0    0  501    0  0.00000000000E+00 -0.00000000000E+00 -0.25806189510E+04  0.25806189510E+04  0.25500000000E-02 0. -1.
    8880023    1    1    2    0    0  0.15242867850E+03  0.12545840678E+04 -0.19912974508E+04  0.24487326169E+04  0.65864270000E+03 0.  0.
    8880022    1    1    2    0    0 -0.15242867850E+03 -0.12545840678E+04  0.76293305832E+03  0.14841408928E+04  0.15294330000E+03 0.  1.
<mgrwt>
<rscale>  0 0.13854888E+04</rscale>
<asrwt>0</asrwt>
<pdfrwt beam="1">  1        2 0.39701830E+00 0.14251407E+04</pdfrwt>
<pdfrwt beam="2">  1       -2 0.20803916E+00 0.14251407E+04</pdfrwt>
<totfact> 0.34910628E-01</totfact>
</mgrwt>
</event>
<event>
 4    1  0.1628817E-006  0.6949367E+03  0.7818608E-02  0.1001889E+00
          2   -1    0    0  501    0  0.00000000000E+00  0.00000000000E+00  0.16164125178E+04  0.16164125178E+04  0.25500000000E-02 0. -1.
         -2   -1    0    0    0  501 -0.00000000000E+00 -0.00000000000E+00 -0.81539708889E+03  0.81539708890E+03  0.25500000000E-02 0.  1.
    8880023    1    1    2    0    0  0.56803057943E+02 -0.21424326768E+03 -0.65268272871E+03  0.95337910390E+03  0.65864270000E+03 0.  1.
    8880022    1    1    2    0    0 -0.56803057943E+02  0.21424326768E+03  0.14536981576E+04  0.14784305028E+04  0.15294330000E+03 0.  0.
<mgrwt>
<rscale>  0 0.54829585E+03</rscale>
<asrwt>0</asrwt>
<pdfrwt beam="1">  1        2 0.24867885E+00 0.69493667E+03</pdfrwt>
<pdfrwt beam="2">  1       -2 0.12544571E+00 0.69493667E+03</pdfrwt>
<totfact> 0.53788983E+00</totfact>
</mgrwt>
</event>
<event>
 4    1  0.8645356E-007  0.6591120E+03  0.7818608E-02  0.1025085E+00
          2   -1    0    0  501    0  0.00000000000E+00  0.00000000000E+00  0.21184001400E+04  0.21184001400E+04  0.25500000000E-02 0. -1.
         -2   -1    0    0    0  501 -0.00000000000E+00 -0.00000000000E+00 -0.15389637725E+03  0.15389637727E+03  0.25500000000E-02 0.  1.
    8880023    1    1    2    0    0 -0.19488982931E+02 -0.15445950052E+02  0.57646969532E+03  0.87564028786E+03  0.65864270000E+03 0.  1.
    8880022    1    1    2    0    0  0.19488982931E+02  0.15445950052E+02  0.13880340674E+04  0.13966562294E+04  0.15294330000E+03 0.  0.
<mgrwt>
<rscale>  0 0.45895335E+03</rscale>
<asrwt>0</asrwt>
<pdfrwt beam="1">  1        2 0.32590768E+00 0.65911198E+03</pdfrwt>
<pdfrwt beam="2">  1       -2 0.23676368E-01 0.65911198E+03</pdfrwt>
<totfact> 0.94368100E+01</totfact>
</mgrwt>
</event>
<event>
 4    1  0.8645356E-007  0.6599245E+03  0.7818608E-02  0.1024234E+00
         -2   -1    0    0    0  501 -0.00000000000E+00  0.00000000000E+00  0.16733554769E+03  0.16733554771E+03  0.25500000000E-02 0.  1.
          2   -1    0    0  501    0  0.00000000000E+00 -0.00000000000E+00 -0.11601688426E+04  0.11601688426E+04  0.25500000000E-02 0. -1.
    8880023    1    1    2    0    0  0.17741447188E+02  0.37086120012E+02 -0.55625251727E+03  0.86308586391E+03  0.65864270000E+03 0.  1.
    8880022    1    1    2    0    0 -0.17741447188E+02 -0.37086120012E+02 -0.43658077759E+03  0.46441852636E+03  0.15294330000E+03 0.  0.
<mgrwt>
<rscale>  0 0.46189207E+03</rscale>
<asrwt>0</asrwt>
<pdfrwt beam="1">  1        2 0.17848751E+00 0.65992450E+03</pdfrwt>
<pdfrwt beam="2">  1       -2 0.25743931E-01 0.65992450E+03</pdfrwt>
<totfact> 0.27612667E+02</totfact>
</mgrwt>
</event>
<event>
 4    1  0.8645356E-007  0.7876770E+03  0.7818608E-02  0.9738103E-01
         -2   -1    0    0    0  501 -0.00000000000E+00  0.00000000000E+00  0.93638804087E+03  0.93638804087E+03  0.25500000000E-02 0.  1.
          2   -1    0    0  501    0  0.00000000000E+00 -0.00000000000E+00 -0.64798599461E+03  0.64798599461E+03  0.25500000000E-02 0. -1.
    8880023    1    1    2    0    0 -0.19680237201E+03  0.38456954977E+03  0.63339702052E+03  0.10107556105E+04  0.65864270000E+03 0. -1.
    8880022    1    1    2    0    0  0.19680237201E+03 -0.38456954977E+03 -0.34499497425E+03  0.57361842501E+03  0.15294330000E+03 0.  0.
<mgrwt>
<rscale>  0 0.68792776E+03</rscale>
<asrwt>0</asrwt>
<pdfrwt beam="1">  1        2 0.99690154E-01 0.78767704E+03</pdfrwt>
<pdfrwt beam="2">  1       -2 0.14405970E+00 0.78767704E+03</pdfrwt>
<totfact> 0.15206699E+01</totfact>
</mgrwt>
</event>
<event>
 4    1  0.8645356E-007  0.7020611E+03  0.7818608E-02  0.9988756E-01
         -2   -1    0    0    0  501 -0.00000000000E+00  0.00000000000E+00  0.22626136216E+03  0.22626136217E+03  0.25500000000E-02 0.  1.
          2   -1    0    0  501    0  0.00000000000E+00 -0.00000000000E+00 -0.26829918388E+04  0.26829918388E+04  0.25500000000E-02 0. -1.
    8880023    1    1    2    0    0  0.23687854875E+03 -0.54480505092E+02 -0.35262880456E+03  0.78564422760E+03  0.65864270000E+03 0.  1.
    8880022    1    1    2    0    0 -0.23687854875E+03  0.54480505092E+02 -0.21041016720E+04  0.21236089733E+04  0.15294330000E+03 0.  0.
<mgrwt>
<rscale>  0 0.56146021E+03</rscale>
<asrwt>0</asrwt>
<pdfrwt beam="1">  1        2 0.41276795E+00 0.70206109E+03</pdfrwt>
<pdfrwt beam="2">  1       -2 0.34809442E-01 0.70206109E+03</pdfrwt>
<totfact> 0.22259737E+01</totfact>
</mgrwt>
</event>
<event>
 4    1  0.8712887E-007  0.9197371E+03  0.7818608E-02  0.9495062E-01
          2   -1    0    0  501    0  0.00000000000E+00  0.00000000000E+00  0.13073825609E+04  0.13073825609E+04  0.25500000000E-02 0. -1.
         -2   -1    0    0    0  501 -0.00000000000E+00 -0.00000000000E+00 -0.21548444023E+04  0.21548444023E+04  0.25500000000E-02 0.  1.
    8880023    1    1    2    0    0 -0.31901878756E+03  0.55707558783E+03 -0.19620515203E+04  0.21669246807E+04  0.65864270000E+03 0.  1.
    8880022    1    1    2    0    0  0.31901878756E+03 -0.55707558783E+03  0.11145896790E+04  0.12953022824E+04  0.15294330000E+03 0.  0.
<mgrwt>
<rscale>  0 0.84648847E+03</rscale>
<asrwt>0</asrwt>
<pdfrwt beam="1">  1        2 0.20113578E+00 0.91973714E+03</pdfrwt>
<pdfrwt beam="2">  1       -2 0.33151452E+00 0.91973714E+03</pdfrwt>
<totfact> 0.34025762E-01</totfact>
</mgrwt>
</event>
<event>
 4    1  0.8645356E-007  0.6660710E+03  0.7818608E-02  0.1018651E+00
          2   -1    0    0  501    0  0.00000000000E+00  0.00000000000E+00  0.12420076128E+04  0.12420076128E+04  0.25500000000E-02 0. -1.
         -2   -1    0    0    0  501 -0.00000000000E+00 -0.00000000000E+00 -0.44000524480E+03  0.44000524481E+03  0.25500000000E-02 0.  1.
    8880023    1    1    2    0    0  0.97990811127E+02 -0.15432955775E+02 -0.17457324300E+03  0.68856836888E+03  0.65864270000E+03 0.  1.
    8880022    1    1    2    0    0 -0.97990811127E+02  0.15432955775E+02  0.97657561095E+03  0.99344448869E+03  0.15294330000E+03 0.  0.
<mgrwt>
<rscale>  0 0.48176473E+03</rscale>
<asrwt>0</asrwt>
<pdfrwt beam="1">  1        2 0.19107809E+00 0.66607100E+03</pdfrwt>
<pdfrwt beam="2">  1       -2 0.67693115E-01 0.66607100E+03</pdfrwt>
<totfact> 0.36767292E+01</totfact>
</mgrwt>
</event>
<event>
 4    1  0.8645356E-007  0.8375050E+03  0.7818608E-02  0.9634903E-01
         -2   -1    0    0    0  501 -0.00000000000E+00  0.00000000000E+00  0.53605812988E+03  0.53605812988E+03  0.25500000000E-02 0.  1.
          2   -1    0    0  501    0  0.00000000000E+00 -0.00000000000E+00 -0.10527910905E+04  0.10527910905E+04  0.25500000000E-02 0. -1.
    8880023    1    1    2    0    0 -0.48127211618E+03  0.18968793116E+03  0.62272548910E+01  0.83752811655E+03  0.65864270000E+03 0.  0.
    8880022    1    1    2    0    0  0.48127211618E+03 -0.18968793116E+03 -0.52296021548E+03  0.75132110381E+03  0.15294330000E+03 0.  0.
<mgrwt>
<rscale>  0 0.75028527E+03</rscale>
<asrwt>0</asrwt>
<pdfrwt beam="1">  1        2 0.16196786E+00 0.83750497E+03</pdfrwt>
<pdfrwt beam="2">  1       -2 0.82470482E-01 0.83750497E+03</pdfrwt>
<totfact> 0.30343010E+01</totfact>
</mgrwt>
</event>
<event>
 4    1  0.8645356E-007  0.1168987E+04  0.7818608E-02  0.9187875E-01
          2   -1    0    0  501    0  0.00000000000E+00  0.00000000000E+00  0.16174320406E+04  0.16174320406E+04  0.25500000000E-02 0. -1.
         -2   -1    0    0    0  501 -0.00000000000E+00 -0.00000000000E+00 -0.30577858716E+04  0.30577858716E+04  0.25500000000E-02 0.  1.
    8880023    1    1    2    0    0  0.22264108868E+03  0.93976132213E+03  0.13102820463E+04  0.17559526315E+04  0.65864270000E+03 0. -1.
    8880022    1    1    2    0    0 -0.22264108868E+03 -0.93976132213E+03 -0.27506358773E+04  0.29192652807E+04  0.15294330000E+03 0.  0.
<mgrwt>
<rscale>  0 0.11179461E+04</rscale>
<asrwt>0</asrwt>
<pdfrwt beam="1">  1        2 0.24883570E+00 0.11689870E+04</pdfrwt>
<pdfrwt beam="2">  1       -2 0.47042859E+00 0.11689870E+04</pdfrwt>
<totfact> 0.27385202E-02</totfact>
</mgrwt>
</event>
<event>
 4    1  0.9212121E-007  0.8209884E+03  0.7818608E-02  0.9667127E-01
         -2   -1    0    0    0  501 -0.00000000000E+00  0.00000000000E+00  0.68153273851E+03  0.68153273852E+03  0.25500000000E-02 0.  1.
          2   -1    0    0  501    0  0.00000000000E+00 -0.00000000000E+00 -0.19315675415E+04  0.19315675415E+04  0.25500000000E-02 0. -1.
    8880023    1    1    2    0    0 -0.42236401785E+03  0.24863706868E+03  0.37960126508E+03  0.90449935445E+03  0.65864270000E+03 0.  0.
    8880022    1    1    2    0    0  0.42236401785E+03 -0.24863706868E+03 -0.16296360681E+04  0.17086009256E+04  0.15294330000E+03 0.  0.
<mgrwt>
<rscale>  0 0.73008201E+03</rscale>
<asrwt>0</asrwt>
<pdfrwt beam="1">  1        2 0.29716424E+00 0.82098841E+03</pdfrwt>
<pdfrwt beam="2">  1       -2 0.10485119E+00 0.82098841E+03</pdfrwt>
<totfact> 0.55037539E+00</totfact>
</mgrwt>
</event>
<event>
 4    1  0.8645356E-007  0.8675096E+03  0.7818608E-02  0.9580342E-01
          2   -1    0    0  501    0  0.00000000000E+00  0.00000000000E+00  0.42145173446E+04  0.42145173446E+04  0.25500000000E-02 0. -1.
         -2   -1    0    0    0  501 -0.00000000000E+00 -0.00000000000E+00 -0.44277726769E+03  0.44277726770E+03  0.25500000000E-02 0.  1.
    8880023    1    1    2    0    0 -0.36637604439E+03  0.42957110966E+03  0.27820234471E+02  0.86795559556E+03  0.65864270000E+03 0.  0.
    8880022    1    1    2    0    0  0.36637604439E+03 -0.42957110966E+03  0.37439198425E+04  0.37893390168E+04  0.15294330000E+03 0.  0.
<mgrwt>
<rscale>  0 0.78611031E+03</rscale>
<asrwt>0</asrwt>
<pdfrwt beam="1">  1        2 0.64838730E+00 0.86750963E+03</pdfrwt>
<pdfrwt beam="2">  1       -2 0.68119578E-01 0.86750963E+03</pdfrwt>
<totfact> 0.48695507E-01</totfact>
</mgrwt>
</event>
<event>
 4    1  0.1054077E-006  0.6646833E+03  0.7818608E-02  0.1019801E+00
          2   -1    0    0  501    0  0.00000000000E+00  0.00000000000E+00  0.30118820475E+04  0.30118820475E+04  0.25500000000E-02 0. -1.
         -2   -1    0    0    0  501 -0.00000000000E+00 -0.00000000000E+00 -0.93218544953E+03  0.93218544953E+03  0.25500000000E-02 0.  1.
    8880023    1    1    2    0    0  0.41042051895E+02  0.79430457347E+02 -0.81064154680E+03  0.10483050945E+04  0.65864270000E+03 0.  1.
    8880022    1    1    2    0    0 -0.41042051895E+02 -0.79430457347E+02  0.28903381447E+04  0.28957624025E+04  0.15294330000E+03 0.  0.
<mgrwt>
<rscale>  0 0.47758629E+03</rscale>
<asrwt>0</asrwt>
<pdfrwt beam="1">  1        2 0.46336647E+00 0.66468327E+03</pdfrwt>
<pdfrwt beam="2">  1       -2 0.14341314E+00 0.66468327E+03</pdfrwt>
<totfact> 0.63102206E-01</totfact>
</mgrwt>
</event>
<event>
 4    1  0.8645356E-007  0.7180397E+03  0.7818608E-02  0.9929276E-01
         -2   -1    0    0    0  501 -0.00000000000E+00  0.00000000000E+00  0.39586605778E+03  0.39586605779E+03  0.25500000000E-02 0.  1.
          2   -1    0    0  501    0  0.00000000000E+00 -0.00000000000E+00 -0.14708321971E+04  0.14708321972E+04  0.25500000000E-02 0. -1.
    8880023    1    1    2    0    0  0.22014427796E+03  0.18250285284E+03  0.26457862583E+02  0.71852697873E+03  0.65864270000E+03 0.  1.
    8880022    1    1    2    0    0 -0.22014427796E+03 -0.18250285284E+03 -0.11014240020E+04  0.11481712762E+04  0.15294330000E+03 0.  0.
<mgrwt>
<rscale>  0 0.58863208E+03</rscale>
<asrwt>0</asrwt>
<pdfrwt beam="1">  1        2 0.22628187E+00 0.71803969E+03</pdfrwt>
<pdfrwt beam="2">  1       -2 0.60902471E-01 0.71803969E+03</pdfrwt>
<totfact> 0.33953713E+01</totfact>
</mgrwt>
</event>
<event>
 4    1  0.8645356E-007  0.7108148E+03  0.7818608E-02  0.9954987E-01
         -2   -1    0    0    0  501 -0.00000000000E+00  0.00000000000E+00  0.26001766779E+03  0.26001766780E+03  0.25500000000E-02 0.  1.
          2   -1    0    0  501    0  0.00000000000E+00 -0.00000000000E+00 -0.11565405578E+04  0.11565405578E+04  0.25500000000E-02 0. -1.
    8880023    1    1    2    0    0  0.24337122278E+03 -0.11053498525E+03 -0.35723445475E+03  0.79553390686E+03  0.65864270000E+03 0.  1.
    8880022    1    1    2    0    0 -0.24337122278E+03  0.11053498525E+03 -0.53928843525E+03  0.62102431872E+03  0.15294330000E+03 0.  0.
<mgrwt>
<rscale>  0 0.57668791E+03</rscale>
<asrwt>0</asrwt>
<pdfrwt beam="1">  1        2 0.17792931E+00 0.71081484E+03</pdfrwt>
<pdfrwt beam="2">  1       -2 0.40002719E-01 0.71081484E+03</pdfrwt>
<totfact> 0.12097265E+02</totfact>
</mgrwt>
</event>
<event>
 4    1  0.8645356E-007  0.6647766E+03  0.7818608E-02  0.1019722E+00
          2   -1    0    0  501    0  0.00000000000E+00  0.00000000000E+00  0.83389355480E+03  0.83389355480E+03  0.25500000000E-02 0. -1.
         -2   -1    0    0    0  501 -0.00000000000E+00 -0.00000000000E+00 -0.38056855999E+03  0.38056856000E+03  0.25500000000E-02 0.  1.
    8880023    1    1    2    0    0 -0.35671043088E+02  0.82735950543E+02 -0.63692797845E+02  0.66782081398E+03  0.65864270000E+03 0.  1.
    8880022    1    1    2    0    0  0.35671043088E+02 -0.82735950543E+02  0.51701779265E+03  0.54664130082E+03  0.15294330000E+03 0.  0.
<mgrwt>
<rscale>  0 0.47787206E+03</rscale>
<asrwt>0</asrwt>
<pdfrwt beam="1">  1        2 0.12829132E+00 0.66477655E+03</pdfrwt>
<pdfrwt beam="2">  1       -2 0.58549010E-01 0.66477655E+03</pdfrwt>
<totfact> 0.90550629E+01</totfact>
</mgrwt>
</event>
<event>
 4    1  0.8645356E-007  0.6676890E+03  0.7818608E-02  0.1017377E+00
          2   -1    0    0  501    0  0.00000000000E+00  0.00000000000E+00  0.12460124836E+04  0.12460124836E+04  0.25500000000E-02 0. -1.
         -2   -1    0    0    0  501 -0.00000000000E+00 -0.00000000000E+00 -0.31093787787E+03  0.31093787788E+03  0.25500000000E-02 0.  1.
    8880023    1    1    2    0    0 -0.10274651180E+02 -0.10905401613E+03  0.69646299475E+02  0.67131152246E+03  0.65864270000E+03 0.  1.
    8880022    1    1    2    0    0  0.10274651180E+02  0.10905401613E+03  0.86542830623E+03  0.88563883899E+03  0.15294330000E+03 0.  0.
<mgrwt>
<rscale>  0 0.48645281E+03</rscale>
<asrwt>0</asrwt>
<pdfrwt beam="1">  1        2 0.19169423E+00 0.66768896E+03</pdfrwt>
<pdfrwt beam="2">  1       -2 0.47836597E-01 0.66768896E+03</pdfrwt>
<totfact> 0.75455862E+01</totfact>
</mgrwt>
</event>
<event>
 4    1  0.1086719E-006  0.7274834E+03  0.7818608E-02  0.9898033E-01
          2   -1    0    0  501    0  0.00000000000E+00  0.00000000000E+00  0.10258141287E+04  0.10258141287E+04  0.25500000000E-02 0. -1.
         -2   -1    0    0    0  501 -0.00000000000E+00 -0.00000000000E+00 -0.12965086092E+04  0.12965086092E+04  0.25500000000E-02 0.  1.
    8880023    1    1    2    0    0 -0.27204248848E+03 -0.14633772740E+03 -0.11596107730E+04  0.13689153360E+04  0.65864270000E+03 0.  1.
    8880022    1    1    2    0    0  0.27204248848E+03  0.14633772740E+03  0.88891629248E+03  0.95340740193E+03  0.15294330000E+03 0.  0.
<mgrwt>
<rscale>  0 0.60356705E+03</rscale>
<asrwt>0</asrwt>
<pdfrwt beam="1">  1        2 0.15781756E+00 0.72748337E+03</pdfrwt>
<pdfrwt beam="2">  1       -2 0.19946286E+00 0.72748337E+03</pdfrwt>
<totfact> 0.33421655E+00</totfact>
</mgrwt>
</event>
<event>
 4    1  0.8645356E-007  0.9644792E+03  0.7818608E-02  0.9429581E-01
          2   -1    0    0  501    0  0.00000000000E+00  0.00000000000E+00  0.19772373577E+04  0.19772373577E+04  0.25500000000E-02 0. -1.
         -2   -1    0    0    0  501 -0.00000000000E+00 -0.00000000000E+00 -0.41293714645E+03  0.41293714646E+03  0.25500000000E-02 0.  1.
    8880023    1    1    2    0    0 -0.69988264628E+03 -0.81081968218E+02  0.45318250402E+03  0.10656428071E+04  0.65864270000E+03 0. -1.
    8880022    1    1    2    0    0  0.69988264628E+03  0.81081968218E+02  0.11111177072E+04  0.13245316971E+04  0.15294330000E+03 0.  0.
<mgrwt>
<rscale>  0 0.89680779E+03</rscale>
<asrwt>0</asrwt>
<pdfrwt beam="1">  1        2 0.30419036E+00 0.96447924E+03</pdfrwt>
<pdfrwt beam="2">  1       -2 0.63528793E-01 0.96447924E+03</pdfrwt>
<totfact> 0.15884108E+01</totfact>
</mgrwt>
</event>
<event>
 4    1  0.8645356E-007  0.1282674E+04  0.7818608E-02  0.9080669E-01
          2   -1    0    0  501    0  0.00000000000E+00  0.00000000000E+00  0.28629283963E+04  0.28629283963E+04  0.25500000000E-02 0. -1.
         -2   -1    0    0    0  501 -0.00000000000E+00 -0.00000000000E+00 -0.54127087320E+03  0.54127087320E+03  0.25500000000E-02 0.  1.
    8880023    1    1    2    0    0  0.95674542697E+03 -0.54413171229E+03  0.77125067522E+03  0.14966893274E+04  0.65864270000E+03 0.  0.
    8880022    1    1    2    0    0 -0.95674542697E+03  0.54413171229E+03  0.15504068479E+04  0.19075099421E+04  0.15294330000E+03 0.  0.
<mgrwt>
<rscale>  0 0.12374798E+04</rscale>
<asrwt>0</asrwt>
<pdfrwt beam="1">  1        2 0.44045052E+00 0.12826735E+04</pdfrwt>
<pdfrwt beam="2">  1       -2 0.83272443E-01 0.12826735E+04</pdfrwt>
<totfact> 0.26225230E+00</totfact>
</mgrwt>
</event>
<event>
 4    1  0.8645356E-007  0.8875551E+03  0.7818608E-02  0.9546312E-01
         -2   -1    0    0    0  501 -0.00000000000E+00  0.00000000000E+00  0.32663186513E+03  0.32663186514E+03  0.25500000000E-02 0.  1.
          2   -1    0    0  501    0  0.00000000000E+00 -0.00000000000E+00 -0.18157990036E+04  0.18157990036E+04  0.25500000000E-02 0. -1.
    8880023    1    1    2    0    0  0.13313550402E+03  0.57984374471E+03 -0.63938555216E+03  0.10938774709E+04  0.65864270000E+03 0. -1.
    8880022    1    1    2    0    0 -0.13313550402E+03 -0.57984374471E+03 -0.84978158631E+03  0.10485533979E+04  0.15294330000E+03 0.  1.
<mgrwt>
<rscale>  0 0.80953838E+03</rscale>
<asrwt>0</asrwt>
<pdfrwt beam="1">  1        2 0.27935369E+00 0.88755509E+03</pdfrwt>
<pdfrwt beam="2">  1       -2 0.50251057E-01 0.88755509E+03</pdfrwt>
<totfact> 0.32079603E+01</totfact>
</mgrwt>
</event>
<event>
 4    1  0.8645356E-007  0.8838016E+03  0.7818608E-02  0.9552552E-01
         -2   -1    0    0    0  501 -0.00000000000E+00  0.00000000000E+00  0.57807743335E+03  0.57807743336E+03  0.25500000000E-02 0.  1.
          2   -1    0    0  501    0  0.00000000000E+00 -0.00000000000E+00 -0.15326758349E+04  0.15326758349E+04  0.25500000000E-02 0. -1.
    8880023    1    1    2    0    0  0.23396390204E+03 -0.54088446482E+03  0.10365288143E+03  0.88985911123E+03  0.65864270000E+03 0.  1.
    8880022    1    1    2    0    0 -0.23396390204E+03  0.54088446482E+03 -0.10582512830E+04  0.12208941570E+04  0.15294330000E+03 0.  0.
<mgrwt>
<rscale>  0 0.80517815E+03</rscale>
<asrwt>0</asrwt>
<pdfrwt beam="1">  1        2 0.23579628E+00 0.88380163E+03</pdfrwt>
<pdfrwt beam="2">  1       -2 0.88934990E-01 0.88380163E+03</pdfrwt>
<totfact> 0.13329524E+01</totfact>
</mgrwt>
</event>
<event>
 4    1  0.8645356E-007  0.6697376E+03  0.7818608E-02  0.1015852E+00
          2   -1    0    0  501    0  0.00000000000E+00  0.00000000000E+00  0.17643541166E+04  0.17643541166E+04  0.25500000000E-02 0. -1.
         -2   -1    0    0    0  501 -0.00000000000E+00 -0.00000000000E+00 -0.18950485004E+03  0.18950485005E+03  0.25500000000E-02 0.  1.
    8880023    1    1    2    0    0  0.86880543093E+02 -0.84793809219E+02  0.43773447809E+03  0.80009993027E+03  0.65864270000E+03 0.  1.
    8880022    1    1    2    0    0 -0.86880543093E+02  0.84793809219E+02  0.11371147884E+04  0.11537590363E+04  0.15294330000E+03 0.  0.
<mgrwt>
<rscale>  0 0.49213774E+03</rscale>
<asrwt>0</asrwt>
<pdfrwt beam="1">  1        2 0.27143911E+00 0.66973758E+03</pdfrwt>
<pdfrwt beam="2">  1       -2 0.29154591E-01 0.66973758E+03</pdfrwt>
<totfact> 0.10063177E+02</totfact>
</mgrwt>
</event>
<event>
 4    1  0.8645356E-007  0.7752957E+03  0.7818608E-02  0.9767006E-01
         -2   -1    0    0    0  501 -0.00000000000E+00  0.00000000000E+00  0.62896574754E+03  0.62896574755E+03  0.25500000000E-02 0.  1.
          2   -1    0    0  501    0  0.00000000000E+00 -0.00000000000E+00 -0.77118674568E+03  0.77118674568E+03  0.25500000000E-02 0. -1.
    8880023    1    1    2    0    0  0.12975710219E+03 -0.38786125281E+03  0.24856526907E+03  0.81416715498E+03  0.65864270000E+03 0.  1.
    8880022    1    1    2    0    0 -0.12975710219E+03  0.38786125281E+03 -0.39078626721E+03  0.58598533825E+03  0.15294330000E+03 0.  0.
<mgrwt>
<rscale>  0 0.67163665E+03</rscale>
<asrwt>0</asrwt>
<pdfrwt beam="1">  1        2 0.11864411E+00 0.77529573E+03</pdfrwt>
<pdfrwt beam="2">  1       -2 0.96763961E-01 0.77529573E+03</pdfrwt>
<totfact> 0.32655332E+01</totfact>
</mgrwt>
</event>
<event>
 4    1  0.8645356E-007  0.1310074E+04  0.7818608E-02  0.9056908E-01
         -2   -1    0    0    0  501 -0.00000000000E+00  0.00000000000E+00  0.80684701839E+03  0.80684701839E+03  0.25500000000E-02 0.  1.
          2   -1    0    0  501    0  0.00000000000E+00 -0.00000000000E+00 -0.23383437291E+04  0.23383437291E+04  0.25500000000E-02 0. -1.
    8880023    1    1    2    0    0  0.74430383542E+03  0.85352014757E+03 -0.10053440072E+03  0.13139262589E+04  0.65864270000E+03 0.  0.
    8880022    1    1    2    0    0 -0.74430383542E+03 -0.85352014757E+03 -0.14309623100E+04  0.18312644887E+04  0.15294330000E+03 0.  0.
<mgrwt>
<rscale>  0 0.12660759E+04</rscale>
<asrwt>0</asrwt>
<pdfrwt beam="1">  1        2 0.35974519E+00 0.13100744E+04</pdfrwt>
<pdfrwt beam="2">  1       -2 0.12413031E+00 0.13100744E+04</pdfrwt>
<totfact> 0.20335688E+00</totfact>
</mgrwt>
</event>
<event>
 4    1  0.8966780E-007  0.8112287E+03  0.7818608E-02  0.9687023E-01
         -2   -1    0    0    0  501 -0.00000000000E+00  0.00000000000E+00  0.18445374601E+04  0.18445374601E+04  0.25500000000E-02 0.  1.
          2   -1    0    0  501    0  0.00000000000E+00 -0.00000000000E+00 -0.13620577579E+04  0.13620577579E+04  0.25500000000E-02 0. -1.
    8880023    1    1    2    0    0  0.21628139995E+03  0.42131247978E+03  0.17041843539E+04  0.18874152611E+04  0.65864270000E+03 0.  1.
    8880022    1    1    2    0    0 -0.21628139995E+03 -0.42131247978E+03 -0.12217046517E+04  0.13191799568E+04  0.15294330000E+03 0.  0.
<mgrwt>
<rscale>  0 0.71794708E+03</rscale>
<asrwt>0</asrwt>
<pdfrwt beam="1">  1        2 0.20954735E+00 0.81122873E+03</pdfrwt>
<pdfrwt beam="2">  1       -2 0.28377499E+00 0.81122873E+03</pdfrwt>
<totfact> 0.62906488E-01</totfact>
</mgrwt>
</event>
<event>
 4    1  0.8645356E-007  0.8056391E+03  0.7818608E-02  0.9698733E-01
          2   -1    0    0  501    0  0.00000000000E+00  0.00000000000E+00  0.34142172228E+04  0.34142172228E+04  0.25500000000E-02 0. -1.
         -2   -1    0    0    0  501 -0.00000000000E+00 -0.00000000000E+00 -0.17914070743E+03  0.17914070745E+03  0.25500000000E-02 0.  1.
    8880023    1    1    2    0    0 -0.45903765323E+03  0.67295179646E+02  0.90078236502E+03  0.12084962903E+04  0.65864270000E+03 0. -1.
    8880022    1    1    2    0    0  0.45903765323E+03 -0.67295179646E+02  0.23342941503E+04  0.23848616399E+04  0.15294330000E+03 0.  0.
<mgrwt>
<rscale>  0 0.71092270E+03</rscale>
<asrwt>0</asrwt>
<pdfrwt beam="1">  1        2 0.52526420E+00 0.80563913E+03</pdfrwt>
<pdfrwt beam="2">  1       -2 0.27560108E-01 0.80563913E+03</pdfrwt>
<totfact> 0.11912048E+01</totfact>
</mgrwt>
</event>
<event>
 4    1  0.8645356E-007  0.8239540E+03  0.7818608E-02  0.9661212E-01
         -2   -1    0    0    0  501 -0.00000000000E+00  0.00000000000E+00  0.10914988162E+04  0.10914988162E+04  0.25500000000E-02 0.  1.
          2   -1    0    0  501    0  0.00000000000E+00 -0.00000000000E+00 -0.52189061526E+03  0.52189061526E+03  0.25500000000E-02 0. -1.
    8880023    1    1    2    0    0 -0.21065931905E+03  0.44800970224E+03 -0.25459707070E+02  0.82434728419E+03  0.65864270000E+03 0. -1.
    8880022    1    1    2    0    0  0.21065931905E+03 -0.44800970224E+03  0.59506790796E+03  0.78904214723E+03  0.15294330000E+03 0.  0.
<mgrwt>
<rscale>  0 0.73373895E+03</rscale>
<asrwt>0</asrwt>
<pdfrwt beam="1">  1        2 0.80290865E-01 0.82395403E+03</pdfrwt>
<pdfrwt beam="2">  1       -2 0.16792289E+00 0.82395403E+03</pdfrwt>
<totfact> 0.13025438E+01</totfact>
</mgrwt>
</event>
<event>
 4    1  0.8645356E-007  0.6769100E+03  0.7818608E-02  0.1011128E+00
          2   -1    0    0  501    0  0.00000000000E+00  0.00000000000E+00  0.10730788552E+04  0.10730788552E+04  0.25500000000E-02 0. -1.
         -2   -1    0    0    0  501 -0.00000000000E+00 -0.00000000000E+00 -0.22474885851E+03  0.22474885852E+03  0.25500000000E-02 0.  1.
    8880023    1    1    2    0    0 -0.14858906426E+03  0.48148311903E+02  0.36888703794E+03  0.77089871123E+03  0.65864270000E+03 0.  1.
    8880022    1    1    2    0    0  0.14858906426E+03 -0.48148311903E+02  0.47944295872E+03  0.52692900247E+03  0.15294330000E+03 0.  0.
<mgrwt>
<rscale>  0 0.51028614E+03</rscale>
<asrwt>0</asrwt>
<pdfrwt beam="1">  1        2 0.16508906E+00 0.67691002E+03</pdfrwt>
<pdfrwt beam="2">  1       -2 0.34576747E-01 0.67691002E+03</pdfrwt>
<totfact> 0.18037326E+02</totfact>
</mgrwt>
</event>
<event>
 4    1  0.8645356E-007  0.7427319E+03  0.7818608E-02  0.9852060E-01
          2   -1    0    0  501    0  0.00000000000E+00  0.00000000000E+00  0.30795220733E+04  0.30795220733E+04  0.25500000000E-02 0. -1.
         -2   -1    0    0    0  501 -0.00000000000E+00 -0.00000000000E+00 -0.66860151361E+03  0.66860151362E+03  0.25500000000E-02 0.  1.
    8880023    1    1    2    0    0 -0.33692711731E+03  0.65731115564E+02 -0.44615865496E+03  0.86643419461E+03  0.65864270000E+03 0.  1.
    8880022    1    1    2    0    0  0.33692711731E+03 -0.65731115564E+02  0.28570792147E+04  0.28816893923E+04  0.15294330000E+03 0.  0.
<mgrwt>
<rscale>  0 0.62642018E+03</rscale>
<asrwt>0</asrwt>
<pdfrwt beam="1">  1        2 0.47377262E+00 0.74273190E+03</pdfrwt>
<pdfrwt beam="2">  1       -2 0.10286177E+00 0.74273190E+03</pdfrwt>
<totfact> 0.12846771E+00</totfact>
</mgrwt>
</event>
<event>
 4    1  0.8645356E-007  0.7501174E+03  0.7818608E-02  0.9831399E-01
          2   -1    0    0  501    0  0.00000000000E+00  0.00000000000E+00  0.24317109953E+04  0.24317109953E+04  0.25500000000E-02 0. -1.
         -2   -1    0    0    0  501 -0.00000000000E+00 -0.00000000000E+00 -0.31508012919E+03  0.31508012920E+03  0.25500000000E-02 0.  1.
    8880023    1    1    2    0    0  0.66473594533E+02  0.35277075159E+03  0.18022815040E+03  0.77146505715E+03  0.65864270000E+03 0.  0.
    8880022    1    1    2    0    0 -0.66473594533E+02 -0.35277075159E+03  0.19364027157E+04  0.19753260674E+04  0.15294330000E+03 0.  0.
<mgrwt>
<rscale>  0 0.63704383E+03</rscale>
<asrwt>0</asrwt>
<pdfrwt beam="1">  1        2 0.37410939E+00 0.75011742E+03</pdfrwt>
<pdfrwt beam="2">  1       -2 0.48473865E-01 0.75011742E+03</pdfrwt>
<totfact> 0.16058793E+01</totfact>
</mgrwt>
</event>
<event>
 4    1  0.8645356E-007  0.8142284E+03  0.7818608E-02  0.9680836E-01
         -2   -1    0    0    0  501 -0.00000000000E+00  0.00000000000E+00  0.31008809663E+03  0.31008809664E+03  0.25500000000E-02 0.  1.
          2   -1    0    0  501    0  0.00000000000E+00 -0.00000000000E+00 -0.20490879180E+04  0.20490879180E+04  0.25500000000E-02 0. -1.
    8880023    1    1    2    0    0 -0.35255802244E+03 -0.32382175266E+03 -0.35776750060E+03  0.88936239938E+03  0.65864270000E+03 0.  1.
    8880022    1    1    2    0    0  0.35255802244E+03  0.32382175266E+03 -0.13812323208E+04  0.14698136153E+04  0.15294330000E+03 0.  0.
<mgrwt>
<rscale>  0 0.72169379E+03</rscale>
<asrwt>0</asrwt>
<pdfrwt beam="1">  1        2 0.31524429E+00 0.81422840E+03</pdfrwt>
<pdfrwt beam="2">  1       -2 0.47705862E-01 0.81422840E+03</pdfrwt>
<totfact> 0.26786931E+01</totfact>
</mgrwt>
</event>
<event>
 4    1  0.8645356E-007  0.1012463E+04  0.7818608E-02  0.9365431E-01
         -2   -1    0    0    0  501 -0.00000000000E+00  0.00000000000E+00  0.66826051147E+03  0.66826051147E+03  0.25500000000E-02 0.  1.
          2   -1    0    0  501    0  0.00000000000E+00 -0.00000000000E+00 -0.16129486036E+04  0.16129486036E+04  0.25500000000E-02 0. -1.
    8880023    1    1    2    0    0  0.68729387427E+03  0.34481604306E+03 -0.10858054224E+04  0.14846058718E+04  0.65864270000E+03 0. -1.
    8880022    1    1    2    0    0 -0.68729387427E+03 -0.34481604306E+03  0.14111733029E+03  0.79660324320E+03  0.15294330000E+03 0.  0.
<mgrwt>
<rscale>  0 0.94976016E+03</rscale>
<asrwt>0</asrwt>
<pdfrwt beam="1">  1        2 0.24814594E+00 0.10124629E+04</pdfrwt>
<pdfrwt beam="2">  1       -2 0.10280931E+00 0.10124629E+04</pdfrwt>
<totfact> 0.84358748E+00</totfact>
</mgrwt>
</event>
<event>
 4    1  0.8645356E-007  0.8346109E+03  0.7818608E-02  0.9640427E-01
          2   -1    0    0  501    0  0.00000000000E+00  0.00000000000E+00  0.14746077625E+04  0.14746077625E+04  0.25500000000E-02 0. -1.
         -2   -1    0    0    0  501 -0.00000000000E+00 -0.00000000000E+00 -0.66376244520E+03  0.66376244521E+03  0.25500000000E-02 0.  1.
    8880023    1    1    2    0    0  0.50483733183E+03  0.88907031590E+02 -0.31486064404E+03  0.89202725480E+03  0.65864270000E+03 0.  0.
    8880022    1    1    2    0    0 -0.50483733183E+03 -0.88907031590E+02  0.11257059614E+04  0.12463429529E+04  0.15294330000E+03 0.  0.
<mgrwt>
<rscale>  0 0.74677293E+03</rscale>
<asrwt>0</asrwt>
<pdfrwt beam="1">  1        2 0.22686273E+00 0.83461093E+03</pdfrwt>
<pdfrwt beam="2">  1       -2 0.10211730E+00 0.83461093E+03</pdfrwt>
<totfact> 0.10446838E+01</totfact>
</mgrwt>
</event>
<event>
 4    1  0.8645356E-007  0.6632433E+03  0.7818608E-02  0.1021055E+00
          2   -1    0    0  501    0  0.00000000000E+00  0.00000000000E+00  0.55519500354E+03  0.55519500355E+03  0.25500000000E-02 0. -1.
         -2   -1    0    0    0  501 -0.00000000000E+00 -0.00000000000E+00 -0.12840588143E+04  0.12840588143E+04  0.25500000000E-02 0.  1.
    8880023    1    1    2    0    0 -0.67687602911E+02  0.38728538767E+02 -0.11816242043E+04  0.13550378141E+04  0.65864270000E+03 0.  1.
    8880022    1    1    2    0    0  0.67687602911E+02 -0.38728538767E+02  0.45276039352E+03  0.48421600372E+03  0.15294330000E+03 0.  0.
<mgrwt>
<rscale>  0 0.47307829E+03</rscale>
<asrwt>0</asrwt>
<pdfrwt beam="1">  1        2 0.85414617E-01 0.66324333E+03</pdfrwt>
<pdfrwt beam="2">  1       -2 0.19754751E+00 0.66324333E+03</pdfrwt>
<totfact> 0.77422783E+00</totfact>
</mgrwt>
</event>
<event>
 4    1  0.8645356E-007  0.7901492E+03  0.7818608E-02  0.9732515E-01
          2   -1    0    0  501    0  0.00000000000E+00  0.00000000000E+00  0.85276029376E+03  0.85276029376E+03  0.25500000000E-02 0. -1.
         -2   -1    0    0    0  501 -0.00000000000E+00 -0.00000000000E+00 -0.61249581895E+03  0.61249581895E+03  0.25500000000E-02 0.  1.
    8880023    1    1    2    0    0  0.43647261067E+03 -0.41404976269E+01 -0.21228781230E+03  0.81816978990E+03  0.65864270000E+03 0.  0.
    8880022    1    1    2    0    0 -0.43647261067E+03  0.41404976269E+01  0.45255228711E+03  0.64708632282E+03  0.15294330000E+03 0.  0.
<mgrwt>
<rscale>  0 0.69113440E+03</rscale>
<asrwt>0</asrwt>
<pdfrwt beam="1">  1        2 0.13119389E+00 0.79014916E+03</pdfrwt>
<pdfrwt beam="2">  1       -2 0.94230126E-01 0.79014916E+03</pdfrwt>
<totfact> 0.30345916E+01</totfact>
</mgrwt>
</event>
<event>
 4    1  0.8645356E-007  0.1405674E+04  0.7818608E-02  0.8979286E-01
          2   -1    0    0  501    0  0.00000000000E+00  0.00000000000E+00  0.32565514981E+04  0.32565514981E+04  0.25500000000E-02 0. -1.
         -2   -1    0    0    0  501 -0.00000000000E+00 -0.00000000000E+00 -0.10919159735E+04  0.10919159735E+04  0.25500000000E-02 0.  1.
    8880023    1    1    2    0    0  0.93967333526E+03 -0.81186464755E+03 -0.42826683550E+03  0.14694668665E+04  0.65864270000E+03 0.  1.
    8880022    1    1    2    0    0 -0.93967333526E+03  0.81186464755E+03  0.25929023601E+04  0.28790006052E+04  0.15294330000E+03 0.  0.
<mgrwt>
<rscale>  0 0.13653539E+04</rscale>
<asrwt>0</asrwt>
<pdfrwt beam="1">  1        2 0.50100792E+00 0.14056744E+04</pdfrwt>
<pdfrwt beam="2">  1       -2 0.16798707E+00 0.14056744E+04</pdfrwt>
<totfact> 0.25164910E-01</totfact>
</mgrwt>
</event>
<event>
 4    1  0.8645356E-007  0.7036528E+03  0.7818608E-02  0.9982372E-01
         -2   -1    0    0    0  501 -0.00000000000E+00  0.00000000000E+00  0.22578041453E+04  0.22578041453E+04  0.25500000000E-02 0.  1.
          2   -1    0    0  501    0  0.00000000000E+00 -0.00000000000E+00 -0.25286970256E+03  0.25286970257E+03  0.25500000000E-02 0. -1.
    8880023    1    1    2    0    0 -0.24353042988E+03  0.44833268639E+02  0.20917685538E+04  0.22069487944E+04  0.65864270000E+03 0.  1.
    8880022    1    1    2    0    0  0.24353042988E+03 -0.44833268639E+02 -0.86834111039E+02  0.30372505347E+03  0.15294330000E+03 0.  0.
<mgrwt>
<rscale>  0 0.56429975E+03</rscale>
<asrwt>0</asrwt>
<pdfrwt beam="1">  1        2 0.38903031E-01 0.70365283E+03</pdfrwt>
<pdfrwt beam="2">  1       -2 0.34735448E+00 0.70365283E+03</pdfrwt>
<totfact> 0.22736143E+00</totfact>
</mgrwt>
</event>
<event>
 4    1  0.8645356E-007  0.7855041E+03  0.7818608E-02  0.9743063E-01
          2   -1    0    0  501    0  0.00000000000E+00  0.00000000000E+00  0.28665954450E+04  0.28665954450E+04  0.25500000000E-02 0. -1.
         -2   -1    0    0    0  501 -0.00000000000E+00 -0.00000000000E+00 -0.13470496744E+03  0.13470496746E+03  0.25500000000E-02 0.  1.
    8880023    1    1    2    0    0  0.10541617930E+03  0.41484210144E+03  0.16322760593E+04  0.18114474543E+04  0.65864270000E+03 0. -1.
    8880022    1    1    2    0    0 -0.10541617930E+03 -0.41484210144E+03  0.10996144183E+04  0.11898529581E+04  0.15294330000E+03 0.  1.
<mgrwt>
<rscale>  0 0.68509717E+03</rscale>
<asrwt>0</asrwt>
<pdfrwt beam="1">  1        2 0.44101467E+00 0.78550414E+03</pdfrwt>
<pdfrwt beam="2">  1       -2 0.20723842E-01 0.78550414E+03</pdfrwt>
<totfact> 0.44178474E+01</totfact>
</mgrwt>
</event>
<event>
 4    1  0.8645356E-007  0.7659525E+03  0.7818608E-02  0.9789934E-01
         -2   -1    0    0    0  501 -0.00000000000E+00  0.00000000000E+00  0.57249416569E+03  0.57249416570E+03  0.25500000000E-02 0.  1.
          2   -1    0    0  501    0  0.00000000000E+00 -0.00000000000E+00 -0.65988638936E+03  0.65988638936E+03  0.25500000000E-02 0. -1.
    8880023    1    1    2    0    0  0.10698954020E+03 -0.37606679842E+03 -0.21143751797E+03  0.79459991748E+03  0.65864270000E+03 0. -1.
    8880022    1    1    2    0    0 -0.10698954020E+03  0.37606679842E+03  0.12404529431E+03  0.43778063758E+03  0.15294330000E+03 0.  0.
<mgrwt>
<rscale>  0 0.65905555E+03</rscale>
<asrwt>0</asrwt>
<pdfrwt beam="1">  1        2 0.10152098E+00 0.76595248E+03</pdfrwt>
<pdfrwt beam="2">  1       -2 0.88076025E-01 0.76595248E+03</pdfrwt>
<totfact> 0.49577521E+01</totfact>
</mgrwt>
</event>
<event>
 4    1  0.8645356E-007  0.6783843E+03  0.7818608E-02  0.1010253E+00
          2   -1    0    0  501    0  0.00000000000E+00  0.00000000000E+00  0.16465276877E+04  0.16465276877E+04  0.25500000000E-02 0. -1.
         -2   -1    0    0    0  501 -0.00000000000E+00 -0.00000000000E+00 -0.18052035314E+03  0.18052035316E+03  0.25500000000E-02 0.  1.
    8880023    1    1    2    0    0  0.21444633523E+02 -0.16104395853E+03  0.51910140513E+03  0.85420811513E+03  0.65864270000E+03 0.  1.
    8880022    1    1    2    0    0 -0.21444633523E+02  0.16104395853E+03  0.94690592939E+03  0.97283992569E+03  0.15294330000E+03 0.  0.
<mgrwt>
<rscale>  0 0.51374308E+03</rscale>
<asrwt>0</asrwt>
<pdfrwt beam="1">  1        2 0.25331194E+00 0.67838428E+03</pdfrwt>
<pdfrwt beam="2">  1       -2 0.27772364E-01 0.67838428E+03</pdfrwt>
<totfact> 0.12745498E+02</totfact>
</mgrwt>
</event>
<event>
 4    1  0.8645356E-007  0.8849909E+03  0.7818608E-02  0.9550569E-01
          2   -1    0    0  501    0  0.00000000000E+00  0.00000000000E+00  0.16909825363E+04  0.16909825363E+04  0.25500000000E-02 0. -1.
         -2   -1    0    0    0  501 -0.00000000000E+00 -0.00000000000E+00 -0.43311781883E+03  0.43311781884E+03  0.25500000000E-02 0.  1.
    8880023    1    1    2    0    0  0.54886433595E+03 -0.21942343585E+03  0.12268653357E+04  0.15127483140E+04  0.65864270000E+03 0.  0.
    8880022    1    1    2    0    0 -0.54886433595E+03  0.21942343585E+03  0.30999381807E+02  0.61135204111E+03  0.15294330000E+03 0.  1.
<mgrwt>
<rscale>  0 0.80656095E+03</rscale>
<asrwt>0</asrwt>
<pdfrwt beam="1">  1        2 0.26015116E+00 0.88499091E+03</pdfrwt>
<pdfrwt beam="2">  1       -2 0.66633511E-01 0.88499091E+03</pdfrwt>
<totfact> 0.20762318E+01</totfact>
</mgrwt>
</event>
<event>
 4    1  0.8645356E-007  0.7421430E+03  0.7818608E-02  0.9853748E-01
         -2   -1    0    0    0  501 -0.00000000000E+00  0.00000000000E+00  0.12848121795E+03  0.12848121798E+03  0.25500000000E-02 0.  1.
          2   -1    0    0  501    0  0.00000000000E+00 -0.00000000000E+00 -0.26545434649E+04  0.26545434649E+04  0.25500000000E-02 0. -1.
    8880023    1    1    2    0    0  0.69582947500E+02  0.33484960535E+03 -0.12561529949E+04  0.14590053453E+04  0.65864270000E+03 0.  1.
    8880022    1    1    2    0    0 -0.69582947500E+02 -0.33484960535E+03 -0.12699092521E+04  0.13240193376E+04  0.15294330000E+03 0.  0.
<mgrwt>
<rscale>  0 0.62556182E+03</rscale>
<asrwt>0</asrwt>
<pdfrwt beam="1">  1        2 0.40839126E+00 0.74214301E+03</pdfrwt>
<pdfrwt beam="2">  1       -2 0.19766343E-01 0.74214301E+03</pdfrwt>
<totfact> 0.64333060E+01</totfact>
</mgrwt>
</event>
<event>
 4    1  0.8645356E-007  0.9640448E+03  0.7818608E-02  0.9430188E-01
         -2   -1    0    0    0  501 -0.00000000000E+00  0.00000000000E+00  0.25153680644E+03  0.25153680646E+03  0.25500000000E-02 0.  1.
          2   -1    0    0  501    0  0.00000000000E+00 -0.00000000000E+00 -0.33069845812E+04  0.33069845812E+04  0.25500000000E-02 0. -1.
    8880023    1    1    2    0    0 -0.70227106030E+03 -0.48862575104E+02 -0.10394975344E+04  0.14177226540E+04  0.65864270000E+03 0.  1.
    8880022    1    1    2    0    0  0.70227106030E+03  0.48862575104E+02 -0.20159502404E+04  0.21407987336E+04  0.15294330000E+03 0.  0.
<mgrwt>
<rscale>  0 0.89632406E+03</rscale>
<asrwt>0</asrwt>
<pdfrwt beam="1">  1        2 0.50876683E+00 0.96404481E+03</pdfrwt>
<pdfrwt beam="2">  1       -2 0.38697973E-01 0.96404481E+03</pdfrwt>
<totfact> 0.72073156E+00</totfact>
</mgrwt>
</event>
<event>
 4    1  0.8645356E-007  0.7096780E+03  0.7818608E-02  0.9959199E-01
          2   -1    0    0  501    0  0.00000000000E+00  0.00000000000E+00  0.17080771447E+04  0.17080771447E+04  0.25500000000E-02 0. -1.
         -2   -1    0    0    0  501 -0.00000000000E+00 -0.00000000000E+00 -0.21023025322E+03  0.21023025324E+03  0.25500000000E-02 0.  1.
    8880023    1    1    2    0    0  0.15189404046E+03  0.21624258911E+03  0.48280320550E+03  0.85833664630E+03  0.65864270000E+03 0.  0.
    8880022    1    1    2    0    0 -0.15189404046E+03 -0.21624258911E+03  0.10150436860E+04  0.10599707516E+04  0.15294330000E+03 0.  0.
<mgrwt>
<rscale>  0 0.57476082E+03</rscale>
<asrwt>0</asrwt>
<pdfrwt beam="1">  1        2 0.26278111E+00 0.70967800E+03</pdfrwt>
<pdfrwt beam="2">  1       -2 0.32343115E-01 0.70967800E+03</pdfrwt>
<totfact> 0.88644806E+01</totfact>
</mgrwt>
</event>
<event>
 4    1  0.8645356E-007  0.6628249E+03  0.7818608E-02  0.1021432E+00
         -2   -1    0    0    0  501 -0.00000000000E+00  0.00000000000E+00  0.21341435706E+03  0.21341435708E+03  0.25500000000E-02 0.  1.
          2   -1    0    0  501    0  0.00000000000E+00 -0.00000000000E+00 -0.11552298334E+04  0.11552298334E+04  0.25500000000E-02 0. -1.
    8880023    1    1    2    0    0  0.72892656786E+02  0.14606050558E+02 -0.34332716492E+03  0.74646528691E+03  0.65864270000E+03 0.  1.
    8880022    1    1    2    0    0 -0.72892656786E+02 -0.14606050558E+02 -0.59848831142E+03  0.62217890357E+03  0.15294330000E+03 0.  0.
<mgrwt>
<rscale>  0 0.47173247E+03</rscale>
<asrwt>0</asrwt>
<pdfrwt beam="1">  1        2 0.17772766E+00 0.66282493E+03</pdfrwt>
<pdfrwt beam="2">  1       -2 0.32832979E-01 0.66282493E+03</pdfrwt>
<totfact> 0.17751616E+02</totfact>
</mgrwt>
</event>
<event>
 4    1  0.8645356E-007  0.1293939E+04  0.7818608E-02  0.9070811E-01
         -2   -1    0    0    0  501 -0.00000000000E+00  0.00000000000E+00  0.18100946517E+04  0.18100946517E+04  0.25500000000E-02 0.  1.
          2   -1    0    0  501    0  0.00000000000E+00 -0.00000000000E+00 -0.13937780565E+04  0.13937780565E+04  0.25500000000E-02 0. -1.
    8880023    1    1    2    0    0 -0.11110581135E+04  0.77580733825E+02 -0.82074945569E+03  0.15322887382E+04  0.65864270000E+03 0.  0.
    8880022    1    1    2    0    0  0.11110581135E+04 -0.77580733825E+02  0.12370660508E+04  0.16715839701E+04  0.15294330000E+03 0.  0.
<mgrwt>
<rscale>  0 0.12492456E+04</rscale>
<asrwt>0</asrwt>
<pdfrwt beam="1">  1        2 0.21442739E+00 0.12939394E+04</pdfrwt>
<pdfrwt beam="2">  1       -2 0.27847610E+00 0.12939394E+04</pdfrwt>
<totfact> 0.60438015E-01</totfact>
</mgrwt>
</event>
<event>
 4    1  0.8645356E-007  0.7263256E+03  0.7818608E-02  0.9901736E-01
          2   -1    0    0  501    0  0.00000000000E+00  0.00000000000E+00  0.18021340325E+03  0.18021340327E+03  0.25500000000E-02 0. -1.
         -2   -1    0    0    0  501 -0.00000000000E+00 -0.00000000000E+00 -0.31383828282E+04  0.31383828282E+04  0.25500000000E-02 0.  1.
    8880023    1    1    2    0    0 -0.22013613391E+03  0.21278799108E+03 -0.28764467823E+04  0.29667313569E+04  0.65864270000E+03 0.  1.
    8880022    1    1    2    0    0  0.22013613391E+03 -0.21278799108E+03 -0.81722642679E+02  0.35186487455E+03  0.15294330000E+03 0.  0.
<mgrwt>
<rscale>  0 0.60177226E+03</rscale>
<asrwt>0</asrwt>
<pdfrwt beam="1">  1        2 0.27725141E-01 0.72632558E+03</pdfrwt>
<pdfrwt beam="2">  1       -2 0.48282809E+00 0.72632558E+03</pdfrwt>
<totfact> 0.43851271E-01</totfact>
</mgrwt>
</event>
<event>
 4    1  0.8645356E-007  0.7191633E+03  0.7818608E-02  0.9925427E-01
          2   -1    0    0  501    0  0.00000000000E+00  0.00000000000E+00  0.61884944767E+03  0.61884944767E+03  0.25500000000E-02 0. -1.
         -2   -1    0    0    0  501 -0.00000000000E+00 -0.00000000000E+00 -0.15472680532E+04  0.15472680532E+04  0.25500000000E-02 0.  1.
    8880023    1    1    2    0    0  0.79595857116E+02 -0.27757904292E+03 -0.14107723138E+04  0.15835006641E+04  0.65864270000E+03 0.  0.
    8880022    1    1    2    0    0 -0.79595857116E+02  0.27757904292E+03  0.48235370830E+03  0.58261683675E+03  0.15294330000E+03 0.  0.
<mgrwt>
<rscale>  0 0.59044641E+03</rscale>
<asrwt>0</asrwt>
<pdfrwt beam="1">  1        2 0.95207608E-01 0.71916329E+03</pdfrwt>
<pdfrwt beam="2">  1       -2 0.23804124E+00 0.71916329E+03</pdfrwt>
<totfact> 0.37545596E+00</totfact>
</mgrwt>
</event>
<event>
 4    1  0.8645356E-007  0.6667959E+03  0.7818608E-02  0.1018072E+00
         -2   -1    0    0    0  501 -0.00000000000E+00  0.00000000000E+00  0.17637265522E+03  0.17637265524E+03  0.25500000000E-02 0.  1.
          2   -1    0    0  501    0  0.00000000000E+00 -0.00000000000E+00 -0.10284386150E+04  0.10284386150E+04  0.25500000000E-02 0. -1.
    8880023    1    1    2    0    0  0.91721914822E+02  0.48925624276E+02 -0.66062182083E+03  0.93863625691E+03  0.65864270000E+03 0.  1.
    8880022    1    1    2    0    0 -0.91721914822E+02 -0.48925624276E+02 -0.19144413894E+03  0.26617501332E+03  0.15294330000E+03 0. -1.
<mgrwt>
<rscale>  0 0.48388844E+03</rscale>
<asrwt>0</asrwt>
<pdfrwt beam="1">  1        2 0.15822132E+00 0.66679595E+03</pdfrwt>
<pdfrwt beam="2">  1       -2 0.27134255E-01 0.66679595E+03</pdfrwt>
<totfact> 0.30196256E+02</totfact>
</mgrwt>
</event>
<event>
 4    1  0.8645356E-007  0.7061050E+03  0.7818608E-02  0.9972760E-01
          2   -1    0    0  501    0  0.00000000000E+00  0.00000000000E+00  0.19905821578E+04  0.19905821578E+04  0.25500000000E-02 0. -1.
         -2   -1    0    0    0  501 -0.00000000000E+00 -0.00000000000E+00 -0.22685304607E+03  0.22685304609E+03  0.25500000000E-02 0.  1.
    8880023    1    1    2    0    0  0.75700493409E+02  0.24298858581E+03  0.37931839456E+03  0.80154018505E+03  0.65864270000E+03 0.  0.
    8880022    1    1    2    0    0 -0.75700493409E+02 -0.24298858581E+03  0.13844107172E+04  0.14158950188E+04  0.15294330000E+03 0.  0.
<mgrwt>
<rscale>  0 0.56860986E+03</rscale>
<asrwt>0</asrwt>
<pdfrwt beam="1">  1        2 0.30624340E+00 0.70610497E+03</pdfrwt>
<pdfrwt beam="2">  1       -2 0.34900470E-01 0.70610497E+03</pdfrwt>
<totfact> 0.53899939E+01</totfact>
</mgrwt>
</event>
<event>
 4    1  0.8645356E-007  0.7495740E+03  0.7818608E-02  0.9832888E-01
          2   -1    0    0  501    0  0.00000000000E+00  0.00000000000E+00  0.23788535748E+04  0.23788535748E+04  0.25500000000E-02 0. -1.
         -2   -1    0    0    0  501 -0.00000000000E+00 -0.00000000000E+00 -0.23281003928E+03  0.23281003929E+03  0.25500000000E-02 0.  1.
    8880023    1    1    2    0    0 -0.29325218115E+03 -0.20507093622E+03  0.45597019986E+03  0.87736535153E+03  0.65864270000E+03 0.  1.
    8880022    1    1    2    0    0  0.29325218115E+03  0.20507093622E+03  0.16900733356E+04  0.17342982625E+04  0.15294330000E+03 0.  0.
<mgrwt>
<rscale>  0 0.63627063E+03</rscale>
<asrwt>0</asrwt>
<pdfrwt beam="1">  1        2 0.36597749E+00 0.74957397E+03</pdfrwt>
<pdfrwt beam="2">  1       -2 0.35816927E-01 0.74957397E+03</pdfrwt>
<totfact> 0.31171806E+01</totfact>
</mgrwt>
</event>
<event>
 4    1  0.8645356E-007  0.8286779E+03  0.7818608E-02  0.9651910E-01
         -2   -1    0    0    0  501 -0.00000000000E+00  0.00000000000E+00  0.23464748668E+03  0.23464748670E+03  0.25500000000E-02 0.  1.
          2   -1    0    0  501    0  0.00000000000E+00 -0.00000000000E+00 -0.25734644373E+04  0.25734644373E+04  0.25500000000E-02 0. -1.
    8880023    1    1    2    0    0  0.50037823187E+03 -0.50183958988E+02 -0.69255420072E+03  0.10799714496E+04  0.65864270000E+03 0.  1.
    8880022    1    1    2    0    0 -0.50037823187E+03  0.50183958988E+02 -0.16462627499E+04  0.17281404744E+04  0.15294330000E+03 0.  0.
<mgrwt>
<rscale>  0 0.73953656E+03</rscale>
<asrwt>0</asrwt>
<pdfrwt beam="1">  1        2 0.39591759E+00 0.82867787E+03</pdfrwt>
<pdfrwt beam="2">  1       -2 0.36099615E-01 0.82867787E+03</pdfrwt>
<totfact> 0.23564105E+01</totfact>
</mgrwt>
</event>
<event>
 4    1  0.8645356E-007  0.6832430E+03  0.7818608E-02  0.1007546E+00
         -2   -1    0    0    0  501 -0.00000000000E+00  0.00000000000E+00  0.39299606675E+03  0.39299606676E+03  0.25500000000E-02 0.  1.
          2   -1    0    0  501    0  0.00000000000E+00 -0.00000000000E+00 -0.16957686712E+04  0.16957686712E+04  0.25500000000E-02 0. -1.
    8880023    1    1    2    0    0 -0.87530317088E+02  0.15921446554E+03  0.78032636631E+02  0.68768459419E+03  0.65864270000E+03 0.  1.
    8880022    1    1    2    0    0  0.87530317088E+02 -0.15921446554E+03 -0.13808052411E+04  0.14010801438E+04  0.15294330000E+03 0.  0.
<mgrwt>
<rscale>  0 0.52461856E+03</rscale>
<asrwt>0</asrwt>
<pdfrwt beam="1">  1        2 0.26088748E+00 0.68324301E+03</pdfrwt>
<pdfrwt beam="2">  1       -2 0.60460934E-01 0.68324301E+03</pdfrwt>
<totfact> 0.26032840E+01</totfact>
</mgrwt>
</event>
<event>
 4    1  0.8645356E-007  0.6972272E+03  0.7818608E-02  0.1000890E+00
          2   -1    0    0  501    0  0.00000000000E+00  0.00000000000E+00  0.22973275275E+04  0.22973275275E+04  0.25500000000E-02 0. -1.
         -2   -1    0    0    0  501 -0.00000000000E+00 -0.00000000000E+00 -0.11304559488E+03  0.11304559491E+03  0.25500000000E-02 0.  1.
    8880023    1    1    2    0    0 -0.22715132666E+03  0.26792738755E+02  0.11948820622E+04  0.13834265159E+04  0.65864270000E+03 0.  1.
    8880022    1    1    2    0    0  0.22715132666E+03 -0.26792738755E+02  0.98939987042E+03  0.10269466065E+04  0.15294330000E+03 0.  0.
<mgrwt>
<rscale>  0 0.55261531E+03</rscale>
<asrwt>0</asrwt>
<pdfrwt beam="1">  1        2 0.35343496E+00 0.69722721E+03</pdfrwt>
<pdfrwt beam="2">  1       -2 0.17391632E-01 0.69722721E+03</pdfrwt>
<totfact> 0.12853647E+02</totfact>
</mgrwt>
</event>
<event>
 4    1  0.8645356E-007  0.1131731E+04  0.7818608E-02  0.9226524E-01
          2   -1    0    0  501    0  0.00000000000E+00  0.00000000000E+00  0.27793662857E+04  0.27793662857E+04  0.25500000000E-02 0. -1.
         -2   -1    0    0    0  501 -0.00000000000E+00 -0.00000000000E+00 -0.11717362394E+04  0.11717362394E+04  0.25500000000E-02 0.  1.
    8880023    1    1    2    0    0  0.22020585414E+03 -0.89359575558E+03 -0.78878294148E+03  0.13794900245E+04  0.65864270000E+03 0.  0.
    8880022    1    1    2    0    0 -0.22020585414E+03  0.89359575558E+03  0.23964129877E+04  0.25716125006E+04  0.15294330000E+03 0.  0.
<mgrwt>
<rscale>  0 0.10783802E+04</rscale>
<asrwt>0</asrwt>
<pdfrwt beam="1">  1        2 0.42759481E+00 0.11317306E+04</pdfrwt>
<pdfrwt beam="2">  1       -2 0.18026712E+00 0.11317306E+04</pdfrwt>
<totfact> 0.42534336E-01</totfact>
</mgrwt>
</event>
<event>
 4    1  0.8645356E-007  0.9846234E+03  0.7818608E-02  0.9401957E-01
          2   -1    0    0  501    0  0.00000000000E+00  0.00000000000E+00  0.27269852220E+04  0.27269852220E+04  0.25500000000E-02 0. -1.
         -2   -1    0    0    0  501 -0.00000000000E+00 -0.00000000000E+00 -0.27750430504E+03  0.27750430505E+03  0.25500000000E-02 0.  1.
    8880023    1    1    2    0    0  0.59664298024E+03 -0.42389880931E+03  0.15288184878E+04  0.18184524248E+04  0.65864270000E+03 0.  1.
    8880022    1    1    2    0    0 -0.59664298024E+03  0.42389880931E+03  0.92066242920E+03  0.11860371023E+04  0.15294330000E+03 0. -1.
<mgrwt>
<rscale>  0 0.91914785E+03</rscale>
<asrwt>0</asrwt>
<pdfrwt beam="1">  1        2 0.41953617E+00 0.98462341E+03</pdfrwt>
<pdfrwt beam="2">  1       -2 0.42692972E-01 0.98462341E+03</pdfrwt>
<totfact> 0.13557655E+01</totfact>
</mgrwt>
</event>
<event>
 4    1  0.1074716E-006  0.9517007E+03  0.7818608E-02  0.9447671E-01
          2   -1    0    0  501    0  0.00000000000E+00  0.00000000000E+00  0.21844259175E+04  0.21844259175E+04  0.25500000000E-02 0. -1.
         -2   -1    0    0    0  501 -0.00000000000E+00 -0.00000000000E+00 -0.11970612400E+04  0.11970612400E+04  0.25500000000E-02 0.  1.
    8880023    1    1    2    0    0  0.51044491192E+03  0.45974984992E+03 -0.93511667606E+03  0.13342328645E+04  0.65864270000E+03 0.  1.
    8880022    1    1    2    0    0 -0.51044491192E+03 -0.45974984992E+03  0.19224813536E+04  0.20472542931E+04  0.15294330000E+03 0.  0.
<mgrwt>
<rscale>  0 0.88254229E+03</rscale>
<asrwt>0</asrwt>
<pdfrwt beam="1">  1        2 0.33606552E+00 0.95170066E+03</pdfrwt>
<pdfrwt beam="2">  1       -2 0.18416327E+00 0.95170066E+03</pdfrwt>
<totfact> 0.90191628E-01</totfact>
</mgrwt>
</event>
<event>
 4    1  0.8645356E-007  0.8968627E+03  0.7818608E-02  0.9531087E-01
         -2   -1    0    0    0  501 -0.00000000000E+00  0.00000000000E+00  0.27700056442E+03  0.27700056443E+03  0.25500000000E-02 0.  1.
          2   -1    0    0  501    0  0.00000000000E+00 -0.00000000000E+00 -0.29479551791E+04  0.29479551791E+04  0.25500000000E-02 0. -1.
    8880023    1    1    2    0    0 -0.43804614486E+03 -0.42269151600E+03 -0.64690865494E+03  0.11058270917E+04  0.65864270000E+03 0.  0.
    8880022    1    1    2    0    0  0.43804614486E+03  0.42269151600E+03 -0.20240459598E+04  0.21191286518E+04  0.15294330000E+03 0.  0.
<mgrwt>
<rscale>  0 0.82030209E+03</rscale>
<asrwt>0</asrwt>
<pdfrwt beam="1">  1        2 0.45353154E+00 0.89686273E+03</pdfrwt>
<pdfrwt beam="2">  1       -2 0.42615474E-01 0.89686273E+03</pdfrwt>
<totfact> 0.10152776E+01</totfact>
</mgrwt>
</event>
<event>
 4    1  0.8645356E-007  0.6770739E+03  0.7818608E-02  0.1011030E+00
          2   -1    0    0  501    0  0.00000000000E+00  0.00000000000E+00  0.18071859536E+04  0.18071859536E+04  0.25500000000E-02 0. -1.
         -2   -1    0    0    0  501 -0.00000000000E+00 -0.00000000000E+00 -0.25929497418E+03  0.25929497419E+03  0.25500000000E-02 0.  1.
    8880023    1    1    2    0    0 -0.15668934702E+03  0.82072581343E+01  0.20729461666E+03  0.70809616219E+03  0.65864270000E+03 0.  1.
    8880022    1    1    2    0    0  0.15668934702E+03 -0.82072581343E+01  0.13405963627E+04  0.13583847656E+04  0.15294330000E+03 0.  0.
<mgrwt>
<rscale>  0 0.51067450E+03</rscale>
<asrwt>0</asrwt>
<pdfrwt beam="1">  1        2 0.27802862E+00 0.67707394E+03</pdfrwt>
<pdfrwt beam="2">  1       -2 0.39891533E-01 0.67707394E+03</pdfrwt>
<totfact> 0.52629054E+01</totfact>
</mgrwt>
</event>
<event>
 4    1  0.8645356E-007  0.6621642E+03  0.7818608E-02  0.1022041E+00
          2   -1    0    0  501    0  0.00000000000E+00  0.00000000000E+00  0.15068132211E+04  0.15068132211E+04  0.25500000000E-02 0. -1.
         -2   -1    0    0    0  501 -0.00000000000E+00 -0.00000000000E+00 -0.12406962214E+03  0.12406962216E+03  0.25500000000E-02 0.  1.
    8880023    1    1    2    0    0  0.39924968534E+02 -0.55292572474E+02  0.12595161371E+04  0.14229695631E+04  0.65864270000E+03 0. -1.
    8880022    1    1    2    0    0 -0.39924968534E+02  0.55292572474E+02  0.12322746182E+03  0.20791328011E+03  0.15294330000E+03 0.  1.
<mgrwt>
<rscale>  0 0.46957201E+03</rscale>
<asrwt>0</asrwt>
<pdfrwt beam="1">  1        2 0.23181741E+00 0.66216424E+03</pdfrwt>
<pdfrwt beam="2">  1       -2 0.19087635E-01 0.66216424E+03</pdfrwt>
<totfact> 0.29711695E+02</totfact>
</mgrwt>
</event>
<event>
 4    1  0.8645356E-007  0.6713061E+03  0.7818608E-02  0.1014743E+00
          2   -1    0    0  501    0  0.00000000000E+00  0.00000000000E+00  0.19443791439E+04  0.19443791439E+04  0.25500000000E-02 0. -1.
         -2   -1    0    0    0  501 -0.00000000000E+00 -0.00000000000E+00 -0.98276018035E+02  0.98276018068E+02  0.25500000000E-02 0.  1.
    8880023    1    1    2    0    0 -0.75465321587E+02  0.10557784779E+03  0.13552452677E+04  0.15123959926E+04  0.65864270000E+03 0.  1.
    8880022    1    1    2    0    0  0.75465321587E+02 -0.10557784779E+03  0.49085785815E+03  0.53025916930E+03  0.15294330000E+03 0. -1.
<mgrwt>
<rscale>  0 0.49632223E+03</rscale>
<asrwt>0</asrwt>
<pdfrwt beam="1">  1        2 0.29913527E+00 0.67130612E+03</pdfrwt>
<pdfrwt beam="2">  1       -2 0.15119387E-01 0.67130612E+03</pdfrwt>
<totfact> 0.25528051E+02</totfact>
</mgrwt>
</event>
