<event>
 4    5  0.7176259E-008  0.1131171E+04  0.7818608E-02  0.9227120E-01
         -1   -1    0    0    0  501 -0.00000000000E+00  0.00000000000E+00  0.54814033923E+03  0.54814033925E+03  0.50400000000E-02 0.  1.
          1   -1    0    0  501    0  0.00000000000E+00 -0.00000000000E+00 -0.20986891860E+04  0.20986891861E+04  0.50400000000E-02 0. -1.
    8880023    1    1    2    0    0  0.87148622658E+03  0.29368279182E+03 -0.12045599008E+04  0.16524262725E+04  0.65864270000E+03 0.  1.
    8880022    1    1    2    0    0 -0.87148622658E+03 -0.29368279182E+03 -0.34598894606E+03  0.99440325278E+03  0.15294330000E+03 0.  0.
<mgrwt>
<rscale>  0 0.10777841E+04</rscale>
<asrwt>0</asrwt>
<pdfrwt beam="1">  1        1 0.32287526E+00 0.11311711E+04</pdfrwt>
<pdfrwt beam="2">  1       -1 0.84329284E-01 0.11311711E+04</pdfrwt>
<totfact> 0.35427986E+00</totfact>
</mgrwt>
</event>
<event>
 4    5  0.7176259E-008  0.9379614E+03  0.7818608E-02  0.9467651E-01
         -1   -1    0    0    0  501 -0.00000000000E+00  0.00000000000E+00  0.66704792032E+03  0.66704792033E+03  0.50400000000E-02 0.  1.
          1   -1    0    0  501    0  0.00000000000E+00 -0.00000000000E+00 -0.14153899708E+04  0.14153899708E+04  0.50400000000E-02 0. -1.
    8880023    1    1    2    0    0  0.39485306301E+03  0.53856508221E+03 -0.98259242002E+03  0.13584032388E+04  0.65864270000E+03 0.  0.
    8880022    1    1    2    0    0 -0.39485306301E+03 -0.53856508221E+03  0.23425036952E+03  0.72403465233E+03  0.15294330000E+03 0.  0.
<mgrwt>
<rscale>  0 0.86711390E+03</rscale>
<asrwt>0</asrwt>
<pdfrwt beam="1">  1        1 0.21775230E+00 0.93796135E+03</pdfrwt>
<pdfrwt beam="2">  1       -1 0.10262276E+00 0.93796135E+03</pdfrwt>
<totfact> 0.68121705E+00</totfact>
</mgrwt>
</event>
<event>
 4    5  0.7176259E-008  0.1098037E+04  0.7818608E-02  0.9263245E-01
          1   -1    0    0  501    0  0.00000000000E+00  0.00000000000E+00  0.91873424146E+03  0.91873424148E+03  0.50400000000E-02 0. -1.
         -1   -1    0    0    0  501 -0.00000000000E+00 -0.00000000000E+00 -0.21012589832E+04  0.21012589832E+04  0.50400000000E-02 0.  1.
    8880023    1    1    2    0    0  0.86213456613E+03 -0.16911117980E+03  0.42844540153E+03  0.11786646129E+04  0.65864270000E+03 0. -1.
    8880022    1    1    2    0    0 -0.86213456613E+03  0.16911117980E+03 -0.16109701433E+04  0.18413286118E+04  0.15294330000E+03 0.  0.
<mgrwt>
<rscale>  0 0.10423816E+04</rscale>
<asrwt>0</asrwt>
<pdfrwt beam="1">  1        1 0.14134373E+00 0.10980368E+04</pdfrwt>
<pdfrwt beam="2">  1       -1 0.32327061E+00 0.10980368E+04</pdfrwt>
<totfact> 0.41002232E-01</totfact>
</mgrwt>
</event>
<event>
 4    5  0.7176259E-008  0.8589190E+03  0.7818608E-02  0.9595489E-01
         -1   -1    0    0    0  501 -0.00000000000E+00  0.00000000000E+00  0.44651115135E+03  0.44651115138E+03  0.50400000000E-02 0.  1.
          1   -1    0    0  501    0  0.00000000000E+00 -0.00000000000E+00 -0.51014638398E+04  0.51014638398E+04  0.50400000000E-02 0. -1.
    8880023    1    1    2    0    0  0.21105971688E+03 -0.50929902622E+03 -0.48637007663E+04  0.49389601185E+04  0.65864270000E+03 0.  0.
    8880022    1    1    2    0    0 -0.21105971688E+03  0.50929902622E+03  0.20874807778E+03  0.60901487272E+03  0.15294330000E+03 0.  0.
<mgrwt>
<rscale>  0 0.77595457E+03</rscale>
<asrwt>0</asrwt>
<pdfrwt beam="1">  1        1 0.78484055E+00 0.85891903E+03</pdfrwt>
<pdfrwt beam="2">  1       -1 0.68694027E-01 0.85891903E+03</pdfrwt>
<totfact> 0.15644174E-02</totfact>
</mgrwt>
</event>
<event>
 4    5  0.7176259E-008  0.8649129E+03  0.7818608E-02  0.9584883E-01
          1   -1    0    0  501    0  0.00000000000E+00  0.00000000000E+00  0.13212147234E+03  0.13212147244E+03  0.50400000000E-02 0. -1.
         -1   -1    0    0    0  501 -0.00000000000E+00 -0.00000000000E+00 -0.45627927582E+04  0.45627927582E+04  0.50400000000E-02 0.  1.
    8880023    1    1    2    0    0  0.56057200500E+03  0.48157868198E+01 -0.17510288289E+04  0.19529916361E+04  0.65864270000E+03 0. -1.
    8880022    1    1    2    0    0 -0.56057200500E+03 -0.48157868198E+01 -0.26796424569E+04  0.27419225945E+04  0.15294330000E+03 0.  0.
<mgrwt>
<rscale>  0 0.78304834E+03</rscale>
<asrwt>0</asrwt>
<pdfrwt beam="1">  1        1 0.20326384E-01 0.86491293E+03</pdfrwt>
<pdfrwt beam="2">  1       -1 0.70196800E+00 0.86491293E+03</pdfrwt>
<totfact> 0.52319039E-02</totfact>
</mgrwt>
</event>
<event>
 4    5  0.7176259E-008  0.1494439E+04  0.7818608E-02  0.8913573E-01
         -1   -1    0    0    0  501 -0.00000000000E+00  0.00000000000E+00  0.11781284092E+04  0.11781284092E+04  0.50400000000E-02 0.  1.
          1   -1    0    0  501    0  0.00000000000E+00 -0.00000000000E+00 -0.22157602542E+04  0.22157602542E+04  0.50400000000E-02 0. -1.
    8880023    1    1    2    0    0 -0.13919152171E+03  0.13342273339E+04 -0.13434498727E+04  0.20095284583E+04  0.65864270000E+03 0.  0.
    8880022    1    1    2    0    0  0.13919152171E+03 -0.13342273339E+04  0.30581802766E+03  0.13843602050E+04  0.15294330000E+03 0.  0.
<mgrwt>
<rscale>  0 0.14569840E+04</rscale>
<asrwt>0</asrwt>
<pdfrwt beam="1">  1        1 0.34088619E+00 0.14944387E+04</pdfrwt>
<pdfrwt beam="2">  1       -1 0.18125053E+00 0.14944387E+04</pdfrwt>
<totfact> 0.41035492E-01</totfact>
</mgrwt>
</event>
<event>
 4    5  0.7176259E-008  0.7990706E+03  0.7818608E-02  0.9712809E-01
         -1   -1    0    0    0  501 -0.00000000000E+00  0.00000000000E+00  0.78316344921E+03  0.78316344923E+03  0.50400000000E-02 0.  1.
          1   -1    0    0  501    0  0.00000000000E+00 -0.00000000000E+00 -0.11939765306E+04  0.11939765306E+04  0.50400000000E-02 0. -1.
    8880023    1    1    2    0    0 -0.30712291527E+03 -0.33223359908E+03 -0.96018959555E+03  0.12491909042E+04  0.65864270000E+03 0.  0.
    8880022    1    1    2    0    0  0.30712291527E+03  0.33223359908E+03  0.54937651415E+03  0.72794907566E+03  0.15294330000E+03 0.  0.
<mgrwt>
<rscale>  0 0.70259235E+03</rscale>
<asrwt>0</asrwt>
<pdfrwt beam="1">  1        1 0.18368870E+00 0.79907062E+03</pdfrwt>
<pdfrwt beam="2">  1       -1 0.12048668E+00 0.79907062E+03</pdfrwt>
<totfact> 0.68088975E+00</totfact>
</mgrwt>
</event>
<event>
 4    5  0.7176259E-008  0.1857581E+04  0.7818608E-02  0.8691336E-01
          1   -1    0    0  501    0  0.00000000000E+00  0.00000000000E+00  0.21000688191E+04  0.21000688191E+04  0.50400000000E-02 0. -1.
         -1   -1    0    0    0  501 -0.00000000000E+00 -0.00000000000E+00 -0.18444993049E+04  0.18444993049E+04  0.50400000000E-02 0.  1.
    8880023    1    1    2    0    0 -0.15249225920E+04  0.83150845419E+03  0.92713230475E+03  0.20760972370E+04  0.65864270000E+03 0.  0.
    8880022    1    1    2    0    0  0.15249225920E+04 -0.83150845419E+03 -0.67156279054E+03  0.18684708870E+04  0.15294330000E+03 0.  0.
<mgrwt>
<rscale>  0 0.18284087E+04</rscale>
<asrwt>0</asrwt>
<pdfrwt beam="1">  1        1 0.32308751E+00 0.18575805E+04</pdfrwt>
<pdfrwt beam="2">  1       -1 0.28376912E+00 0.18575805E+04</pdfrwt>
<totfact> 0.97014904E-02</totfact>
</mgrwt>
</event>
<event>
 4    5  0.7176259E-008  0.1085709E+04  0.7818608E-02  0.9277136E-01
          1   -1    0    0  501    0  0.00000000000E+00  0.00000000000E+00  0.10563568238E+04  0.10563568238E+04  0.50400000000E-02 0. -1.
         -1   -1    0    0    0  501 -0.00000000000E+00 -0.00000000000E+00 -0.10409205925E+04  0.10409205925E+04  0.50400000000E-02 0.  1.
    8880023    1    1    2    0    0 -0.53698152978E+03 -0.67572586392E+03 -0.35981384842E+03  0.11437791825E+04  0.65864270000E+03 0.  0.
    8880022    1    1    2    0    0  0.53698152978E+03  0.67572586392E+03  0.37525007971E+03  0.95349823379E+03  0.15294330000E+03 0.  0.
<mgrwt>
<rscale>  0 0.10291527E+04</rscale>
<asrwt>0</asrwt>
<pdfrwt beam="1">  1        1 0.16251643E+00 0.10857094E+04</pdfrwt>
<pdfrwt beam="2">  1       -1 0.16014163E+00 0.10857094E+04</pdfrwt>
<totfact> 0.39621847E+00</totfact>
</mgrwt>
</event>
<event>
 4    5  0.7176259E-008  0.9408539E+03  0.7818608E-02  0.9463397E-01
         -1   -1    0    0    0  501 -0.00000000000E+00  0.00000000000E+00  0.33600623088E+03  0.33600623091E+03  0.50400000000E-02 0.  1.
          1   -1    0    0  501    0  0.00000000000E+00 -0.00000000000E+00 -0.30441197309E+04  0.30441197309E+04  0.50400000000E-02 0. -1.
    8880023    1    1    2    0    0  0.29607021382E+03 -0.60310712221E+03 -0.24829367889E+04  0.26552177079E+04  0.65864270000E+03 0. -1.
    8880022    1    1    2    0    0 -0.29607021382E+03  0.60310712221E+03 -0.22517671112E+03  0.72490825393E+03  0.15294330000E+03 0.  0.
<mgrwt>
<rscale>  0 0.87037023E+03</rscale>
<asrwt>0</asrwt>
<pdfrwt beam="1">  1        1 0.46832609E+00 0.94085386E+03</pdfrwt>
<pdfrwt beam="2">  1       -1 0.51693268E-01 0.94085386E+03</pdfrwt>
<totfact> 0.21699146E+00</totfact>
</mgrwt>
</event>
<event>
 4    5  0.7176259E-008  0.9306851E+03  0.7818608E-02  0.9478466E-01
         -1   -1    0    0    0  501 -0.00000000000E+00  0.00000000000E+00  0.46736095844E+03  0.46736095847E+03  0.50400000000E-02 0.  1.
          1   -1    0    0  501    0  0.00000000000E+00 -0.00000000000E+00 -0.25255129569E+04  0.25255129569E+04  0.50400000000E-02 0. -1.
    8880023    1    1    2    0    0  0.62825125792E+03 -0.19407429229E+03 -0.21196604151E+04  0.23149805518E+04  0.65864270000E+03 0. -1.
    8880022    1    1    2    0    0 -0.62825125792E+03  0.19407429229E+03  0.61508416589E+02  0.67789336354E+03  0.15294330000E+03 0.  0.
<mgrwt>
<rscale>  0 0.85890201E+03</rscale>
<asrwt>0</asrwt>
<pdfrwt beam="1">  1        1 0.38854045E+00 0.93068506E+03</pdfrwt>
<pdfrwt beam="2">  1       -1 0.71901688E-01 0.93068506E+03</pdfrwt>
<totfact> 0.26149673E+00</totfact>
</mgrwt>
</event>
<event>
 4    5  0.7176259E-008  0.7445607E+03  0.7818608E-02  0.9846856E-01
         -1   -1    0    0    0  501 -0.00000000000E+00  0.00000000000E+00  0.10537337409E+04  0.10537337410E+04  0.50400000000E-02 0.  1.
          1   -1    0    0  501    0  0.00000000000E+00 -0.00000000000E+00 -0.44963148663E+03  0.44963148666E+03  0.50400000000E-02 0. -1.
    8880023    1    1    2    0    0 -0.34698032173E+03  0.12846575722E+02 -0.51020340595E+02  0.74630667932E+03  0.65864270000E+03 0. -1.
    8880022    1    1    2    0    0  0.34698032173E+03 -0.12846575722E+02  0.65512259491E+03  0.75705854830E+03  0.15294330000E+03 0.  0.
<mgrwt>
<rscale>  0 0.62907480E+03</rscale>
<asrwt>0</asrwt>
<pdfrwt beam="1">  1        1 0.69174075E-01 0.74456067E+03</pdfrwt>
<pdfrwt beam="2">  1       -1 0.16211288E+00 0.74456067E+03</pdfrwt>
<totfact> 0.14851201E+01</totfact>
</mgrwt>
</event>
<event>
 4    5  0.7176259E-008  0.6925990E+03  0.7818608E-02  0.1002941E+00
         -1   -1    0    0    0  501 -0.00000000000E+00  0.00000000000E+00  0.23422279554E+03  0.23422279560E+03  0.50400000000E-02 0.  1.
          1   -1    0    0  501    0  0.00000000000E+00 -0.00000000000E+00 -0.22400635975E+04  0.22400635975E+04  0.50400000000E-02 0. -1.
    8880023    1    1    2    0    0 -0.10558129315E+03 -0.18637531062E+03 -0.20869465151E+04  0.21988722402E+04  0.65864270000E+03 0.  0.
    8880022    1    1    2    0    0  0.10558129315E+03  0.18637531062E+03  0.81105713125E+02  0.27541415285E+03  0.15294330000E+03 0.  0.
<mgrwt>
<rscale>  0 0.54379263E+03</rscale>
<asrwt>0</asrwt>
<pdfrwt beam="1">  1        1 0.34462515E+00 0.69259900E+03</pdfrwt>
<pdfrwt beam="2">  1       -1 0.36034278E-01 0.69259900E+03</pdfrwt>
<totfact> 0.15896341E+01</totfact>
</mgrwt>
</event>
<event>
 4    5  0.7176259E-008  0.1341218E+04  0.7818608E-02  0.9030758E-01
         -1   -1    0    0    0  501 -0.00000000000E+00  0.00000000000E+00  0.19742401653E+04  0.19742401654E+04  0.50400000000E-02 0.  1.
          1   -1    0    0  501    0  0.00000000000E+00 -0.00000000000E+00 -0.97638187022E+03  0.97638187023E+03  0.50400000000E-02 0. -1.
    8880023    1    1    2    0    0 -0.83892870028E+03  0.81317594485E+03 -0.93583996601E+02  0.13444793238E+04  0.65864270000E+03 0. -1.
    8880022    1    1    2    0    0  0.83892870028E+03 -0.81317594485E+03  0.10914422917E+04  0.16061427118E+04  0.15294330000E+03 0.  0.
<mgrwt>
<rscale>  0 0.12984966E+04</rscale>
<asrwt>0</asrwt>
<pdfrwt beam="1">  1        1 0.15021260E+00 0.13412184E+04</pdfrwt>
<pdfrwt beam="2">  1       -1 0.30372926E+00 0.13412184E+04</pdfrwt>
<totfact> 0.47785995E-01</totfact>
</mgrwt>
</event>
<event>
 4    5  0.7176259E-008  0.6824441E+03  0.7818608E-02  0.1007974E+00
         -1   -1    0    0    0  501 -0.00000000000E+00  0.00000000000E+00  0.19617690568E+03  0.19617690574E+03  0.50400000000E-02 0.  1.
          1   -1    0    0  501    0  0.00000000000E+00 -0.00000000000E+00 -0.11467612103E+04  0.11467612103E+04  0.50400000000E-02 0. -1.
    8880023    1    1    2    0    0  0.22419582700E+02 -0.17724859008E+03 -0.84218097853E+03  0.10839735731E+04  0.65864270000E+03 0. -1.
    8880022    1    1    2    0    0 -0.22419582700E+02  0.17724859008E+03 -0.10840332612E+03  0.25896454295E+03  0.15294330000E+03 0.  1.
<mgrwt>
<rscale>  0 0.52288006E+03</rscale>
<asrwt>0</asrwt>
<pdfrwt beam="1">  1        1 0.17642480E+00 0.68244407E+03</pdfrwt>
<pdfrwt beam="2">  1       -1 0.30181063E-01 0.68244407E+03</pdfrwt>
<totfact> 0.12093378E+02</totfact>
</mgrwt>
</event>
<event>
 4    5  0.7176259E-008  0.8400097E+03  0.7818608E-02  0.9630162E-01
         -1   -1    0    0    0  501 -0.00000000000E+00  0.00000000000E+00  0.25171796463E+03  0.25171796468E+03  0.50400000000E-02 0.  1.
          1   -1    0    0  501    0  0.00000000000E+00 -0.00000000000E+00 -0.21851550232E+04  0.21851550232E+04  0.50400000000E-02 0. -1.
    8880023    1    1    2    0    0  0.32878425792E+03 -0.40460718016E+03 -0.15778953771E+04  0.17875598132E+04  0.65864270000E+03 0. -1.
    8880022    1    1    2    0    0 -0.32878425792E+03  0.40460718016E+03 -0.35554168141E+03  0.64931317461E+03  0.15294330000E+03 0.  0.
<mgrwt>
<rscale>  0 0.75331626E+03</rscale>
<asrwt>0</asrwt>
<pdfrwt beam="1">  1        1 0.33617768E+00 0.84000968E+03</pdfrwt>
<pdfrwt beam="2">  1       -1 0.38725842E-01 0.84000968E+03</pdfrwt>
<totfact> 0.14877198E+01</totfact>
</mgrwt>
</event>
<event>
 4    5  0.7176259E-008  0.9233278E+03  0.7818608E-02  0.9489575E-01
         -1   -1    0    0    0  501 -0.00000000000E+00  0.00000000000E+00  0.65458954559E+03  0.65458954561E+03  0.50400000000E-02 0.  1.
          1   -1    0    0  501    0  0.00000000000E+00 -0.00000000000E+00 -0.12386455949E+04  0.12386455949E+04  0.50400000000E-02 0. -1.
    8880023    1    1    2    0    0  0.24820157291E+03  0.59759524695E+03 -0.77059859797E+03  0.12026456275E+04  0.65864270000E+03 0. -1.
    8880022    1    1    2    0    0 -0.24820157291E+03 -0.59759524695E+03  0.18654254867E+03  0.69058951298E+03  0.15294330000E+03 0.  0.
<mgrwt>
<rscale>  0 0.85056782E+03</rscale>
<asrwt>0</asrwt>
<pdfrwt beam="1">  1        1 0.19056086E+00 0.92332784E+03</pdfrwt>
<pdfrwt beam="2">  1       -1 0.10070608E+00 0.92332784E+03</pdfrwt>
<totfact> 0.95078023E+00</totfact>
</mgrwt>
</event>
<event>
 4    5  0.7176259E-008  0.1210751E+04  0.7818608E-02  0.9146742E-01
          1   -1    0    0  501    0  0.00000000000E+00  0.00000000000E+00  0.18440438407E+04  0.18440438407E+04  0.50400000000E-02 0. -1.
         -1   -1    0    0    0  501 -0.00000000000E+00 -0.00000000000E+00 -0.96675053172E+03  0.96675053173E+03  0.50400000000E-02 0.  1.
    8880023    1    1    2    0    0  0.65481569801E+03  0.77673918335E+03  0.12286849327E+04  0.17249881818E+04  0.65864270000E+03 0.  0.
    8880022    1    1    2    0    0 -0.65481569801E+03 -0.77673918335E+03 -0.35139162373E+03  0.10858061906E+04  0.15294330000E+03 0.  0.
<mgrwt>
<rscale>  0 0.11620460E+04</rscale>
<asrwt>0</asrwt>
<pdfrwt beam="1">  1        1 0.28369906E+00 0.12107508E+04</pdfrwt>
<pdfrwt beam="2">  1       -1 0.14873085E+00 0.12107508E+04</pdfrwt>
<totfact> 0.13314117E+00</totfact>
</mgrwt>
</event>
<event>
 4    5  0.7176259E-008  0.1868603E+04  0.7818608E-02  0.8685508E-01
         -1   -1    0    0    0  501 -0.00000000000E+00  0.00000000000E+00  0.14187551134E+04  0.14187551134E+04  0.50400000000E-02 0.  1.
          1   -1    0    0  501    0  0.00000000000E+00 -0.00000000000E+00 -0.25031560174E+04  0.25031560174E+04  0.50400000000E-02 0. -1.
    8880023    1    1    2    0    0 -0.11159022497E+04  0.13463395600E+04 -0.10964138262E+04  0.21665182959E+04  0.65864270000E+03 0.  0.
    8880022    1    1    2    0    0  0.11159022497E+04 -0.13463395600E+04  0.12012922230E+02  0.17553928350E+04  0.15294330000E+03 0.  0.
<mgrwt>
<rscale>  0 0.18396232E+04</rscale>
<asrwt>0</asrwt>
<pdfrwt beam="1">  1        1 0.38510092E+00 0.18686033E+04</pdfrwt>
<pdfrwt beam="2">  1       -1 0.21827002E+00 0.18686033E+04</pdfrwt>
<totfact> 0.13807326E-01</totfact>
</mgrwt>
</event>
<event>
 4    5  0.7176259E-008  0.7743829E+03  0.7818608E-02  0.9769201E-01
         -1   -1    0    0    0  501 -0.00000000000E+00  0.00000000000E+00  0.22281938197E+04  0.22281938197E+04  0.50400000000E-02 0.  1.
          1   -1    0    0  501    0  0.00000000000E+00 -0.00000000000E+00 -0.19788865356E+03  0.19788865362E+03  0.50400000000E-02 0. -1.
    8880023    1    1    2    0    0 -0.77226232370E+02 -0.39986840435E+03  0.76684462202E+03  0.10898254504E+04  0.65864270000E+03 0. -1.
    8880022    1    1    2    0    0  0.77226232370E+02  0.39986840435E+03  0.12634605441E+04  0.13362570229E+04  0.15294330000E+03 0.  0.
<mgrwt>
<rscale>  0 0.67041909E+03</rscale>
<asrwt>0</asrwt>
<pdfrwt beam="1">  1        1 0.30444408E-01 0.77438288E+03</pdfrwt>
<pdfrwt beam="2">  1       -1 0.34279905E+00 0.77438288E+03</pdfrwt>
<totfact> 0.27474109E+00</totfact>
</mgrwt>
</event>
<event>
 4    5  0.7176259E-008  0.7928336E+03  0.7818608E-02  0.9726511E-01
         -1   -1    0    0    0  501 -0.00000000000E+00  0.00000000000E+00  0.11760091775E+04  0.11760091775E+04  0.50400000000E-02 0.  1.
          1   -1    0    0  501    0  0.00000000000E+00 -0.00000000000E+00 -0.77678155342E+03  0.77678155344E+03  0.50400000000E-02 0. -1.
    8880023    1    1    2    0    0 -0.33517634283E+02 -0.44005852782E+03 -0.50152082078E+03  0.93814086344E+03  0.65864270000E+03 0. -1.
    8880022    1    1    2    0    0  0.33517634283E+02  0.44005852782E+03  0.90074844483E+03  0.10146498675E+04  0.15294330000E+03 0.  0.
<mgrwt>
<rscale>  0 0.69460047E+03</rscale>
<asrwt>0</asrwt>
<pdfrwt beam="1">  1        1 0.11950485E+00 0.79283362E+03</pdfrwt>
<pdfrwt beam="2">  1       -1 0.18092449E+00 0.79283362E+03</pdfrwt>
<totfact> 0.48901047E+00</totfact>
</mgrwt>
</event>
<event>
 4    5  0.7176259E-008  0.8554407E+03  0.7818608E-02  0.9601725E-01
         -1   -1    0    0    0  501 -0.00000000000E+00  0.00000000000E+00  0.10444367408E+04  0.10444367408E+04  0.50400000000E-02 0.  1.
          1   -1    0    0  501    0  0.00000000000E+00 -0.00000000000E+00 -0.10213824413E+04  0.10213824413E+04  0.50400000000E-02 0. -1.
    8880023    1    1    2    0    0 -0.22012600811E+03 -0.49951296737E+03 -0.72907638121E+03  0.11239800888E+04  0.65864270000E+03 0. -1.
    8880022    1    1    2    0    0  0.22012600811E+03  0.49951296737E+03  0.75213068067E+03  0.94183909339E+03  0.15294330000E+03 0.  0.
<mgrwt>
<rscale>  0 0.77182080E+03</rscale>
<asrwt>0</asrwt>
<pdfrwt beam="1">  1        1 0.15713576E+00 0.85544075E+03</pdfrwt>
<pdfrwt beam="2">  1       -1 0.16068257E+00 0.85544075E+03</pdfrwt>
<totfact> 0.42954434E+00</totfact>
</mgrwt>
</event>
<event>
 4    5  0.7176259E-008  0.9921555E+03  0.7818608E-02  0.9391893E-01
          1   -1    0    0  501    0  0.00000000000E+00  0.00000000000E+00  0.82593634146E+03  0.82593634147E+03  0.50400000000E-02 0. -1.
         -1   -1    0    0    0  501 -0.00000000000E+00 -0.00000000000E+00 -0.16617045128E+04  0.16617045128E+04  0.50400000000E-02 0.  1.
    8880023    1    1    2    0    0  0.71287140093E+03  0.20585596804E+03  0.37393934806E+03  0.10602844694E+04  0.65864270000E+03 0.  0.
    8880022    1    1    2    0    0 -0.71287140093E+03 -0.20585596804E+03 -0.12097075194E+04  0.14273563848E+04  0.15294330000E+03 0.  0.
<mgrwt>
<rscale>  0 0.92745840E+03</rscale>
<asrwt>0</asrwt>
<pdfrwt beam="1">  1        1 0.12706713E+00 0.99215549E+03</pdfrwt>
<pdfrwt beam="2">  1       -1 0.25564685E+00 0.99215549E+03</pdfrwt>
<totfact> 0.13576965E+00</totfact>
</mgrwt>
</event>
<event>
 4    5  0.7176259E-008  0.6717384E+03  0.7818608E-02  0.1014446E+00
          1   -1    0    0  501    0  0.00000000000E+00  0.00000000000E+00  0.20880135174E+04  0.20880135174E+04  0.50400000000E-02 0. -1.
         -1   -1    0    0    0  501 -0.00000000000E+00 -0.00000000000E+00 -0.10070845614E+03  0.10070845627E+03  0.50400000000E-02 0.  1.
    8880023    1    1    2    0    0 -0.27990688049E+02  0.12899134343E+03  0.17641048783E+04  0.18876701177E+04  0.65864270000E+03 0.  0.
    8880022    1    1    2    0    0  0.27990688049E+02 -0.12899134343E+03  0.22320018291E+03  0.30105185594E+03  0.15294330000E+03 0.  0.
<mgrwt>
<rscale>  0 0.49745194E+03</rscale>
<asrwt>0</asrwt>
<pdfrwt beam="1">  1        1 0.32123281E+00 0.67173838E+03</pdfrwt>
<pdfrwt beam="2">  1       -1 0.15493610E-01 0.67173838E+03</pdfrwt>
<totfact> 0.84389234E+01</totfact>
</mgrwt>
</event>
<event>
 4    5  0.7176259E-008  0.7279826E+03  0.7818608E-02  0.9896447E-01
         -1   -1    0    0    0  501 -0.00000000000E+00  0.00000000000E+00  0.76507948675E+03  0.76507948677E+03  0.50400000000E-02 0.  1.
          1   -1    0    0  501    0  0.00000000000E+00 -0.00000000000E+00 -0.10277395341E+04  0.10277395341E+04  0.50400000000E-02 0. -1.
    8880023    1    1    2    0    0  0.24690031261E+03  0.18758632665E+03 -0.84514501906E+03  0.11154500006E+04  0.65864270000E+03 0. -1.
    8880022    1    1    2    0    0 -0.24690031261E+03 -0.18758632665E+03  0.58248497173E+03  0.67736902027E+03  0.15294330000E+03 0.  0.
<mgrwt>
<rscale>  0 0.60433801E+03</rscale>
<asrwt>0</asrwt>
<pdfrwt beam="1">  1        1 0.15811377E+00 0.72798256E+03</pdfrwt>
<pdfrwt beam="2">  1       -1 0.11770454E+00 0.72798256E+03</pdfrwt>
<totfact> 0.96816664E+00</totfact>
</mgrwt>
</event>
<event>
 4    5  0.9850311E-008  0.1066466E+04  0.7818608E-02  0.9299344E-01
         -1   -1    0    0    0  501 -0.00000000000E+00  0.00000000000E+00  0.13296382137E+04  0.13296382137E+04  0.50400000000E-02 0.  1.
          1   -1    0    0  501    0  0.00000000000E+00 -0.00000000000E+00 -0.15867987794E+04  0.15867987794E+04  0.50400000000E-02 0. -1.
    8880023    1    1    2    0    0  0.26337900758E+02 -0.83835943183E+03 -0.12266137386E+04  0.16254020093E+04  0.65864270000E+03 0. -1.
    8880022    1    1    2    0    0 -0.26337900758E+02  0.83835943183E+03  0.96945317288E+03  0.12910349838E+04  0.15294330000E+03 0.  1.
<mgrwt>
<rscale>  0 0.10084331E+04</rscale>
<asrwt>0</asrwt>
<pdfrwt beam="1">  1        1 0.24412289E+00 0.10664663E+04</pdfrwt>
<pdfrwt beam="2">  1       -1 0.20455973E+00 0.10664663E+04</pdfrwt>
<totfact> 0.79635057E-01</totfact>
</mgrwt>
</event>
<event>
 4    5  0.7176259E-008  0.7937110E+03  0.7818608E-02  0.9724563E-01
         -1   -1    0    0    0  501 -0.00000000000E+00  0.00000000000E+00  0.39043457801E+03  0.39043457805E+03  0.50400000000E-02 0.  1.
          1   -1    0    0  501    0  0.00000000000E+00 -0.00000000000E+00 -0.14026115411E+04  0.14026115411E+04  0.50400000000E-02 0. -1.
    8880023    1    1    2    0    0  0.11464372610E+03  0.42781273626E+03 -0.10575689721E+04  0.13222818377E+04  0.65864270000E+03 0.  0.
    8880022    1    1    2    0    0 -0.11464372610E+03 -0.42781273626E+03  0.45392008997E+02  0.47076428150E+03  0.15294330000E+03 0.  0.
<mgrwt>
<rscale>  0 0.69572978E+03</rscale>
<asrwt>0</asrwt>
<pdfrwt beam="1">  1        1 0.21578639E+00 0.79371098E+03</pdfrwt>
<pdfrwt beam="2">  1       -1 0.60066859E-01 0.79371098E+03</pdfrwt>
<totfact> 0.22085921E+01</totfact>
</mgrwt>
</event>
<event>
 4    5  0.7176259E-008  0.7913975E+03  0.7818608E-02  0.9729715E-01
         -1   -1    0    0    0  501 -0.00000000000E+00  0.00000000000E+00  0.71662229326E+03  0.71662229328E+03  0.50400000000E-02 0.  1.
          1   -1    0    0  501    0  0.00000000000E+00 -0.00000000000E+00 -0.10727458234E+04  0.10727458234E+04  0.50400000000E-02 0. -1.
    8880023    1    1    2    0    0  0.33280719335E+03 -0.28590057864E+03 -0.81522014082E+03  0.11361750979E+04  0.65864270000E+03 0. -1.
    8880022    1    1    2    0    0 -0.33280719335E+03  0.28590057864E+03  0.45909661070E+03  0.65319301878E+03  0.15294330000E+03 0.  0.
<mgrwt>
<rscale>  0 0.69274822E+03</rscale>
<asrwt>0</asrwt>
<pdfrwt beam="1">  1        1 0.16503782E+00 0.79139748E+03</pdfrwt>
<pdfrwt beam="2">  1       -1 0.11024958E+00 0.79139748E+03</pdfrwt>
<totfact> 0.10369029E+01</totfact>
</mgrwt>
</event>
<event>
 4    5  0.7176259E-008  0.6807366E+03  0.7818608E-02  0.1008910E+00
          1   -1    0    0  501    0  0.00000000000E+00  0.00000000000E+00  0.10016985943E+04  0.10016985943E+04  0.50400000000E-02 0. -1.
         -1   -1    0    0    0  501 -0.00000000000E+00 -0.00000000000E+00 -0.26580554528E+03  0.26580554533E+03  0.50400000000E-02 0.  1.
    8880023    1    1    2    0    0  0.16473496383E+03  0.49542697154E+02  0.77770996228E+03  0.10335545844E+04  0.65864270000E+03 0. -1.
    8880022    1    1    2    0    0 -0.16473496383E+03 -0.49542697154E+02 -0.41816913302E+02  0.23394955525E+03  0.15294330000E+03 0.  0.
<mgrwt>
<rscale>  0 0.51910133E+03</rscale>
<asrwt>0</asrwt>
<pdfrwt beam="1">  1        1 0.15410748E+00 0.68073658E+03</pdfrwt>
<pdfrwt beam="2">  1       -1 0.40893160E-01 0.68073658E+03</pdfrwt>
<totfact> 0.90536180E+01</totfact>
</mgrwt>
</event>
<event>
 4    5  0.7176259E-008  0.6626688E+03  0.7818608E-02  0.1021575E+00
          1   -1    0    0  501    0  0.00000000000E+00  0.00000000000E+00  0.29007583230E+04  0.29007583230E+04  0.50400000000E-02 0. -1.
         -1   -1    0    0    0  501 -0.00000000000E+00 -0.00000000000E+00 -0.18463925907E+03  0.18463925914E+03  0.50400000000E-02 0.  1.
    8880023    1    1    2    0    0 -0.72772456663E+02  0.48875963713E+01  0.28131445605E+04  0.28901405232E+04  0.65864270000E+03 0.  0.
    8880022    1    1    2    0    0  0.72772456663E+02 -0.48875963713E+01 -0.97025496641E+02  0.19525705893E+03  0.15294330000E+03 0.  1.
<mgrwt>
<rscale>  0 0.47122588E+03</rscale>
<asrwt>0</asrwt>
<pdfrwt beam="1">  1        1 0.44627052E+00 0.66266879E+03</pdfrwt>
<pdfrwt beam="2">  1       -1 0.28406039E-01 0.66266879E+03</pdfrwt>
<totfact> 0.85446461E+00</totfact>
</mgrwt>
</event>
<event>
 4    5  0.7176259E-008  0.8640782E+03  0.7818608E-02  0.9586350E-01
         -1   -1    0    0    0  501 -0.00000000000E+00  0.00000000000E+00  0.73352419301E+03  0.73352419303E+03  0.50400000000E-02 0.  1.
          1   -1    0    0  501    0  0.00000000000E+00 -0.00000000000E+00 -0.87341397909E+03  0.87341397910E+03  0.50400000000E-02 0. -1.
    8880023    1    1    2    0    0 -0.43469113988E+03  0.35194385874E+03 -0.42256169054E+03  0.96186769119E+03  0.65864270000E+03 0.  0.
    8880022    1    1    2    0    0  0.43469113988E+03 -0.35194385874E+03  0.28267190446E+03  0.64507048094E+03  0.15294330000E+03 0.  0.
<mgrwt>
<rscale>  0 0.78206258E+03</rscale>
<asrwt>0</asrwt>
<pdfrwt beam="1">  1        1 0.13437138E+00 0.86407816E+03</pdfrwt>
<pdfrwt beam="2">  1       -1 0.11284988E+00 0.86407816E+03</pdfrwt>
<totfact> 0.13968313E+01</totfact>
</mgrwt>
</event>
<event>
 4    5  0.7176259E-008  0.8129885E+03  0.7818608E-02  0.9683385E-01
          1   -1    0    0  501    0  0.00000000000E+00  0.00000000000E+00  0.11320178481E+04  0.11320178481E+04  0.50400000000E-02 0. -1.
         -1   -1    0    0    0  501 -0.00000000000E+00 -0.00000000000E+00 -0.13796830533E+04  0.13796830533E+04  0.50400000000E-02 0.  1.
    8880023    1    1    2    0    0 -0.43706797125E+03 -0.19003093489E+03  0.92810362082E+03  0.12338260432E+04  0.65864270000E+03 0. -1.
    8880022    1    1    2    0    0  0.43706797125E+03  0.19003093489E+03 -0.11757688261E+04  0.12778748582E+04  0.15294330000E+03 0.  0.
<mgrwt>
<rscale>  0 0.72014704E+03</rscale>
<asrwt>0</asrwt>
<pdfrwt beam="1">  1        1 0.17415659E+00 0.81298854E+03</pdfrwt>
<pdfrwt beam="2">  1       -1 0.21225893E+00 0.81298854E+03</pdfrwt>
<totfact> 0.15410990E+00</totfact>
</mgrwt>
</event>
<event>
 4    5  0.7176259E-008  0.1252429E+04  0.7818608E-02  0.9107769E-01
          1   -1    0    0  501    0  0.00000000000E+00  0.00000000000E+00  0.16839675823E+04  0.16839675823E+04  0.50400000000E-02 0. -1.
         -1   -1    0    0    0  501 -0.00000000000E+00 -0.00000000000E+00 -0.14729289385E+04  0.14729289385E+04  0.50400000000E-02 0.  1.
    8880023    1    1    2    0    0  0.31868241679E+03  0.10164693632E+04  0.11711443468E+04  0.17146888162E+04  0.65864270000E+03 0.  0.
    8880022    1    1    2    0    0 -0.31868241679E+03 -0.10164693632E+04 -0.96010570312E+03  0.14422077046E+04  0.15294330000E+03 0.  0.
<mgrwt>
<rscale>  0 0.12058296E+04</rscale>
<asrwt>0</asrwt>
<pdfrwt beam="1">  1        1 0.25907193E+00 0.12524291E+04</pdfrwt>
<pdfrwt beam="2">  1       -1 0.22660445E+00 0.12524291E+04</pdfrwt>
<totfact> 0.47313254E-01</totfact>
</mgrwt>
</event>
<event>
 4    5  0.7176259E-008  0.9450256E+03  0.7818608E-02  0.9457308E-01
         -1   -1    0    0    0  501 -0.00000000000E+00  0.00000000000E+00  0.19902975596E+04  0.19902975596E+04  0.50400000000E-02 0.  1.
          1   -1    0    0  501    0  0.00000000000E+00 -0.00000000000E+00 -0.13864420191E+04  0.13864420191E+04  0.50400000000E-02 0. -1.
    8880023    1    1    2    0    0  0.15029566711E+03 -0.66081338443E+03 -0.11510673793E+04  0.14893050173E+04  0.65864270000E+03 0.  0.
    8880022    1    1    2    0    0 -0.15029566711E+03  0.66081338443E+03  0.17549229198E+04  0.18874345615E+04  0.15294330000E+03 0.  0.
<mgrwt>
<rscale>  0 0.87505881E+03</rscale>
<asrwt>0</asrwt>
<pdfrwt beam="1">  1        1 0.21329877E+00 0.94502557E+03</pdfrwt>
<pdfrwt beam="2">  1       -1 0.30619963E+00 0.94502557E+03</pdfrwt>
<totfact> 0.24287349E-01</totfact>
</mgrwt>
</event>
<event>
 4    5  0.7176259E-008  0.8035853E+03  0.7818608E-02  0.9703097E-01
          1   -1    0    0  501    0  0.00000000000E+00  0.00000000000E+00  0.96745785338E+03  0.96745785340E+03  0.50400000000E-02 0. -1.
         -1   -1    0    0    0  501 -0.00000000000E+00 -0.00000000000E+00 -0.84284267458E+03  0.84284267459E+03  0.50400000000E-02 0.  1.
    8880023    1    1    2    0    0  0.13617038251E+03 -0.43976903659E+03  0.69435275796E+03  0.10620146597E+04  0.65864270000E+03 0. -1.
    8880022    1    1    2    0    0 -0.13617038251E+03  0.43976903659E+03 -0.56973757915E+03  0.74828586832E+03  0.15294330000E+03 0.  0.
<mgrwt>
<rscale>  0 0.70832709E+03</rscale>
<asrwt>0</asrwt>
<pdfrwt beam="1">  1        1 0.14883967E+00 0.80358533E+03</pdfrwt>
<pdfrwt beam="2">  1       -1 0.12966810E+00 0.80358533E+03</pdfrwt>
<totfact> 0.84040292E+00</totfact>
</mgrwt>
</event>
<event>
 4    5  0.7176259E-008  0.1461797E+04  0.7818608E-02  0.8937094E-01
          1   -1    0    0  501    0  0.00000000000E+00  0.00000000000E+00  0.36191299879E+04  0.36191299879E+04  0.50400000000E-02 0. -1.
         -1   -1    0    0    0  501 -0.00000000000E+00 -0.00000000000E+00 -0.12908372221E+04  0.12908372222E+04  0.50400000000E-02 0.  1.
    8880023    1    1    2    0    0 -0.46366609904E+03 -0.12198585072E+04  0.30706321136E+04  0.34008282539E+04  0.65864270000E+03 0. -1.
    8880022    1    1    2    0    0  0.46366609904E+03  0.12198585072E+04 -0.74233934780E+03  0.15091389562E+04  0.15294330000E+03 0.  0.
<mgrwt>
<rscale>  0 0.14233413E+04</rscale>
<asrwt>0</asrwt>
<pdfrwt beam="1">  1        1 0.55678922E+00 0.14617973E+04</pdfrwt>
<pdfrwt beam="2">  1       -1 0.19859035E+00 0.14617973E+04</pdfrwt>
<totfact> 0.29622155E-02</totfact>
</mgrwt>
</event>
<event>
 4    5  0.7176259E-008  0.7802421E+03  0.7818608E-02  0.9755269E-01
          1   -1    0    0  501    0  0.00000000000E+00  0.00000000000E+00  0.59607569470E+03  0.59607569473E+03  0.50400000000E-02 0. -1.
         -1   -1    0    0    0  501 -0.00000000000E+00 -0.00000000000E+00 -0.95772322259E+03  0.95772322260E+03  0.50400000000E-02 0.  1.
    8880023    1    1    2    0    0 -0.17323252884E+03  0.38073346681E+03  0.22983249815E+03  0.81338838525E+03  0.65864270000E+03 0. -1.
    8880022    1    1    2    0    0  0.17323252884E+03 -0.38073346681E+03 -0.59148002604E+03  0.74041053208E+03  0.15294330000E+03 0.  0.
<mgrwt>
<rscale>  0 0.67819338E+03</rscale>
<asrwt>0</asrwt>
<pdfrwt beam="1">  1        1 0.91703953E-01 0.78024207E+03</pdfrwt>
<pdfrwt beam="2">  1       -1 0.14734203E+00 0.78024207E+03</pdfrwt>
<totfact> 0.12976217E+01</totfact>
</mgrwt>
</event>
<event>
 4    5  0.7176259E-008  0.1063559E+04  0.7818608E-02  0.9302756E-01
          1   -1    0    0  501    0  0.00000000000E+00  0.00000000000E+00  0.18070132541E+04  0.18070132541E+04  0.50400000000E-02 0. -1.
         -1   -1    0    0    0  501 -0.00000000000E+00 -0.00000000000E+00 -0.83065435148E+03  0.83065435150E+03  0.50400000000E-02 0.  1.
    8880023    1    1    2    0    0  0.73265579215E+03 -0.40070364754E+03  0.13428206103E+04  0.17129872506E+04  0.65864270000E+03 0. -1.
    8880022    1    1    2    0    0 -0.73265579215E+03  0.40070364754E+03 -0.36646170762E+03  0.92468035509E+03  0.15294330000E+03 0.  0.
<mgrwt>
<rscale>  0 0.10052950E+04</rscale>
<asrwt>0</asrwt>
<pdfrwt beam="1">  1        1 0.27800204E+00 0.10635592E+04</pdfrwt>
<pdfrwt beam="2">  1       -1 0.12779298E+00 0.10635592E+04</pdfrwt>
<totfact> 0.21332975E+00</totfact>
</mgrwt>
</event>
<event>
 4    5  0.8111366E-008  0.1066864E+04  0.7818608E-02  0.9298878E-01
          1   -1    0    0  501    0  0.00000000000E+00  0.00000000000E+00  0.18405518082E+04  0.18405518082E+04  0.50400000000E-02 0. -1.
         -1   -1    0    0    0  501 -0.00000000000E+00 -0.00000000000E+00 -0.12476697887E+04  0.12476697887E+04  0.50400000000E-02 0.  1.
    8880023    1    1    2    0    0  0.44210364130E+03  0.71339560362E+03  0.15014685007E+04  0.18419030327E+04  0.65864270000E+03 0. -1.
    8880022    1    1    2    0    0 -0.44210364130E+03 -0.71339560362E+03 -0.90858648116E+03  0.12463185643E+04  0.15294330000E+03 0.  0.
<mgrwt>
<rscale>  0 0.10088623E+04</rscale>
<asrwt>0</asrwt>
<pdfrwt beam="1">  1        1 0.28316181E+00 0.10668642E+04</pdfrwt>
<pdfrwt beam="2">  1       -1 0.19194920E+00 0.10668642E+04</pdfrwt>
<totfact> 0.65446594E-01</totfact>
</mgrwt>
</event>
<event>
 4    5  0.7176259E-008  0.9003456E+03  0.7818608E-02  0.9525477E-01
          1   -1    0    0  501    0  0.00000000000E+00  0.00000000000E+00  0.98322334706E+03  0.98322334707E+03  0.50400000000E-02 0. -1.
         -1   -1    0    0    0  501 -0.00000000000E+00 -0.00000000000E+00 -0.11521661419E+04  0.11521661419E+04  0.50400000000E-02 0.  1.
    8880023    1    1    2    0    0 -0.94066149683E+02 -0.60660002665E+03  0.64279104940E+03  0.11062561061E+04  0.65864270000E+03 0. -1.
    8880022    1    1    2    0    0  0.94066149683E+02  0.60660002665E+03 -0.81173384424E+03  0.10291333829E+04  0.15294330000E+03 0.  0.
<mgrwt>
<rscale>  0 0.82431287E+03</rscale>
<asrwt>0</asrwt>
<pdfrwt beam="1">  1        1 0.15126513E+00 0.90034562E+03</pdfrwt>
<pdfrwt beam="2">  1       -1 0.17725633E+00 0.90034562E+03</pdfrwt>
<totfact> 0.34519281E+00</totfact>
</mgrwt>
</event>
<event>
 4    5  0.7176259E-008  0.1136306E+04  0.7818608E-02  0.9221671E-01
         -1   -1    0    0    0  501 -0.00000000000E+00  0.00000000000E+00  0.16802538370E+04  0.16802538370E+04  0.50400000000E-02 0.  1.
          1   -1    0    0  501    0  0.00000000000E+00 -0.00000000000E+00 -0.11538195344E+04  0.11538195344E+04  0.50400000000E-02 0. -1.
    8880023    1    1    2    0    0  0.47116140454E+03  0.79711188761E+03 -0.66562821910E+03  0.13169098537E+04  0.65864270000E+03 0.  0.
    8880022    1    1    2    0    0 -0.47116140454E+03 -0.79711188761E+03  0.11920625217E+04  0.15171635176E+04  0.15294330000E+03 0.  0.
<mgrwt>
<rscale>  0 0.10832516E+04</rscale>
<asrwt>0</asrwt>
<pdfrwt beam="1">  1        1 0.17751070E+00 0.11363057E+04</pdfrwt>
<pdfrwt beam="2">  1       -1 0.25850059E+00 0.11363057E+04</pdfrwt>
<totfact> 0.70215354E-01</totfact>
</mgrwt>
</event>
<event>
 4    5  0.7176259E-008  0.1514180E+04  0.7818608E-02  0.8899687E-01
         -1   -1    0    0    0  501 -0.00000000000E+00  0.00000000000E+00  0.12584375476E+04  0.12584375476E+04  0.50400000000E-02 0.  1.
          1   -1    0    0  501    0  0.00000000000E+00 -0.00000000000E+00 -0.30779490811E+04  0.30779490811E+04  0.50400000000E-02 0. -1.
    8880023    1    1    2    0    0  0.92348226960E+03 -0.10030511473E+04 -0.24072089542E+04  0.28438347811E+04  0.65864270000E+03 0. -1.
    8880022    1    1    2    0    0 -0.92348226960E+03  0.10030511473E+04  0.58769742076E+03  0.14925518476E+04  0.15294330000E+03 0.  0.
<mgrwt>
<rscale>  0 0.14773041E+04</rscale>
<asrwt>0</asrwt>
<pdfrwt beam="1">  1        1 0.47353063E+00 0.15141801E+04</pdfrwt>
<pdfrwt beam="2">  1       -1 0.19360578E+00 0.15141801E+04</pdfrwt>
<totfact> 0.82693418E-02</totfact>
</mgrwt>
</event>
<event>
 4    5  0.7176259E-008  0.9030398E+03  0.7818608E-02  0.9521169E-01
          1   -1    0    0  501    0  0.00000000000E+00  0.00000000000E+00  0.66264262414E+03  0.66264262416E+03  0.50400000000E-02 0. -1.
         -1   -1    0    0    0  501 -0.00000000000E+00 -0.00000000000E+00 -0.15424046555E+04  0.15424046555E+04  0.50400000000E-02 0.  1.
    8880023    1    1    2    0    0  0.17469401804E+03  0.59258141496E+03  0.22448015753E+03  0.93052258473E+03  0.65864270000E+03 0. -1.
    8880022    1    1    2    0    0 -0.17469401804E+03 -0.59258141496E+03 -0.11042421889E+04  0.12745246950E+04  0.15294330000E+03 0.  0.
<mgrwt>
<rscale>  0 0.82740934E+03</rscale>
<asrwt>0</asrwt>
<pdfrwt beam="1">  1        1 0.10194502E+00 0.90303983E+03</pdfrwt>
<pdfrwt beam="2">  1       -1 0.23729302E+00 0.90303983E+03</pdfrwt>
<totfact> 0.25486688E+00</totfact>
</mgrwt>
</event>
<event>
 4    5  0.7176259E-008  0.1117307E+04  0.7818608E-02  0.9242027E-01
         -1   -1    0    0    0  501 -0.00000000000E+00  0.00000000000E+00  0.11567423968E+04  0.11567423968E+04  0.50400000000E-02 0.  1.
          1   -1    0    0  501    0  0.00000000000E+00 -0.00000000000E+00 -0.24681844003E+04  0.24681844003E+04  0.50400000000E-02 0. -1.
    8880023    1    1    2    0    0  0.70153706298E+03 -0.56781256680E+03 -0.21246234077E+04  0.24004999881E+04  0.65864270000E+03 0. -1.
    8880022    1    1    2    0    0 -0.70153706298E+03  0.56781256680E+03  0.81318140419E+03  0.12244268091E+04  0.15294330000E+03 0.  0.
<mgrwt>
<rscale>  0 0.10629974E+04</rscale>
<asrwt>0</asrwt>
<pdfrwt beam="1">  1        1 0.37972068E+00 0.11173073E+04</pdfrwt>
<pdfrwt beam="2">  1       -1 0.17796037E+00 0.11173073E+04</pdfrwt>
<totfact> 0.30634906E-01</totfact>
</mgrwt>
</event>
<event>
 4    5  0.7176259E-008  0.9756721E+03  0.7818608E-02  0.9414102E-01
         -1   -1    0    0    0  501 -0.00000000000E+00  0.00000000000E+00  0.74415159798E+03  0.74415159800E+03  0.50400000000E-02 0.  1.
          1   -1    0    0  501    0  0.00000000000E+00 -0.00000000000E+00 -0.24834588159E+04  0.24834588159E+04  0.50400000000E-02 0. -1.
    8880023    1    1    2    0    0 -0.48530579896E+03  0.53160531296E+03 -0.21669684896E+04  0.23764866018E+04  0.65864270000E+03 0. -1.
    8880022    1    1    2    0    0  0.48530579896E+03 -0.53160531296E+03  0.42766127167E+03  0.85112381213E+03  0.15294330000E+03 0.  0.
<mgrwt>
<rscale>  0 0.90924202E+03</rscale>
<asrwt>0</asrwt>
<pdfrwt beam="1">  1        1 0.38207058E+00 0.97567214E+03</pdfrwt>
<pdfrwt beam="2">  1       -1 0.11448486E+00 0.97567214E+03</pdfrwt>
<totfact> 0.98666196E-01</totfact>
</mgrwt>
</event>
<event>
 4    5  0.7176259E-008  0.1244984E+04  0.7818608E-02  0.9114589E-01
         -1   -1    0    0    0  501 -0.00000000000E+00  0.00000000000E+00  0.16520776583E+04  0.16520776583E+04  0.50400000000E-02 0.  1.
          1   -1    0    0  501    0  0.00000000000E+00 -0.00000000000E+00 -0.21091809996E+04  0.21091809996E+04  0.50400000000E-02 0. -1.
    8880023    1    1    2    0    0  0.65285021236E+03  0.83063911542E+03 -0.17100351934E+04  0.21152317388E+04  0.65864270000E+03 0.  0.
    8880022    1    1    2    0    0 -0.65285021236E+03 -0.83063911542E+03  0.12529318520E+04  0.16460269192E+04  0.15294330000E+03 0.  0.
<mgrwt>
<rscale>  0 0.11980233E+04</rscale>
<asrwt>0</asrwt>
<pdfrwt beam="1">  1        1 0.32448939E+00 0.12449839E+04</pdfrwt>
<pdfrwt beam="2">  1       -1 0.25416579E+00 0.12449839E+04</pdfrwt>
<totfact> 0.16069669E-01</totfact>
</mgrwt>
</event>
<event>
 4    5  0.1166915E-007  0.9543315E+03  0.7818608E-02  0.9443909E-01
         -1   -1    0    0    0  501 -0.00000000000E+00  0.00000000000E+00  0.15636843055E+04  0.15636843055E+04  0.50400000000E-02 0.  1.
          1   -1    0    0  501    0  0.00000000000E+00 -0.00000000000E+00 -0.13587545545E+04  0.13587545545E+04  0.50400000000E-02 0. -1.
    8880023    1    1    2    0    0 -0.27670829813E+03  0.63274866773E+03 -0.10888794736E+04  0.14478974664E+04  0.65864270000E+03 0. -1.
    8880022    1    1    2    0    0  0.27670829813E+03 -0.63274866773E+03  0.12938092246E+04  0.14745413936E+04  0.15294330000E+03 0.  0.
<mgrwt>
<rscale>  0 0.88548560E+03</rscale>
<asrwt>0</asrwt>
<pdfrwt beam="1">  1        1 0.20903916E+00 0.95433148E+03</pdfrwt>
<pdfrwt beam="2">  1       -1 0.24056682E+00 0.95433148E+03</pdfrwt>
<totfact> 0.67137709E-01</totfact>
</mgrwt>
</event>
<event>
 4    5  0.7176259E-008  0.8465908E+03  0.7818608E-02  0.9617876E-01
         -1   -1    0    0    0  501 -0.00000000000E+00  0.00000000000E+00  0.62118857008E+03  0.62118857010E+03  0.50400000000E-02 0.  1.
          1   -1    0    0  501    0  0.00000000000E+00 -0.00000000000E+00 -0.13677867470E+04  0.13677867470E+04  0.50400000000E-02 0. -1.
    8880023    1    1    2    0    0 -0.37879585567E+03 -0.37338911242E+03 -0.10571506066E+04  0.13543571688E+04  0.65864270000E+03 0.  0.
    8880022    1    1    2    0    0  0.37879585567E+03  0.37338911242E+03  0.31055242964E+03  0.63461814828E+03  0.15294330000E+03 0.  0.
<mgrwt>
<rscale>  0 0.76124256E+03</rscale>
<asrwt>0</asrwt>
<pdfrwt beam="1">  1        1 0.21042873E+00 0.84659077E+03</pdfrwt>
<pdfrwt beam="2">  1       -1 0.95567473E-01 0.84659077E+03</pdfrwt>
<totfact> 0.87520471E+00</totfact>
</mgrwt>
</event>
<event>
 4    5  0.7176259E-008  0.7013328E+03  0.7818608E-02  0.9991716E-01
          1   -1    0    0  501    0  0.00000000000E+00  0.00000000000E+00  0.25144815956E+04  0.25144815956E+04  0.50400000000E-02 0. -1.
         -1   -1    0    0    0  501 -0.00000000000E+00 -0.00000000000E+00 -0.23673240436E+03  0.23673240442E+03  0.50400000000E-02 0.  1.
    8880023    1    1    2    0    0  0.23389354777E+03 -0.57890636679E+02  0.23536350721E+04  0.24559042686E+04  0.65864270000E+03 0. -1.
    8880022    1    1    2    0    0 -0.23389354777E+03  0.57890636679E+02 -0.75885880938E+02  0.29530973138E+03  0.15294330000E+03 0.  0.
<mgrwt>
<rscale>  0 0.56014950E+03</rscale>
<asrwt>0</asrwt>
<pdfrwt beam="1">  1        1 0.38684334E+00 0.70133282E+03</pdfrwt>
<pdfrwt beam="2">  1       -1 0.36420368E-01 0.70133282E+03</pdfrwt>
<totfact> 0.10157938E+01</totfact>
</mgrwt>
</event>
<event>
 4    5  0.7176259E-008  0.9904582E+03  0.7818608E-02  0.9394149E-01
          1   -1    0    0  501    0  0.00000000000E+00  0.00000000000E+00  0.10087983860E+04  0.10087983860E+04  0.50400000000E-02 0. -1.
         -1   -1    0    0    0  501 -0.00000000000E+00 -0.00000000000E+00 -0.12085797773E+04  0.12085797773E+04  0.50400000000E-02 0.  1.
    8880023    1    1    2    0    0  0.53209835031E+03  0.51387610826E+03  0.56679511089E+03  0.11411679162E+04  0.65864270000E+03 0. -1.
    8880022    1    1    2    0    0 -0.53209835031E+03 -0.51387610826E+03 -0.76657650221E+03  0.10762102470E+04  0.15294330000E+03 0.  0.
<mgrwt>
<rscale>  0 0.92558764E+03</rscale>
<asrwt>0</asrwt>
<pdfrwt beam="1">  1        1 0.15519975E+00 0.99045824E+03</pdfrwt>
<pdfrwt beam="2">  1       -1 0.18593535E+00 0.99045824E+03</pdfrwt>
<totfact> 0.28249187E+00</totfact>
</mgrwt>
</event>
<event>
 4    5  0.7176259E-008  0.1119324E+04  0.7818608E-02  0.9239840E-01
          1   -1    0    0  501    0  0.00000000000E+00  0.00000000000E+00  0.24631947077E+04  0.24631947077E+04  0.50400000000E-02 0. -1.
         -1   -1    0    0    0  501 -0.00000000000E+00 -0.00000000000E+00 -0.47236932249E+03  0.47236932252E+03  0.50400000000E-02 0.  1.
    8880023    1    1    2    0    0 -0.85214867563E+03 -0.30482588493E+03  0.15641054684E+04  0.19233596408E+04  0.65864270000E+03 0.  0.
    8880022    1    1    2    0    0  0.85214867563E+03  0.30482588493E+03  0.42671991684E+03  0.10122043894E+04  0.15294330000E+03 0.  0.
<mgrwt>
<rscale>  0 0.10651507E+04</rscale>
<asrwt>0</asrwt>
<pdfrwt beam="1">  1        1 0.37895302E+00 0.11193241E+04</pdfrwt>
<pdfrwt beam="2">  1       -1 0.72672206E-01 0.11193241E+04</pdfrwt>
<totfact> 0.27491996E+00</totfact>
</mgrwt>
</event>
<event>
 4    5  0.7176259E-008  0.1177517E+04  0.7818608E-02  0.9179294E-01
          1   -1    0    0  501    0  0.00000000000E+00  0.00000000000E+00  0.16445220255E+04  0.16445220255E+04  0.50400000000E-02 0. -1.
         -1   -1    0    0    0  501 -0.00000000000E+00 -0.00000000000E+00 -0.10206148850E+04  0.10206148850E+04  0.50400000000E-02 0.  1.
    8880023    1    1    2    0    0 -0.40805879427E+03  0.88669216228E+03  0.10607805617E+04  0.15848661068E+04  0.65864270000E+03 0.  0.
    8880022    1    1    2    0    0  0.40805879427E+03 -0.88669216228E+03 -0.43687342119E+03  0.10802708037E+04  0.15294330000E+03 0.  0.
<mgrwt>
<rscale>  0 0.11269730E+04</rscale>
<asrwt>0</asrwt>
<pdfrwt beam="1">  1        1 0.25300339E+00 0.11775165E+04</pdfrwt>
<pdfrwt beam="2">  1       -1 0.15701767E+00 0.11775165E+04</pdfrwt>
<totfact> 0.15754665E+00</totfact>
</mgrwt>
</event>
<event>
 4    5  0.7176259E-008  0.7007284E+03  0.7818608E-02  0.9994193E-01
         -1   -1    0    0    0  501 -0.00000000000E+00  0.00000000000E+00  0.51727530276E+03  0.51727530278E+03  0.50400000000E-02 0.  1.
          1   -1    0    0  501    0  0.00000000000E+00 -0.00000000000E+00 -0.13106453238E+04  0.13106453238E+04  0.50400000000E-02 0. -1.
    8880023    1    1    2    0    0 -0.12621390950E+03 -0.20317499506E+03 -0.11654563631E+04  0.13598929260E+04  0.65864270000E+03 0.  0.
    8880022    1    1    2    0    0  0.12621390950E+03  0.20317499506E+03  0.37208634207E+03  0.46802770061E+03  0.15294330000E+03 0.  0.
<mgrwt>
<rscale>  0 0.55905596E+03</rscale>
<asrwt>0</asrwt>
<pdfrwt beam="1">  1        1 0.20163774E+00 0.70072836E+03</pdfrwt>
<pdfrwt beam="2">  1       -1 0.79580816E-01 0.70072836E+03</pdfrwt>
<totfact> 0.14600006E+01</totfact>
</mgrwt>
</event>
<event>
 4    5  0.7176259E-008  0.1152875E+04  0.7818608E-02  0.9204351E-01
         -1   -1    0    0    0  501 -0.00000000000E+00  0.00000000000E+00  0.11631195329E+04  0.11631195329E+04  0.50400000000E-02 0.  1.
          1   -1    0    0  501    0  0.00000000000E+00 -0.00000000000E+00 -0.11389070762E+04  0.11389070762E+04  0.50400000000E-02 0. -1.
    8880023    1    1    2    0    0  0.19993170185E+03 -0.92484474709E+03  0.46992910891E+03  0.12449715118E+04  0.65864270000E+03 0.  0.
    8880022    1    1    2    0    0 -0.19993170185E+03  0.92484474709E+03 -0.44571665223E+03  0.10570550973E+04  0.15294330000E+03 0.  0.
<mgrwt>
<rscale>  0 0.11008636E+04</rscale>
<asrwt>0</asrwt>
<pdfrwt beam="1">  1        1 0.17521647E+00 0.11528750E+04</pdfrwt>
<pdfrwt beam="2">  1       -1 0.17894147E+00 0.11528750E+04</pdfrwt>
<totfact> 0.24748545E+00</totfact>
</mgrwt>
</event>
<event>
 4    5  0.7176259E-008  0.8127656E+03  0.7818608E-02  0.9683845E-01
          1   -1    0    0  501    0  0.00000000000E+00  0.00000000000E+00  0.88865210897E+03  0.88865210898E+03  0.50400000000E-02 0. -1.
         -1   -1    0    0    0  501 -0.00000000000E+00 -0.00000000000E+00 -0.60743455338E+03  0.60743455340E+03  0.50400000000E-02 0.  1.
    8880023    1    1    2    0    0  0.46853828301E+03 -0.85144185122E+02  0.49555626478E+03  0.95192640090E+03  0.65864270000E+03 0.  0.
    8880022    1    1    2    0    0 -0.46853828301E+03  0.85144185122E+02 -0.21433870919E+03  0.54416026149E+03  0.15294330000E+03 0.  0.
<mgrwt>
<rscale>  0 0.71986859E+03</rscale>
<asrwt>0</asrwt>
<pdfrwt beam="1">  1        1 0.13671571E+00 0.81276556E+03</pdfrwt>
<pdfrwt beam="2">  1       -1 0.93451469E-01 0.81276556E+03</pdfrwt>
<totfact> 0.21084037E+01</totfact>
</mgrwt>
</event>
<event>
 4    5  0.7176259E-008  0.8668935E+03  0.7818608E-02  0.9581417E-01
         -1   -1    0    0    0  501 -0.00000000000E+00  0.00000000000E+00  0.28922953703E+03  0.28922953707E+03  0.50400000000E-02 0.  1.
          1   -1    0    0  501    0  0.00000000000E+00 -0.00000000000E+00 -0.23792488702E+04  0.23792488702E+04  0.50400000000E-02 0. -1.
    8880023    1    1    2    0    0 -0.55725276586E+03 -0.84637027422E+02 -0.18384303616E+04  0.20325674583E+04  0.65864270000E+03 0. -1.
    8880022    1    1    2    0    0  0.55725276586E+03  0.84637027422E+02 -0.25158897150E+03  0.63591094900E+03  0.15294330000E+03 0.  0.
<mgrwt>
<rscale>  0 0.78538434E+03</rscale>
<asrwt>0</asrwt>
<pdfrwt beam="1">  1        1 0.36603827E+00 0.86689346E+03</pdfrwt>
<pdfrwt beam="2">  1       -1 0.44496853E-01 0.86689346E+03</pdfrwt>
<totfact> 0.84910058E+00</totfact>
</mgrwt>
</event>
<event>
 4    5  0.7176259E-008  0.7939388E+03  0.7818608E-02  0.9724058E-01
         -1   -1    0    0    0  501 -0.00000000000E+00  0.00000000000E+00  0.55088021324E+03  0.55088021327E+03  0.50400000000E-02 0.  1.
          1   -1    0    0  501    0  0.00000000000E+00 -0.00000000000E+00 -0.23723782843E+04  0.23723782843E+04  0.50400000000E-02 0. -1.
    8880023    1    1    2    0    0  0.40616554205E+03  0.17764634269E+03 -0.21883103232E+04  0.23278833621E+04  0.65864270000E+03 0. -1.
    8880022    1    1    2    0    0 -0.40616554205E+03 -0.17764634269E+03  0.36681225214E+03  0.59537513549E+03  0.15294330000E+03 0.  0.
<mgrwt>
<rscale>  0 0.69602278E+03</rscale>
<asrwt>0</asrwt>
<pdfrwt beam="1">  1        1 0.36498127E+00 0.79393884E+03</pdfrwt>
<pdfrwt beam="2">  1       -1 0.84750804E-01 0.79393884E+03</pdfrwt>
<totfact> 0.24051512E+00</totfact>
</mgrwt>
</event>
<event>
 4    5  0.7176259E-008  0.9562242E+03  0.7818608E-02  0.9441215E-01
         -1   -1    0    0    0  501 -0.00000000000E+00  0.00000000000E+00  0.11118124474E+04  0.11118124474E+04  0.50400000000E-02 0.  1.
          1   -1    0    0  501    0  0.00000000000E+00 -0.00000000000E+00 -0.10378594206E+04  0.10378594206E+04  0.50400000000E-02 0. -1.
    8880023    1    1    2    0    0 -0.48878385893E+03  0.49157383172E+03 -0.63383565501E+03  0.11472193934E+04  0.65864270000E+03 0.  0.
    8880022    1    1    2    0    0  0.48878385893E+03 -0.49157383172E+03  0.70778868176E+03  0.10024524746E+04  0.15294330000E+03 0.  0.
<mgrwt>
<rscale>  0 0.88760106E+03</rscale>
<asrwt>0</asrwt>
<pdfrwt beam="1">  1        1 0.15967068E+00 0.95622419E+03</pdfrwt>
<pdfrwt beam="2">  1       -1 0.17104807E+00 0.95622419E+03</pdfrwt>
<totfact> 0.34478547E+00</totfact>
</mgrwt>
</event>
<event>
 4    5  0.7176259E-008  0.6758269E+03  0.7818608E-02  0.1011790E+00
          1   -1    0    0  501    0  0.00000000000E+00  0.00000000000E+00  0.16814149450E+04  0.16814149450E+04  0.50400000000E-02 0. -1.
         -1   -1    0    0    0  501 -0.00000000000E+00 -0.00000000000E+00 -0.33956950376E+03  0.33956950379E+03  0.50400000000E-02 0.  1.
    8880023    1    1    2    0    0 -0.14592915152E+03 -0.40452962746E+02  0.15688150525E+04  0.17081927979E+04  0.65864270000E+03 0. -1.
    8880022    1    1    2    0    0  0.14592915152E+03  0.40452962746E+02 -0.22696961125E+03  0.31279165095E+03  0.15294330000E+03 0.  0.
<mgrwt>
<rscale>  0 0.50769357E+03</rscale>
<asrwt>0</asrwt>
<pdfrwt beam="1">  1        1 0.25867923E+00 0.67582688E+03</pdfrwt>
<pdfrwt beam="2">  1       -1 0.52241461E-01 0.67582688E+03</pdfrwt>
<totfact> 0.18988043E+01</totfact>
</mgrwt>
</event>
<event>
 4    5  0.7176259E-008  0.1255331E+04  0.7818608E-02  0.9105128E-01
          1   -1    0    0  501    0  0.00000000000E+00  0.00000000000E+00  0.23333524152E+04  0.23333524152E+04  0.50400000000E-02 0. -1.
         -1   -1    0    0    0  501 -0.00000000000E+00 -0.00000000000E+00 -0.82320774281E+03  0.82320774282E+03  0.50400000000E-02 0.  1.
    8880023    1    1    2    0    0 -0.21966550130E+03 -0.10458450918E+04  0.16442875280E+04  0.20687040797E+04  0.65864270000E+03 0.  0.
    8880022    1    1    2    0    0  0.21966550130E+03  0.10458450918E+04 -0.13414285558E+03  0.10878560783E+04  0.15294330000E+03 0.  0.
<mgrwt>
<rscale>  0 0.12088702E+04</rscale>
<asrwt>0</asrwt>
<pdfrwt beam="1">  1        1 0.35897729E+00 0.12553307E+04</pdfrwt>
<pdfrwt beam="2">  1       -1 0.12664735E+00 0.12553307E+04</pdfrwt>
<totfact> 0.93674643E-01</totfact>
</mgrwt>
</event>
<event>
 4    5  0.7176259E-008  0.8393617E+03  0.7818608E-02  0.9631385E-01
         -1   -1    0    0    0  501 -0.00000000000E+00  0.00000000000E+00  0.12096433458E+04  0.12096433458E+04  0.50400000000E-02 0.  1.
          1   -1    0    0  501    0  0.00000000000E+00 -0.00000000000E+00 -0.76588115850E+03  0.76588115852E+03  0.50400000000E-02 0. -1.
    8880023    1    1    2    0    0  0.51010466835E+03 -0.10252366977E+03 -0.43309596758E+03  0.94451056052E+03  0.65864270000E+03 0. -1.
    8880022    1    1    2    0    0 -0.51010466835E+03  0.10252366977E+03  0.87685815487E+03  0.10310139438E+04  0.15294330000E+03 0.  0.
<mgrwt>
<rscale>  0 0.75253292E+03</rscale>
<asrwt>0</asrwt>
<pdfrwt beam="1">  1        1 0.11782787E+00 0.83936171E+03</pdfrwt>
<pdfrwt beam="2">  1       -1 0.18609897E+00 0.83936171E+03</pdfrwt>
<totfact> 0.45658214E+00</totfact>
</mgrwt>
</event>
<event>
 4    5  0.7176259E-008  0.6688828E+03  0.7818608E-02  0.1016477E+00
         -1   -1    0    0    0  501 -0.00000000000E+00  0.00000000000E+00  0.49092844980E+03  0.49092844983E+03  0.50400000000E-02 0.  1.
          1   -1    0    0  501    0  0.00000000000E+00 -0.00000000000E+00 -0.11469098782E+04  0.11469098782E+04  0.50400000000E-02 0. -1.
    8880023    1    1    2    0    0 -0.11648741760E+03  0.49658038891E+01 -0.10237080131E+04  0.12228582420E+04  0.65864270000E+03 0. -1.
    8880022    1    1    2    0    0  0.11648741760E+03 -0.49658038891E+01  0.36772658472E+03  0.41498008602E+03  0.15294330000E+03 0.  0.
<mgrwt>
<rscale>  0 0.48979759E+03</rscale>
<asrwt>0</asrwt>
<pdfrwt beam="1">  1        1 0.17644767E+00 0.66888279E+03</pdfrwt>
<pdfrwt beam="2">  1       -1 0.75527454E-01 0.66888279E+03</pdfrwt>
<totfact> 0.21451952E+01</totfact>
</mgrwt>
</event>
<event>
 4    5  0.7176259E-008  0.6933105E+03  0.7818608E-02  0.1002617E+00
         -1   -1    0    0    0  501 -0.00000000000E+00  0.00000000000E+00  0.17410661187E+04  0.17410661187E+04  0.50400000000E-02 0.  1.
          1   -1    0    0  501    0  0.00000000000E+00 -0.00000000000E+00 -0.44929816648E+03  0.44929816651E+03  0.50400000000E-02 0. -1.
    8880023    1    1    2    0    0  0.11540715816E+03 -0.18316776232E+03 -0.16253086670E+03  0.71210654414E+03  0.65864270000E+03 0.  0.
    8880022    1    1    2    0    0 -0.11540715816E+03  0.18316776232E+03  0.14542988190E+04  0.14782577411E+04  0.15294330000E+03 0.  0.
<mgrwt>
<rscale>  0 0.54517388E+03</rscale>
<asrwt>0</asrwt>
<pdfrwt beam="1">  1        1 0.69122795E-01 0.69331050E+03</pdfrwt>
<pdfrwt beam="2">  1       -1 0.26785633E+00 0.69331050E+03</pdfrwt>
<totfact> 0.28883731E+00</totfact>
</mgrwt>
</event>
<event>
 4    5  0.7481450E-008  0.1021316E+04  0.7818608E-02  0.9354186E-01
         -1   -1    0    0    0  501 -0.00000000000E+00  0.00000000000E+00  0.19071176418E+04  0.19071176418E+04  0.50400000000E-02 0.  1.
          1   -1    0    0  501    0  0.00000000000E+00 -0.00000000000E+00 -0.16352865072E+04  0.16352865072E+04  0.50400000000E-02 0. -1.
    8880023    1    1    2    0    0  0.67601598566E+01 -0.78053189788E+03 -0.13754336365E+04  0.17131560460E+04  0.65864270000E+03 0.  0.
    8880022    1    1    2    0    0 -0.67601598566E+01  0.78053189788E+03  0.16472647710E+04  0.18292481030E+04  0.15294330000E+03 0.  1.
<mgrwt>
<rscale>  0 0.95943812E+03</rscale>
<asrwt>0</asrwt>
<pdfrwt beam="1">  1        1 0.25158254E+00 0.10213158E+04</pdfrwt>
<pdfrwt beam="2">  1       -1 0.29340271E+00 0.10213158E+04</pdfrwt>
<totfact> 0.19491956E-01</totfact>
</mgrwt>
</event>
<event>
 4    5  0.7176259E-008  0.1800544E+04  0.7818608E-02  0.8722236E-01
          1   -1    0    0  501    0  0.00000000000E+00  0.00000000000E+00  0.31488542005E+04  0.31488542005E+04  0.50400000000E-02 0. -1.
         -1   -1    0    0    0  501 -0.00000000000E+00 -0.00000000000E+00 -0.12856462170E+04  0.12856462170E+04  0.50400000000E-02 0.  1.
    8880023    1    1    2    0    0  0.16285549262E+04  0.39491362835E+03  0.20649825638E+04  0.27397282925E+04  0.65864270000E+03 0. -1.
    8880022    1    1    2    0    0 -0.16285549262E+04 -0.39491362835E+03 -0.20177458030E+03  0.16947721251E+04  0.15294330000E+03 0.  0.
<mgrwt>
<rscale>  0 0.17703356E+04</rscale>
<asrwt>0</asrwt>
<pdfrwt beam="1">  1        1 0.48443911E+00 0.18005438E+04</pdfrwt>
<pdfrwt beam="2">  1       -1 0.19779173E+00 0.18005438E+04</pdfrwt>
<totfact> 0.66147898E-02</totfact>
</mgrwt>
</event>
<event>
 4    5  0.7176259E-008  0.9290737E+03  0.7818608E-02  0.9480884E-01
         -1   -1    0    0    0  501 -0.00000000000E+00  0.00000000000E+00  0.92311813885E+03  0.92311813887E+03  0.50400000000E-02 0.  1.
          1   -1    0    0  501    0  0.00000000000E+00 -0.00000000000E+00 -0.21529441768E+04  0.21529441768E+04  0.50400000000E-02 0. -1.
    8880023    1    1    2    0    0 -0.65329863420E+03 -0.50682395480E+02 -0.19070931446E+04  0.21213633068E+04  0.65864270000E+03 0.  0.
    8880022    1    1    2    0    0  0.65329863420E+03  0.50682395480E+02  0.67726710674E+03  0.95469900887E+03  0.15294330000E+03 0.  0.
<mgrwt>
<rscale>  0 0.85707945E+03</rscale>
<asrwt>0</asrwt>
<pdfrwt beam="1">  1        1 0.33122218E+00 0.92907374E+03</pdfrwt>
<pdfrwt beam="2">  1       -1 0.14201818E+00 0.92907374E+03</pdfrwt>
<totfact> 0.97060553E-01</totfact>
</mgrwt>
</event>
<event>
 4    5  0.7176259E-008  0.1127629E+04  0.7818608E-02  0.9230901E-01
          1   -1    0    0  501    0  0.00000000000E+00  0.00000000000E+00  0.23651693158E+04  0.23651693158E+04  0.50400000000E-02 0. -1.
         -1   -1    0    0    0  501 -0.00000000000E+00 -0.00000000000E+00 -0.11898835050E+04  0.11898835050E+04  0.50400000000E-02 0.  1.
    8880023    1    1    2    0    0 -0.14420962813E+03 -0.90384736431E+03  0.20114292208E+04  0.23059475691E+04  0.65864270000E+03 0.  0.
    8880022    1    1    2    0    0  0.14420962813E+03  0.90384736431E+03 -0.83614341002E+03  0.12491052518E+04  0.15294330000E+03 0.  0.
<mgrwt>
<rscale>  0 0.10740094E+04</rscale>
<asrwt>0</asrwt>
<pdfrwt beam="1">  1        1 0.36387220E+00 0.11276288E+04</pdfrwt>
<pdfrwt beam="2">  1       -1 0.18305900E+00 0.11276288E+04</pdfrwt>
<totfact> 0.33073070E-01</totfact>
</mgrwt>
</event>
<event>
 4    5  0.7176259E-008  0.1103142E+04  0.7818608E-02  0.9257565E-01
          1   -1    0    0  501    0  0.00000000000E+00  0.00000000000E+00  0.13664550946E+04  0.13664550947E+04  0.50400000000E-02 0. -1.
         -1   -1    0    0    0  501 -0.00000000000E+00 -0.00000000000E+00 -0.16889906134E+04  0.16889906134E+04  0.50400000000E-02 0.  1.
    8880023    1    1    2    0    0 -0.88017404836E+03  0.91688483687E+02  0.97848698082E+03  0.14745711618E+04  0.65864270000E+03 0.  0.
    8880022    1    1    2    0    0  0.88017404836E+03 -0.91688483687E+02 -0.13010224995E+04  0.15808745462E+04  0.15294330000E+03 0.  0.
<mgrwt>
<rscale>  0 0.10478511E+04</rscale>
<asrwt>0</asrwt>
<pdfrwt beam="1">  1        1 0.21022386E+00 0.11031425E+04</pdfrwt>
<pdfrwt beam="2">  1       -1 0.25984471E+00 0.11031425E+04</pdfrwt>
<totfact> 0.48549160E-01</totfact>
</mgrwt>
</event>
<event>
 4    5  0.7176259E-008  0.1201061E+04  0.7818608E-02  0.9156091E-01
         -1   -1    0    0    0  501 -0.00000000000E+00  0.00000000000E+00  0.12037011941E+04  0.12037011941E+04  0.50400000000E-02 0.  1.
          1   -1    0    0  501    0  0.00000000000E+00 -0.00000000000E+00 -0.16877147984E+04  0.16877147984E+04  0.50400000000E-02 0. -1.
    8880023    1    1    2    0    0  0.19751170384E+03 -0.98474714147E+03 -0.11610884292E+04  0.16705311588E+04  0.65864270000E+03 0.  0.
    8880022    1    1    2    0    0 -0.19751170384E+03  0.98474714147E+03  0.67707482483E+03  0.12208848337E+04  0.15294330000E+03 0.  0.
<mgrwt>
<rscale>  0 0.11518359E+04</rscale>
<asrwt>0</asrwt>
<pdfrwt beam="1">  1        1 0.25964843E+00 0.12010612E+04</pdfrwt>
<pdfrwt beam="2">  1       -1 0.18518480E+00 0.12010612E+04</pdfrwt>
<totfact> 0.91016328E-01</totfact>
</mgrwt>
</event>
<event>
 4    5  0.7176259E-008  0.1417286E+04  0.7818608E-02  0.8970366E-01
          1   -1    0    0  501    0  0.00000000000E+00  0.00000000000E+00  0.10762821521E+04  0.10762821521E+04  0.50400000000E-02 0. -1.
         -1   -1    0    0    0  501 -0.00000000000E+00 -0.00000000000E+00 -0.20296888056E+04  0.20296888056E+04  0.50400000000E-02 0.  1.
    8880023    1    1    2    0    0 -0.96411335493E+03 -0.80335198223E+03  0.15358181487E+03  0.14255828803E+04  0.65864270000E+03 0.  0.
    8880022    1    1    2    0    0  0.96411335493E+03  0.80335198223E+03 -0.11069884684E+04  0.16803880774E+04  0.15294330000E+03 0.  0.
<mgrwt>
<rscale>  0 0.13773671E+04</rscale>
<asrwt>0</asrwt>
<pdfrwt beam="1">  1        1 0.16558187E+00 0.14172858E+04</pdfrwt>
<pdfrwt beam="2">  1       -1 0.31225982E+00 0.14172858E+04</pdfrwt>
<totfact> 0.34849894E-01</totfact>
</mgrwt>
</event>
<event>
 4    5  0.7176259E-008  0.1350904E+04  0.7818608E-02  0.9022802E-01
         -1   -1    0    0    0  501 -0.00000000000E+00  0.00000000000E+00  0.76862897027E+03  0.76862897028E+03  0.50400000000E-02 0.  1.
          1   -1    0    0  501    0  0.00000000000E+00 -0.00000000000E+00 -0.22481532435E+04  0.22481532435E+04  0.50400000000E-02 0. -1.
    8880023    1    1    2    0    0 -0.55437714395E+02  0.11781586029E+04 -0.11717240129E+04  0.17882612791E+04  0.65864270000E+03 0.  0.
    8880022    1    1    2    0    0  0.55437714395E+02 -0.11781586029E+04 -0.30780026033E+03  0.12285209347E+04  0.15294330000E+03 0.  0.
<mgrwt>
<rscale>  0 0.13085628E+04</rscale>
<asrwt>0</asrwt>
<pdfrwt beam="1">  1        1 0.34586973E+00 0.13509039E+04</pdfrwt>
<pdfrwt beam="2">  1       -1 0.11825061E+00 0.13509039E+04</pdfrwt>
<totfact> 0.12558179E+00</totfact>
</mgrwt>
</event>
<event>
 4    5  0.7176259E-008  0.7243625E+03  0.7818608E-02  0.9908092E-01
          1   -1    0    0  501    0  0.00000000000E+00  0.00000000000E+00  0.24015511001E+03  0.24015511006E+03  0.50400000000E-02 0. -1.
         -1   -1    0    0    0  501 -0.00000000000E+00 -0.00000000000E+00 -0.13680696746E+04  0.13680696746E+04  0.50400000000E-02 0.  1.
    8880023    1    1    2    0    0 -0.12702255887E+03 -0.27341548145E+03 -0.45567280788E+03  0.85576788329E+03  0.65864270000E+03 0.  0.
    8880022    1    1    2    0    0  0.12702255887E+03  0.27341548145E+03 -0.67224175671E+03  0.75245690138E+03  0.15294330000E+03 0.  0.
<mgrwt>
<rscale>  0 0.59870705E+03</rscale>
<asrwt>0</asrwt>
<pdfrwt beam="1">  1        1 0.36946941E-01 0.72436245E+03</pdfrwt>
<pdfrwt beam="2">  1       -1 0.21047225E+00 0.72436245E+03</pdfrwt>
<totfact> 0.15426799E+01</totfact>
</mgrwt>
</event>
<event>
 4    5  0.7176259E-008  0.1183351E+04  0.7818608E-02  0.9173478E-01
         -1   -1    0    0    0  501 -0.00000000000E+00  0.00000000000E+00  0.15228705680E+04  0.15228705681E+04  0.50400000000E-02 0.  1.
          1   -1    0    0  501    0  0.00000000000E+00 -0.00000000000E+00 -0.10691235195E+04  0.10691235195E+04  0.50400000000E-02 0. -1.
    8880023    1    1    2    0    0 -0.48272349735E+03 -0.85643935713E+03 -0.43216810501E+03  0.12597975332E+04  0.65864270000E+03 0. -1.
    8880022    1    1    2    0    0  0.48272349735E+03  0.85643935713E+03  0.88591515353E+03  0.13321965544E+04  0.15294330000E+03 0.  0.
<mgrwt>
<rscale>  0 0.11331420E+04</rscale>
<asrwt>0</asrwt>
<pdfrwt beam="1">  1        1 0.16448054E+00 0.11833514E+04</pdfrwt>
<pdfrwt beam="2">  1       -1 0.23428778E+00 0.11833514E+04</pdfrwt>
<totfact> 0.11632212E+00</totfact>
</mgrwt>
</event>
<event>
 4    5  0.7176259E-008  0.8841224E+03  0.7818608E-02  0.9552017E-01
         -1   -1    0    0    0  501 -0.00000000000E+00  0.00000000000E+00  0.45979817305E+03  0.45979817308E+03  0.50400000000E-02 0.  1.
          1   -1    0    0  501    0  0.00000000000E+00 -0.00000000000E+00 -0.20079946765E+04  0.20079946765E+04  0.50400000000E-02 0. -1.
    8880023    1    1    2    0    0  0.27535982188E+03 -0.52157374830E+03 -0.16286954780E+04  0.18531922115E+04  0.65864270000E+03 0.  0.
    8880022    1    1    2    0    0 -0.27535982188E+03  0.52157374830E+03  0.80498974550E+02  0.61460063809E+03  0.15294330000E+03 0.  0.
<mgrwt>
<rscale>  0 0.80555123E+03</rscale>
<asrwt>0</asrwt>
<pdfrwt beam="1">  1        1 0.30892225E+00 0.88412240E+03</pdfrwt>
<pdfrwt beam="2">  1       -1 0.70738182E-01 0.88412240E+03</pdfrwt>
<totfact> 0.61038887E+00</totfact>
</mgrwt>
</event>
<event>
 4    5  0.7176259E-008  0.7658678E+03  0.7818608E-02  0.9790147E-01
          1   -1    0    0  501    0  0.00000000000E+00  0.00000000000E+00  0.89822354368E+03  0.89822354369E+03  0.50400000000E-02 0. -1.
         -1   -1    0    0    0  501 -0.00000000000E+00 -0.00000000000E+00 -0.10265492022E+04  0.10265492022E+04  0.50400000000E-02 0.  1.
    8880023    1    1    2    0    0 -0.49765355962E+02  0.38764242237E+03  0.67341823962E+03  0.10198262450E+04  0.65864270000E+03 0. -1.
    8880022    1    1    2    0    0  0.49765355962E+02 -0.38764242237E+03 -0.80174389817E+03  0.90494650093E+03  0.15294330000E+03 0.  0.
<mgrwt>
<rscale>  0 0.65894023E+03</rscale>
<asrwt>0</asrwt>
<pdfrwt beam="1">  1        1 0.13818824E+00 0.76586777E+03</pdfrwt>
<pdfrwt beam="2">  1       -1 0.15793065E+00 0.76586777E+03</pdfrwt>
<totfact> 0.57137273E+00</totfact>
</mgrwt>
</event>
<event>
 4    5  0.7176259E-008  0.8557194E+03  0.7818608E-02  0.9601224E-01
         -1   -1    0    0    0  501 -0.00000000000E+00  0.00000000000E+00  0.74281235007E+03  0.74281235009E+03  0.50400000000E-02 0.  1.
          1   -1    0    0  501    0  0.00000000000E+00 -0.00000000000E+00 -0.88474058206E+03  0.88474058207E+03  0.50400000000E-02 0. -1.
    8880023    1    1    2    0    0 -0.54623023652E+03 -0.88300452698E+01 -0.46582591948E+03  0.97429432643E+03  0.65864270000E+03 0. -1.
    8880022    1    1    2    0    0  0.54623023652E+03  0.88300452698E+01  0.32389768749E+03  0.65325860573E+03  0.15294330000E+03 0.  0.
<mgrwt>
<rscale>  0 0.77215242E+03</rscale>
<asrwt>0</asrwt>
<pdfrwt beam="1">  1        1 0.13611393E+00 0.85571937E+03</pdfrwt>
<pdfrwt beam="2">  1       -1 0.11427882E+00 0.85571937E+03</pdfrwt>
<totfact> 0.13278092E+01</totfact>
</mgrwt>
</event>
<event>
 4    5  0.7176259E-008  0.1603122E+04  0.7818608E-02  0.8840054E-01
          1   -1    0    0  501    0  0.00000000000E+00  0.00000000000E+00  0.22566909089E+04  0.22566909089E+04  0.50400000000E-02 0. -1.
         -1   -1    0    0    0  501 -0.00000000000E+00 -0.00000000000E+00 -0.12460672590E+04  0.12460672590E+04  0.50400000000E-02 0.  1.
    8880023    1    1    2    0    0 -0.99929226622E+03  0.10665853108E+04  0.12250982995E+04  0.20176385475E+04  0.65864270000E+03 0.  0.
    8880022    1    1    2    0    0  0.99929226622E+03 -0.10665853108E+04 -0.21447464968E+03  0.14851196204E+04  0.15294330000E+03 0.  0.
<mgrwt>
<rscale>  0 0.15686320E+04</rscale>
<asrwt>0</asrwt>
<pdfrwt beam="1">  1        1 0.34718321E+00 0.16031218E+04</pdfrwt>
<pdfrwt beam="2">  1       -1 0.19170266E+00 0.16031218E+04</pdfrwt>
<totfact> 0.32029021E-01</totfact>
</mgrwt>
</event>
<event>
 4    5  0.7176259E-008  0.7385487E+03  0.7818608E-02  0.9864195E-01
         -1   -1    0    0    0  501 -0.00000000000E+00  0.00000000000E+00  0.18139009260E+03  0.18139009267E+03  0.50400000000E-02 0.  1.
          1   -1    0    0  501    0  0.00000000000E+00 -0.00000000000E+00 -0.26461046772E+04  0.26461046772E+04  0.50400000000E-02 0. -1.
    8880023    1    1    2    0    0 -0.33333593700E+03  0.23046623150E+02 -0.23162835873E+04  0.24311774630E+04  0.65864270000E+03 0. -1.
    8880022    1    1    2    0    0  0.33333593700E+03 -0.23046623150E+02 -0.14843099733E+03  0.39631730686E+03  0.15294330000E+03 0.  0.
<mgrwt>
<rscale>  0 0.62028376E+03</rscale>
<asrwt>0</asrwt>
<pdfrwt beam="1">  1        1 0.40709300E+00 0.73854871E+03</pdfrwt>
<pdfrwt beam="2">  1       -1 0.27906170E-01 0.73854871E+03</pdfrwt>
<totfact> 0.13090729E+01</totfact>
</mgrwt>
</event>
<event>
 4    5  0.7176259E-008  0.1294569E+04  0.7818608E-02  0.9070264E-01
         -1   -1    0    0    0  501 -0.00000000000E+00  0.00000000000E+00  0.67100764175E+03  0.67100764177E+03  0.50400000000E-02 0.  1.
          1   -1    0    0  501    0  0.00000000000E+00 -0.00000000000E+00 -0.30341831323E+04  0.30341831323E+04  0.50400000000E-02 0. -1.
    8880023    1    1    2    0    0  0.78269740540E+03 -0.79340028655E+03 -0.26052276852E+03  0.13205232154E+04  0.65864270000E+03 0.  0.
    8880022    1    1    2    0    0 -0.78269740540E+03  0.79340028655E+03 -0.21026527220E+04  0.23846675587E+04  0.15294330000E+03 0.  0.
<mgrwt>
<rscale>  0 0.12499031E+04</rscale>
<asrwt>0</asrwt>
<pdfrwt beam="1">  1        1 0.46679739E+00 0.12945692E+04</pdfrwt>
<pdfrwt beam="2">  1       -1 0.10323195E+00 0.12945692E+04</pdfrwt>
<totfact> 0.49141396E-01</totfact>
</mgrwt>
</event>
<event>
 4    5  0.7176259E-008  0.1005973E+04  0.7818608E-02  0.9373784E-01
         -1   -1    0    0    0  501 -0.00000000000E+00  0.00000000000E+00  0.11350061814E+04  0.11350061814E+04  0.50400000000E-02 0.  1.
          1   -1    0    0  501    0  0.00000000000E+00 -0.00000000000E+00 -0.98968606223E+03  0.98968606224E+03  0.50400000000E-02 0. -1.
    8880023    1    1    2    0    0  0.42789130352E+03  0.62855493852E+03 -0.49291838963E+03  0.11202459656E+04  0.65864270000E+03 0.  1.
    8880022    1    1    2    0    0 -0.42789130352E+03 -0.62855493852E+03  0.63823850882E+03  0.10044462781E+04  0.15294330000E+03 0.  0.
<mgrwt>
<rscale>  0 0.94264919E+03</rscale>
<asrwt>0</asrwt>
<pdfrwt beam="1">  1        1 0.15225939E+00 0.10059734E+04</pdfrwt>
<pdfrwt beam="2">  1       -1 0.17461634E+00 0.10059734E+04</pdfrwt>
<totfact> 0.35177994E+00</totfact>
</mgrwt>
</event>
<event>
 4    5  0.7176259E-008  0.1442672E+04  0.7818608E-02  0.8951215E-01
          1   -1    0    0  501    0  0.00000000000E+00  0.00000000000E+00  0.34772834078E+04  0.34772834078E+04  0.50400000000E-02 0. -1.
         -1   -1    0    0    0  501 -0.00000000000E+00 -0.00000000000E+00 -0.74894120548E+03  0.74894120550E+03  0.50400000000E-02 0.  1.
    8880023    1    1    2    0    0 -0.73830960513E+03  0.10499488735E+04  0.25383919742E+04  0.29197153510E+04  0.65864270000E+03 0. -1.
    8880022    1    1    2    0    0  0.73830960513E+03 -0.10499488735E+04  0.18995022805E+03  0.13065092622E+04  0.15294330000E+03 0.  0.
<mgrwt>
<rscale>  0 0.14036025E+04</rscale>
<asrwt>0</asrwt>
<pdfrwt beam="1">  1        1 0.53496667E+00 0.14426725E+04</pdfrwt>
<pdfrwt beam="2">  1       -1 0.11522173E+00 0.14426725E+04</pdfrwt>
<totfact> 0.17217153E-01</totfact>
</mgrwt>
</event>
<event>
 4    5  0.7176259E-008  0.1415098E+04  0.7818608E-02  0.8972039E-01
          1   -1    0    0  501    0  0.00000000000E+00  0.00000000000E+00  0.17403918958E+04  0.17403918958E+04  0.50400000000E-02 0. -1.
         -1   -1    0    0    0  501 -0.00000000000E+00 -0.00000000000E+00 -0.16325693160E+04  0.16325693160E+04  0.50400000000E-02 0.  1.
    8880023    1    1    2    0    0 -0.10747908045E+04  0.64305225953E+03 -0.96824878915E+03  0.17146449796E+04  0.65864270000E+03 0.  0.
    8880022    1    1    2    0    0  0.10747908045E+04 -0.64305225953E+03  0.10760713689E+04  0.16583162322E+04  0.15294330000E+03 0.  0.
<mgrwt>
<rscale>  0 0.13751040E+04</rscale>
<asrwt>0</asrwt>
<pdfrwt beam="1">  1        1 0.26775260E+00 0.14150978E+04</pdfrwt>
<pdfrwt beam="2">  1       -1 0.25116451E+00 0.14150978E+04</pdfrwt>
<totfact> 0.29230879E-01</totfact>
</mgrwt>
</event>
<event>
 4    5  0.7176259E-008  0.2206639E+04  0.7818608E-02  0.8525754E-01
          1   -1    0    0  501    0  0.00000000000E+00  0.00000000000E+00  0.32072312516E+04  0.32072312516E+04  0.50400000000E-02 0. -1.
         -1   -1    0    0    0  501 -0.00000000000E+00 -0.00000000000E+00 -0.22549272036E+04  0.22549272036E+04  0.50400000000E-02 0.  1.
    8880023    1    1    2    0    0 -0.15968843761E+04  0.13731001673E+04  0.21108004063E+04  0.30536424712E+04  0.65864270000E+03 0.  0.
    8880022    1    1    2    0    0  0.15968843761E+04 -0.13731001673E+04 -0.11584963583E+04  0.24085159841E+04  0.15294330000E+03 0.  0.
<mgrwt>
<rscale>  0 0.21824841E+04</rscale>
<asrwt>0</asrwt>
<pdfrwt beam="1">  1        1 0.49342019E+00 0.22066386E+04</pdfrwt>
<pdfrwt beam="2">  1       -1 0.34691188E+00 0.22066386E+04</pdfrwt>
<totfact> 0.58936330E-03</totfact>
</mgrwt>
</event>
<event>
 4    5  0.7176259E-008  0.1014394E+04  0.7818608E-02  0.9362963E-01
          1   -1    0    0  501    0  0.00000000000E+00  0.00000000000E+00  0.19635743795E+04  0.19635743795E+04  0.50400000000E-02 0. -1.
         -1   -1    0    0    0  501 -0.00000000000E+00 -0.00000000000E+00 -0.10060198754E+04  0.10060198754E+04  0.50400000000E-02 0.  1.
    8880023    1    1    2    0    0  0.36440347907E+02 -0.77062129604E+03  0.16399514551E+04  0.19283246776E+04  0.65864270000E+03 0. -1.
    8880022    1    1    2    0    0 -0.36440347907E+02  0.77062129604E+03 -0.68239695101E+03  0.10412695773E+04  0.15294330000E+03 0.  0.
<mgrwt>
<rscale>  0 0.95187346E+03</rscale>
<asrwt>0</asrwt>
<pdfrwt beam="1">  1        1 0.30208836E+00 0.10143940E+04</pdfrwt>
<pdfrwt beam="2">  1       -1 0.15477229E+00 0.10143940E+04</pdfrwt>
<totfact> 0.10192457E+00</totfact>
</mgrwt>
</event>
<event>
 4    5  0.7176259E-008  0.8650143E+03  0.7818608E-02  0.9584705E-01
          1   -1    0    0  501    0  0.00000000000E+00  0.00000000000E+00  0.89530174511E+03  0.89530174512E+03  0.50400000000E-02 0. -1.
         -1   -1    0    0    0  501 -0.00000000000E+00 -0.00000000000E+00 -0.61651620538E+03  0.61651620540E+03  0.50400000000E-02 0.  1.
    8880023    1    1    2    0    0  0.50592319027E+03 -0.24182901019E+03  0.33555789688E+03  0.92781940756E+03  0.65864270000E+03 0. -1.
    8880022    1    1    2    0    0 -0.50592319027E+03  0.24182901019E+03 -0.56772357146E+02  0.58399854296E+03  0.15294330000E+03 0.  0.
<mgrwt>
<rscale>  0 0.78316801E+03</rscale>
<asrwt>0</asrwt>
<pdfrwt beam="1">  1        1 0.13773873E+00 0.86501431E+03</pdfrwt>
<pdfrwt beam="2">  1       -1 0.94848647E-01 0.86501431E+03</pdfrwt>
<totfact> 0.20031228E+01</totfact>
</mgrwt>
</event>
<event>
 4    5  0.7176259E-008  0.7840469E+03  0.7818608E-02  0.9746415E-01
         -1   -1    0    0    0  501 -0.00000000000E+00  0.00000000000E+00  0.61651718300E+03  0.61651718303E+03  0.50400000000E-02 0.  1.
          1   -1    0    0  501    0  0.00000000000E+00 -0.00000000000E+00 -0.94402596797E+03  0.94402596798E+03  0.50400000000E-02 0. -1.
    8880023    1    1    2    0    0  0.30057089790E+03 -0.30095933532E+03 -0.63911762115E+03  0.10115339471E+04  0.65864270000E+03 0. -1.
    8880022    1    1    2    0    0 -0.30057089790E+03  0.30095933532E+03  0.31160883619E+03  0.54900920392E+03  0.15294330000E+03 0.  0.
<mgrwt>
<rscale>  0 0.68319240E+03</rscale>
<asrwt>0</asrwt>
<pdfrwt beam="1">  1        1 0.14523476E+00 0.78404693E+03</pdfrwt>
<pdfrwt beam="2">  1       -1 0.94848798E-01 0.78404693E+03</pdfrwt>
<totfact> 0.18457087E+01</totfact>
</mgrwt>
</event>
<event>
 4    5  0.7176259E-008  0.1585868E+04  0.7818608E-02  0.8851267E-01
          1   -1    0    0  501    0  0.00000000000E+00  0.00000000000E+00  0.25548158805E+04  0.25548158805E+04  0.50400000000E-02 0. -1.
         -1   -1    0    0    0  501 -0.00000000000E+00 -0.00000000000E+00 -0.98748048423E+03  0.98748048424E+03  0.50400000000E-02 0.  1.
    8880023    1    1    2    0    0 -0.14423113709E+04  0.30074708780E+02  0.13352688938E+04  0.20731424948E+04  0.65864270000E+03 0.  0.
    8880022    1    1    2    0    0  0.14423113709E+04 -0.30074708780E+02  0.23206650238E+03  0.14691538699E+04  0.15294330000E+03 0.  0.
<mgrwt>
<rscale>  0 0.15509413E+04</rscale>
<asrwt>0</asrwt>
<pdfrwt beam="1">  1        1 0.39304859E+00 0.15858678E+04</pdfrwt>
<pdfrwt beam="2">  1       -1 0.15192008E+00 0.15858678E+04</pdfrwt>
<totfact> 0.39354000E-01</totfact>
</mgrwt>
</event>
<event>
 4    5  0.7176259E-008  0.7931526E+03  0.7818608E-02  0.9725802E-01
         -1   -1    0    0    0  501 -0.00000000000E+00  0.00000000000E+00  0.33653792057E+03  0.33653792061E+03  0.50400000000E-02 0.  1.
          1   -1    0    0  501    0  0.00000000000E+00 -0.00000000000E+00 -0.19249818822E+04  0.19249818822E+04  0.50400000000E-02 0. -1.
    8880023    1    1    2    0    0 -0.11395084317E+03  0.42696134373E+03 -0.16085462279E+04  0.17934636760E+04  0.65864270000E+03 0.  0.
    8880022    1    1    2    0    0  0.11395084317E+03 -0.42696134373E+03  0.20102266259E+02  0.46805612679E+03  0.15294330000E+03 0.  1.
<mgrwt>
<rscale>  0 0.69501120E+03</rscale>
<asrwt>0</asrwt>
<pdfrwt beam="1">  1        1 0.29615105E+00 0.79315256E+03</pdfrwt>
<pdfrwt beam="2">  1       -1 0.51775066E-01 0.79315256E+03</pdfrwt>
<totfact> 0.13039702E+01</totfact>
</mgrwt>
</event>
<event>
 4    5  0.7176259E-008  0.9914746E+03  0.7818608E-02  0.9392797E-01
         -1   -1    0    0    0  501 -0.00000000000E+00  0.00000000000E+00  0.92945834987E+03  0.92945834988E+03  0.50400000000E-02 0.  1.
          1   -1    0    0  501    0  0.00000000000E+00 -0.00000000000E+00 -0.15538073430E+04  0.15538073430E+04  0.50400000000E-02 0. -1.
    8880023    1    1    2    0    0  0.47909171192E+02  0.73953798913E+03 -0.11823716017E+04  0.15430568806E+04  0.65864270000E+03 0.  0.
    8880022    1    1    2    0    0 -0.47909171192E+02 -0.73953798913E+03  0.55802260854E+03  0.94020881229E+03  0.15294330000E+03 0.  0.
<mgrwt>
<rscale>  0 0.92670806E+03</rscale>
<asrwt>0</asrwt>
<pdfrwt beam="1">  1        1 0.23904728E+00 0.99147463E+03</pdfrwt>
<pdfrwt beam="2">  1       -1 0.14299359E+00 0.99147463E+03</pdfrwt>
<totfact> 0.23974133E+00</totfact>
</mgrwt>
</event>
<event>
 4    5  0.7176259E-008  0.7214384E+03  0.7818608E-02  0.9917749E-01
          1   -1    0    0  501    0  0.00000000000E+00  0.00000000000E+00  0.19208706088E+04  0.19208706088E+04  0.50400000000E-02 0. -1.
         -1   -1    0    0    0  501 -0.00000000000E+00 -0.00000000000E+00 -0.23389732991E+03  0.23389732996E+03  0.50400000000E-02 0.  1.
    8880023    1    1    2    0    0 -0.28191342260E+03 -0.84781837568E+02  0.16739184320E+04  0.18227661016E+04  0.65864270000E+03 0. -1.
    8880022    1    1    2    0    0  0.28191342260E+03  0.84781837568E+02  0.13054846846E+02  0.33200183714E+03  0.15294330000E+03 0.  0.
<mgrwt>
<rscale>  0 0.59408769E+03</rscale>
<asrwt>0</asrwt>
<pdfrwt beam="1">  1        1 0.29551855E+00 0.72143839E+03</pdfrwt>
<pdfrwt beam="2">  1       -1 0.35984205E-01 0.72143839E+03</pdfrwt>
<totfact> 0.25934558E+01</totfact>
</mgrwt>
</event>
<event>
 4    5  0.7176259E-008  0.1134429E+04  0.7818608E-02  0.9223658E-01
         -1   -1    0    0    0  501 -0.00000000000E+00  0.00000000000E+00  0.75085714097E+03  0.75085714098E+03  0.50400000000E-02 0.  1.
          1   -1    0    0  501    0  0.00000000000E+00 -0.00000000000E+00 -0.19466244940E+04  0.19466244940E+04  0.50400000000E-02 0. -1.
    8880023    1    1    2    0    0  0.63278046165E+02 -0.92147402092E+03 -0.13339695409E+04  0.17511149090E+04  0.65864270000E+03 0.  0.
    8880022    1    1    2    0    0 -0.63278046165E+02  0.92147402092E+03  0.13820218781E+03  0.94636672600E+03  0.15294330000E+03 0.  0.
<mgrwt>
<rscale>  0 0.10812536E+04</rscale>
<asrwt>0</asrwt>
<pdfrwt beam="1">  1        1 0.29948069E+00 0.11344288E+04</pdfrwt>
<pdfrwt beam="2">  1       -1 0.11551648E+00 0.11344288E+04</pdfrwt>
<totfact> 0.21830485E+00</totfact>
</mgrwt>
</event>
<event>
 4    5  0.7176259E-008  0.7369712E+03  0.7818608E-02  0.9868859E-01
          1   -1    0    0  501    0  0.00000000000E+00  0.00000000000E+00  0.24895358815E+03  0.24895358821E+03  0.50400000000E-02 0. -1.
         -1   -1    0    0    0  501 -0.00000000000E+00 -0.00000000000E+00 -0.23205768042E+04  0.23205768042E+04  0.50400000000E-02 0.  1.
    8880023    1    1    2    0    0  0.15536423107E+03  0.29185313174E+03 -0.36116831061E+03  0.82071252559E+03  0.65864270000E+03 0. -1.
    8880022    1    1    2    0    0 -0.15536423107E+03 -0.29185313174E+03 -0.17104549055E+04  0.17488178668E+04  0.15294330000E+03 0.  0.
<mgrwt>
<rscale>  0 0.61794524E+03</rscale>
<asrwt>0</asrwt>
<pdfrwt beam="1">  1        1 0.38300554E-01 0.73697117E+03</pdfrwt>
<pdfrwt beam="2">  1       -1 0.35701180E+00 0.73697117E+03</pdfrwt>
<totfact> 0.16566285E+00</totfact>
</mgrwt>
</event>
<event>
 4    5  0.7176259E-008  0.8873686E+03  0.7818608E-02  0.9546621E-01
          1   -1    0    0  501    0  0.00000000000E+00  0.00000000000E+00  0.68639226894E+03  0.68639226896E+03  0.50400000000E-02 0. -1.
         -1   -1    0    0    0  501 -0.00000000000E+00 -0.00000000000E+00 -0.18318709030E+04  0.18318709030E+04  0.50400000000E-02 0.  1.
    8880023    1    1    2    0    0  0.56754735070E+03 -0.17749033265E+03  0.30889130840E+03  0.93959398686E+03  0.65864270000E+03 0. -1.
    8880022    1    1    2    0    0 -0.56754735070E+03  0.17749033265E+03 -0.14543699424E+04  0.15786691851E+04  0.15294330000E+03 0.  0.
<mgrwt>
<rscale>  0 0.80932201E+03</rscale>
<asrwt>0</asrwt>
<pdfrwt beam="1">  1        1 0.10559881E+00 0.88736859E+03</pdfrwt>
<pdfrwt beam="2">  1       -1 0.28182629E+00 0.88736859E+03</pdfrwt>
<totfact> 0.12501329E+00</totfact>
</mgrwt>
</event>
<event>
 4    5  0.7176259E-008  0.1140419E+04  0.7818608E-02  0.9217335E-01
         -1   -1    0    0    0  501 -0.00000000000E+00  0.00000000000E+00  0.23084542728E+04  0.23084542728E+04  0.50400000000E-02 0.  1.
          1   -1    0    0  501    0  0.00000000000E+00 -0.00000000000E+00 -0.11096492002E+04  0.11096492002E+04  0.50400000000E-02 0. -1.
    8880023    1    1    2    0    0  0.70235123041E+03  0.61110317186E+03 -0.67141138458E+03  0.13233849746E+04  0.65864270000E+03 0. -1.
    8880022    1    1    2    0    0 -0.70235123041E+03 -0.61110317186E+03  0.18702164572E+04  0.20947184984E+04  0.15294330000E+03 0.  0.
<mgrwt>
<rscale>  0 0.10876277E+04</rscale>
<asrwt>0</asrwt>
<pdfrwt beam="1">  1        1 0.17071526E+00 0.11404186E+04</pdfrwt>
<pdfrwt beam="2">  1       -1 0.35514681E+00 0.11404186E+04</pdfrwt>
<totfact> 0.17869756E-01</totfact>
</mgrwt>
</event>
<event>
 4    5  0.8384257E-008  0.8792585E+03  0.7818608E-02  0.9560184E-01
         -1   -1    0    0    0  501 -0.00000000000E+00  0.00000000000E+00  0.12976642899E+04  0.12976642899E+04  0.50400000000E-02 0.  1.
          1   -1    0    0  501    0  0.00000000000E+00 -0.00000000000E+00 -0.21848335945E+04  0.21848335945E+04  0.50400000000E-02 0. -1.
    8880023    1    1    2    0    0 -0.53414867313E+03  0.23231563068E+03 -0.20180409460E+04  0.22012689121E+04  0.65864270000E+03 0. -1.
    8880022    1    1    2    0    0  0.53414867313E+03 -0.23231563068E+03  0.11308716414E+04  0.12812289724E+04  0.15294330000E+03 0.  0.
<mgrwt>
<rscale>  0 0.79988480E+03</rscale>
<asrwt>0</asrwt>
<pdfrwt beam="1">  1        1 0.33612824E+00 0.87925853E+03</pdfrwt>
<pdfrwt beam="2">  1       -1 0.19964066E+00 0.87925853E+03</pdfrwt>
<totfact> 0.35087472E-01</totfact>
</mgrwt>
</event>
<event>
 4    5  0.7176259E-008  0.7488480E+03  0.7818608E-02  0.9834885E-01
         -1   -1    0    0    0  501 -0.00000000000E+00  0.00000000000E+00  0.85222846496E+03  0.85222846498E+03  0.50400000000E-02 0.  1.
          1   -1    0    0  501    0  0.00000000000E+00 -0.00000000000E+00 -0.69369330614E+03  0.69369330616E+03  0.50400000000E-02 0. -1.
    8880023    1    1    2    0    0 -0.66004817299E+02  0.35015204643E+03 -0.41306041307E+03  0.85521471142E+03  0.65864270000E+03 0. -1.
    8880022    1    1    2    0    0  0.66004817299E+02 -0.35015204643E+03  0.57159557189E+03  0.69070705971E+03  0.15294330000E+03 0.  0.
<mgrwt>
<rscale>  0 0.63523569E+03</rscale>
<asrwt>0</asrwt>
<pdfrwt beam="1">  1        1 0.10672205E+00 0.74884798E+03</pdfrwt>
<pdfrwt beam="2">  1       -1 0.13111207E+00 0.74884798E+03</pdfrwt>
<totfact> 0.14104649E+01</totfact>
</mgrwt>
</event>
<event>
 4    5  0.7176259E-008  0.8756299E+03  0.7818608E-02  0.9566344E-01
         -1   -1    0    0    0  501 -0.00000000000E+00  0.00000000000E+00  0.43783973947E+03  0.43783973950E+03  0.50400000000E-02 0.  1.
          1   -1    0    0  501    0  0.00000000000E+00 -0.00000000000E+00 -0.27682105278E+04  0.27682105278E+04  0.50400000000E-02 0. -1.
    8880023    1    1    2    0    0 -0.41261861102E+03  0.40331540908E+03 -0.24460266272E+04  0.25980326989E+04  0.65864270000E+03 0.  0.
    8880022    1    1    2    0    0  0.41261861102E+03 -0.40331540908E+03  0.11565583889E+03  0.60801756837E+03  0.15294330000E+03 0.  1.
<mgrwt>
<rscale>  0 0.79564398E+03</rscale>
<asrwt>0</asrwt>
<pdfrwt beam="1">  1        1 0.42587853E+00 0.87562986E+03</pdfrwt>
<pdfrwt beam="2">  1       -1 0.67359962E-01 0.87562986E+03</pdfrwt>
<totfact> 0.20467419E+00</totfact>
</mgrwt>
</event>
<event>
 4    5  0.7176259E-008  0.7428415E+03  0.7818608E-02  0.9851746E-01
          1   -1    0    0  501    0  0.00000000000E+00  0.00000000000E+00  0.24937676485E+04  0.24937676485E+04  0.50400000000E-02 0. -1.
         -1   -1    0    0    0  501 -0.00000000000E+00 -0.00000000000E+00 -0.58524052697E+03  0.58524052699E+03  0.50400000000E-02 0.  1.
    8880023    1    1    2    0    0  0.32769087186E+03 -0.10306294012E+03  0.23700253459E+04  0.24837136759E+04  0.65864270000E+03 0. -1.
    8880022    1    1    2    0    0 -0.32769087186E+03  0.10306294012E+03 -0.46149822440E+03  0.59529449961E+03  0.15294330000E+03 0.  0.
<mgrwt>
<rscale>  0 0.62657974E+03</rscale>
<asrwt>0</asrwt>
<pdfrwt beam="1">  1        1 0.38365657E+00 0.74284149E+03</pdfrwt>
<pdfrwt beam="2">  1       -1 0.90037002E-01 0.74284149E+03</pdfrwt>
<totfact> 0.17605882E+00</totfact>
</mgrwt>
</event>
<event>
 4    5  0.7176259E-008  0.7973244E+03  0.7818608E-02  0.9716611E-01
         -1   -1    0    0    0  501 -0.00000000000E+00  0.00000000000E+00  0.57738781854E+03  0.57738781856E+03  0.50400000000E-02 0.  1.
          1   -1    0    0  501    0  0.00000000000E+00 -0.00000000000E+00 -0.13809460860E+04  0.13809460860E+04  0.50400000000E-02 0. -1.
    8880023    1    1    2    0    0  0.23003322679E+03  0.38600614199E+03 -0.11294747359E+04  0.13825481592E+04  0.65864270000E+03 0.  1.
    8880022    1    1    2    0    0 -0.23003322679E+03 -0.38600614199E+03  0.32591646852E+03  0.57578574535E+03  0.15294330000E+03 0.  0.
<mgrwt>
<rscale>  0 0.70036317E+03</rscale>
<asrwt>0</asrwt>
<pdfrwt beam="1">  1        1 0.21245324E+00 0.79732442E+03</pdfrwt>
<pdfrwt beam="2">  1       -1 0.88828895E-01 0.79732442E+03</pdfrwt>
<totfact> 0.10146189E+01</totfact>
</mgrwt>
</event>
<event>
 4    5  0.7176259E-008  0.1027147E+04  0.7818608E-02  0.9346873E-01
          1   -1    0    0  501    0  0.00000000000E+00  0.00000000000E+00  0.33240170093E+04  0.33240170093E+04  0.50400000000E-02 0. -1.
         -1   -1    0    0    0  501 -0.00000000000E+00 -0.00000000000E+00 -0.10959126033E+04  0.10959126033E+04  0.50400000000E-02 0.  1.
    8880023    1    1    2    0    0  0.78817488917E+03 -0.38337999802E+00  0.30815259638E+04  0.32482044694E+04  0.65864270000E+03 0. -1.
    8880022    1    1    2    0    0 -0.78817488917E+03  0.38337999802E+00 -0.85342155787E+03  0.11717251433E+04  0.15294330000E+03 0.  0.
<mgrwt>
<rscale>  0 0.96579857E+03</rscale>
<asrwt>0</asrwt>
<pdfrwt beam="1">  1        1 0.51138721E+00 0.10271465E+04</pdfrwt>
<pdfrwt beam="2">  1       -1 0.16860194E+00 0.10271465E+04</pdfrwt>
<totfact> 0.88826247E-02</totfact>
</mgrwt>
</event>
<event>
 4    5  0.7176259E-008  0.1041104E+04  0.7818608E-02  0.9329653E-01
         -1   -1    0    0    0  501 -0.00000000000E+00  0.00000000000E+00  0.40461345399E+03  0.40461345403E+03  0.50400000000E-02 0.  1.
          1   -1    0    0  501    0  0.00000000000E+00 -0.00000000000E+00 -0.23945928403E+04  0.23945928403E+04  0.50400000000E-02 0. -1.
    8880023    1    1    2    0    0 -0.66699573241E+03  0.45299410331E+03 -0.15523851623E+04  0.18691701001E+04  0.65864270000E+03 0.  0.
    8880022    1    1    2    0    0  0.66699573241E+03 -0.45299410331E+03 -0.43759422401E+03  0.93003619424E+03  0.15294330000E+03 0.  0.
<mgrwt>
<rscale>  0 0.98098193E+03</rscale>
<asrwt>0</asrwt>
<pdfrwt beam="1">  1        1 0.36839889E+00 0.10411038E+04</pdfrwt>
<pdfrwt beam="2">  1       -1 0.62248225E-01 0.10411038E+04</pdfrwt>
<totfact> 0.42429195E+00</totfact>
</mgrwt>
</event>
<event>
 4    5  0.7176259E-008  0.7446224E+03  0.7818608E-02  0.9846681E-01
          1   -1    0    0  501    0  0.00000000000E+00  0.00000000000E+00  0.12407484268E+04  0.12407484268E+04  0.50400000000E-02 0. -1.
         -1   -1    0    0    0  501 -0.00000000000E+00 -0.00000000000E+00 -0.27997496571E+03  0.27997496575E+03  0.50400000000E-02 0.  1.
    8880023    1    1    2    0    0 -0.33829483840E+03  0.78796709515E+02  0.83980723725E+03  0.11223808271E+04  0.65864270000E+03 0.  0.
    8880022    1    1    2    0    0  0.33829483840E+03 -0.78796709515E+02  0.12096622387E+03  0.39834256546E+03  0.15294330000E+03 0.  0.
<mgrwt>
<rscale>  0 0.62916414E+03</rscale>
<asrwt>0</asrwt>
<pdfrwt beam="1">  1        1 0.19088438E+00 0.74462240E+03</pdfrwt>
<pdfrwt beam="2">  1       -1 0.43073071E-01 0.74462240E+03</pdfrwt>
<totfact> 0.54392649E+01</totfact>
</mgrwt>
</event>
<event>
 4    5  0.7176259E-008  0.6765157E+03  0.7818608E-02  0.1011367E+00
          1   -1    0    0  501    0  0.00000000000E+00  0.00000000000E+00  0.37452161745E+04  0.37452161745E+04  0.50400000000E-02 0. -1.
         -1   -1    0    0    0  501 -0.00000000000E+00 -0.00000000000E+00 -0.66500590439E+02  0.66500590630E+02  0.50400000000E-02 0.  1.
    8880023    1    1    2    0    0 -0.71520846201E+02  0.13692361924E+03  0.33499820896E+04  0.34176093276E+04  0.65864270000E+03 0.  0.
    8880022    1    1    2    0    0  0.71520846201E+02 -0.13692361924E+03  0.32873349443E+03  0.39410743754E+03  0.15294330000E+03 0.  1.
<mgrwt>
<rscale>  0 0.50934770E+03</rscale>
<asrwt>0</asrwt>
<pdfrwt beam="1">  1        1 0.57618719E+00 0.67651572E+03</pdfrwt>
<pdfrwt beam="2">  1       -1 0.10230859E-01 0.67651572E+03</pdfrwt>
<totfact> 0.10593196E+01</totfact>
</mgrwt>
</event>
<event>
 4    5  0.7176259E-008  0.6667738E+03  0.7818608E-02  0.1018089E+00
         -1   -1    0    0    0  501 -0.00000000000E+00  0.00000000000E+00  0.81919009633E+03  0.81919009634E+03  0.50400000000E-02 0.  1.
          1   -1    0    0  501    0  0.00000000000E+00 -0.00000000000E+00 -0.10085943004E+04  0.10085943004E+04  0.50400000000E-02 0. -1.
    8880023    1    1    2    0    0 -0.15452177092E+02  0.10265642399E+03 -0.88498857029E+03  0.11080577995E+04  0.65864270000E+03 0. -1.
    8880022    1    1    2    0    0  0.15452177092E+02 -0.10265642399E+03  0.69558436626E+03  0.71972659724E+03  0.15294330000E+03 0.  0.
<mgrwt>
<rscale>  0 0.48382417E+03</rscale>
<asrwt>0</asrwt>
<pdfrwt beam="1">  1        1 0.15516835E+00 0.66677381E+03</pdfrwt>
<pdfrwt beam="2">  1       -1 0.12602925E+00 0.66677381E+03</pdfrwt>
<totfact> 0.85502864E+00</totfact>
</mgrwt>
</event>
<event>
 4    5  0.7176259E-008  0.1407586E+04  0.7818608E-02  0.8977810E-01
          1   -1    0    0  501    0  0.00000000000E+00  0.00000000000E+00  0.17668349063E+04  0.17668349063E+04  0.50400000000E-02 0. -1.
         -1   -1    0    0    0  501 -0.00000000000E+00 -0.00000000000E+00 -0.13574500597E+04  0.13574500597E+04  0.50400000000E-02 0.  1.
    8880023    1    1    2    0    0  0.60967727714E+03 -0.10843353231E+04  0.10119712186E+04  0.17336047498E+04  0.65864270000E+03 0.  0.
    8880022    1    1    2    0    0 -0.60967727714E+03  0.10843353231E+04 -0.60258637198E+03  0.13906802162E+04  0.15294330000E+03 0.  0.
<mgrwt>
<rscale>  0 0.13673328E+04</rscale>
<asrwt>0</asrwt>
<pdfrwt beam="1">  1        1 0.27182076E+00 0.14075865E+04</pdfrwt>
<pdfrwt beam="2">  1       -1 0.20883847E+00 0.14075865E+04</pdfrwt>
<totfact> 0.53679407E-01</totfact>
</mgrwt>
</event>
<event>
 4    5  0.7176259E-008  0.7211659E+03  0.7818608E-02  0.9918660E-01
         -1   -1    0    0    0  501 -0.00000000000E+00  0.00000000000E+00  0.11764395562E+04  0.11764395562E+04  0.50400000000E-02 0.  1.
          1   -1    0    0  501    0  0.00000000000E+00 -0.00000000000E+00 -0.50608241931E+03  0.50608241933E+03  0.50400000000E-02 0. -1.
    8880023    1    1    2    0    0 -0.15468700643E+03 -0.24968390130E+03 -0.20241790770E+03  0.74903493653E+03  0.65864270000E+03 0. -1.
    8880022    1    1    2    0    0  0.15468700643E+03  0.24968390130E+03  0.87277504459E+03  0.93348703901E+03  0.15294330000E+03 0.  0.
<mgrwt>
<rscale>  0 0.59365389E+03</rscale>
<asrwt>0</asrwt>
<pdfrwt beam="1">  1        1 0.77858834E-01 0.72116595E+03</pdfrwt>
<pdfrwt beam="2">  1       -1 0.18099070E+00 0.72116595E+03</pdfrwt>
<totfact> 0.92373086E+00</totfact>
</mgrwt>
</event>
<event>
 4    5  0.7176259E-008  0.7346453E+03  0.7818608E-02  0.9875829E-01
          1   -1    0    0  501    0  0.00000000000E+00  0.00000000000E+00  0.79145590956E+03  0.79145590957E+03  0.50400000000E-02 0. -1.
         -1   -1    0    0    0  501 -0.00000000000E+00 -0.00000000000E+00 -0.46735206659E+03  0.46735206661E+03  0.50400000000E-02 0.  1.
    8880023    1    1    2    0    0 -0.20897654474E+03 -0.24944411902E+03  0.46851783822E+03  0.87132814471E+03  0.65864270000E+03 0. -1.
    8880022    1    1    2    0    0  0.20897654474E+03  0.24944411902E+03 -0.14441399525E+03  0.38747983148E+03  0.15294330000E+03 0.  0.
<mgrwt>
<rscale>  0 0.61447173E+03</rscale>
<asrwt>0</asrwt>
<pdfrwt beam="1">  1        1 0.12176245E+00 0.73464534E+03</pdfrwt>
<pdfrwt beam="2">  1       -1 0.71900319E-01 0.73464534E+03</pdfrwt>
<totfact> 0.45006594E+01</totfact>
</mgrwt>
</event>
<event>
 4    5  0.7176259E-008  0.7190083E+03  0.7818608E-02  0.9925956E-01
          1   -1    0    0  501    0  0.00000000000E+00  0.00000000000E+00  0.51965246495E+03  0.51965246497E+03  0.50400000000E-02 0. -1.
         -1   -1    0    0    0  501 -0.00000000000E+00 -0.00000000000E+00 -0.56923289512E+03  0.56923289514E+03  0.50400000000E-02 0.  1.
    8880023    1    1    2    0    0  0.35915756063E+02  0.28613427640E+03 -0.17364110086E+03  0.73967844624E+03  0.65864270000E+03 0.  0.
    8880022    1    1    2    0    0 -0.35915756063E+02 -0.28613427640E+03  0.12406067069E+03  0.34920691387E+03  0.15294330000E+03 0.  0.
<mgrwt>
<rscale>  0 0.59019683E+03</rscale>
<asrwt>0</asrwt>
<pdfrwt beam="1">  1        1 0.79946533E-01 0.71900833E+03</pdfrwt>
<pdfrwt beam="2">  1       -1 0.87574292E-01 0.71900833E+03</pdfrwt>
<totfact> 0.55164329E+01</totfact>
</mgrwt>
</event>
<event>
 4    5  0.7176259E-008  0.6771162E+03  0.7818608E-02  0.1011004E+00
          1   -1    0    0  501    0  0.00000000000E+00  0.00000000000E+00  0.15307464435E+04  0.15307464435E+04  0.50400000000E-02 0. -1.
         -1   -1    0    0    0  501 -0.00000000000E+00 -0.00000000000E+00 -0.89914159665E+03  0.89914159666E+03  0.50400000000E-02 0.  1.
    8880023    1    1    2    0    0 -0.15356371479E+03 -0.33080794615E+02  0.14405544461E+04  0.15917548404E+04  0.65864270000E+03 0. -1.
    8880022    1    1    2    0    0  0.15356371479E+03  0.33080794615E+02 -0.80894959924E+03  0.83813319979E+03  0.15294330000E+03 0.  0.
<mgrwt>
<rscale>  0 0.51077449E+03</rscale>
<asrwt>0</asrwt>
<pdfrwt beam="1">  1        1 0.23549945E+00 0.67711621E+03</pdfrwt>
<pdfrwt beam="2">  1       -1 0.13832948E+00 0.67711621E+03</pdfrwt>
<totfact> 0.28560020E+00</totfact>
</mgrwt>
</event>
<event>
 4    5  0.7176259E-008  0.9896136E+03  0.7818608E-02  0.9395274E-01
          1   -1    0    0  501    0  0.00000000000E+00  0.00000000000E+00  0.75925143176E+03  0.75925143178E+03  0.50400000000E-02 0. -1.
         -1   -1    0    0    0  501 -0.00000000000E+00 -0.00000000000E+00 -0.18572270542E+04  0.18572270542E+04  0.50400000000E-02 0.  1.
    8880023    1    1    2    0    0 -0.65762805106E+03  0.33622934203E+03  0.29478980536E+03  0.10325870712E+04  0.65864270000E+03 0. -1.
    8880022    1    1    2    0    0  0.65762805106E+03 -0.33622934203E+03 -0.13927654278E+04  0.15838914148E+04  0.15294330000E+03 0.  0.
<mgrwt>
<rscale>  0 0.92465622E+03</rscale>
<asrwt>0</asrwt>
<pdfrwt beam="1">  1        1 0.11680791E+00 0.98961358E+03</pdfrwt>
<pdfrwt beam="2">  1       -1 0.28572724E+00 0.98961358E+03</pdfrwt>
<totfact> 0.99513164E-01</totfact>
</mgrwt>
</event>
<event>
 4    5  0.7176259E-008  0.7823025E+03  0.7818608E-02  0.9750456E-01
          1   -1    0    0  501    0  0.00000000000E+00  0.00000000000E+00  0.90788162064E+03  0.90788162066E+03  0.50400000000E-02 0. -1.
         -1   -1    0    0    0  501 -0.00000000000E+00 -0.00000000000E+00 -0.63900990773E+03  0.63900990775E+03  0.50400000000E-02 0.  1.
    8880023    1    1    2    0    0 -0.16391846722E+03 -0.38899570689E+03  0.60258819939E+03  0.98747641399E+03  0.65864270000E+03 0. -1.
    8880022    1    1    2    0    0  0.16391846722E+03  0.38899570689E+03 -0.33371648647E+03  0.55941511442E+03  0.15294330000E+03 0.  0.
<mgrwt>
<rscale>  0 0.68090507E+03</rscale>
<asrwt>0</asrwt>
<pdfrwt beam="1">  1        1 0.13967410E+00 0.78230245E+03</pdfrwt>
<pdfrwt beam="2">  1       -1 0.98309216E-01 0.78230245E+03</pdfrwt>
<totfact> 0.18207689E+01</totfact>
</mgrwt>
</event>
<event>
 4    5  0.7176259E-008  0.1593840E+04  0.7818608E-02  0.8846066E-01
          1   -1    0    0  501    0  0.00000000000E+00  0.00000000000E+00  0.14946536590E+04  0.14946536590E+04  0.50400000000E-02 0. -1.
         -1   -1    0    0    0  501 -0.00000000000E+00 -0.00000000000E+00 -0.22131200498E+04  0.22131200498E+04  0.50400000000E-02 0.  1.
    8880023    1    1    2    0    0  0.90383421822E+03  0.11356046622E+04  0.63659395787E+03  0.17162681365E+04  0.65864270000E+03 0.  0.
    8880022    1    1    2    0    0 -0.90383421822E+03 -0.11356046622E+04 -0.13550603487E+04  0.19915055723E+04  0.15294330000E+03 0.  0.
<mgrwt>
<rscale>  0 0.15591162E+04</rscale>
<asrwt>0</asrwt>
<pdfrwt beam="1">  1        1 0.22994672E+00 0.15938395E+04</pdfrwt>
<pdfrwt beam="2">  1       -1 0.34048001E+00 0.15938395E+04</pdfrwt>
<totfact> 0.11089840E-01</totfact>
</mgrwt>
</event>
<event>
 4    5  0.7176259E-008  0.7422579E+03  0.7818608E-02  0.9853418E-01
         -1   -1    0    0    0  501 -0.00000000000E+00  0.00000000000E+00  0.26975969455E+03  0.26975969460E+03  0.50400000000E-02 0.  1.
          1   -1    0    0  501    0  0.00000000000E+00 -0.00000000000E+00 -0.18088533384E+04  0.18088533384E+04  0.50400000000E-02 0. -1.
    8880023    1    1    2    0    0 -0.30450725831E+03 -0.15624301648E+03 -0.15335086203E+04  0.17037005152E+04  0.65864270000E+03 0. -1.
    8880022    1    1    2    0    0  0.30450725831E+03  0.15624301648E+03 -0.55850235874E+01  0.37491251788E+03  0.15294330000E+03 0.  0.
<mgrwt>
<rscale>  0 0.62572938E+03</rscale>
<asrwt>0</asrwt>
<pdfrwt beam="1">  1        1 0.27828512E+00 0.74225788E+03</pdfrwt>
<pdfrwt beam="2">  1       -1 0.41501493E-01 0.74225788E+03</pdfrwt>
<totfact> 0.23742969E+01</totfact>
</mgrwt>
</event>
<event>
 4    5  0.7176259E-008  0.9464172E+03  0.7818608E-02  0.9455288E-01
         -1   -1    0    0    0  501 -0.00000000000E+00  0.00000000000E+00  0.58185971006E+03  0.58185971008E+03  0.50400000000E-02 0.  1.
          1   -1    0    0  501    0  0.00000000000E+00 -0.00000000000E+00 -0.15018411543E+04  0.15018411543E+04  0.50400000000E-02 0. -1.
    8880023    1    1    2    0    0  0.65389843193E+03 -0.18523522835E+03 -0.10066749473E+04  0.13817018148E+04  0.65864270000E+03 0. -1.
    8880022    1    1    2    0    0 -0.65389843193E+03  0.18523522835E+03  0.86693503134E+02  0.70199904957E+03  0.15294330000E+03 0.  0.
<mgrwt>
<rscale>  0 0.87662081E+03</rscale>
<asrwt>0</asrwt>
<pdfrwt beam="1">  1        1 0.23105248E+00 0.94641717E+03</pdfrwt>
<pdfrwt beam="2">  1       -1 0.89516879E-01 0.94641717E+03</pdfrwt>
<totfact> 0.80694050E+00</totfact>
</mgrwt>
</event>
<event>
 4    5  0.7176259E-008  0.2179833E+04  0.7818608E-02  0.8537243E-01
         -1   -1    0    0    0  501 -0.00000000000E+00  0.00000000000E+00  0.19940285021E+04  0.19940285021E+04  0.50400000000E-02 0.  1.
          1   -1    0    0  501    0  0.00000000000E+00 -0.00000000000E+00 -0.29740547154E+04  0.29740547154E+04  0.50400000000E-02 0. -1.
    8880023    1    1    2    0    0  0.98518301873E+03  0.18295558808E+04 -0.16992274636E+04  0.27638821394E+04  0.65864270000E+03 0.  0.
    8880022    1    1    2    0    0 -0.98518301873E+03 -0.18295558808E+04  0.71920125037E+03  0.22042010781E+04  0.15294330000E+03 0.  0.
<mgrwt>
<rscale>  0 0.21553571E+04</rscale>
<asrwt>0</asrwt>
<pdfrwt beam="1">  1        1 0.45754688E+00 0.21798327E+04</pdfrwt>
<pdfrwt beam="2">  1       -1 0.30677362E+00 0.21798327E+04</pdfrwt>
<totfact> 0.16179838E-02</totfact>
</mgrwt>
</event>
<event>
 4    5  0.7176259E-008  0.7703102E+03  0.7818608E-02  0.9779111E-01
         -1   -1    0    0    0  501 -0.00000000000E+00  0.00000000000E+00  0.83338353260E+03  0.83338353262E+03  0.50400000000E-02 0.  1.
          1   -1    0    0  501    0  0.00000000000E+00 -0.00000000000E+00 -0.47211370043E+03  0.47211370046E+03  0.50400000000E-02 0. -1.
    8880023    1    1    2    0    0 -0.39616310233E+03 -0.51208812492E+02  0.41401433644E+03  0.87452022456E+03  0.65864270000E+03 0.  1.
    8880022    1    1    2    0    0  0.39616310233E+03  0.51208812492E+02 -0.52744504268E+02  0.43097700851E+03  0.15294330000E+03 0.  0.
<mgrwt>
<rscale>  0 0.66495691E+03</rscale>
<asrwt>0</asrwt>
<pdfrwt beam="1">  1        1 0.72632877E-01 0.77031017E+03</pdfrwt>
<pdfrwt beam="2">  1       -1 0.12821285E+00 0.77031017E+03</pdfrwt>
<totfact> 0.25755980E+01</totfact>
</mgrwt>
</event>
<event>
 4    5  0.7176259E-008  0.9038839E+03  0.7818608E-02  0.9519825E-01
          1   -1    0    0  501    0  0.00000000000E+00  0.00000000000E+00  0.19197577420E+04  0.19197577420E+04  0.50400000000E-02 0. -1.
         -1   -1    0    0    0  501 -0.00000000000E+00 -0.00000000000E+00 -0.73415182660E+03  0.73415182662E+03  0.50400000000E-02 0.  1.
    8880023    1    1    2    0    0 -0.22183009340E+03 -0.57791639373E+03  0.16388551884E+04  0.18715908964E+04  0.65864270000E+03 0.  0.
    8880022    1    1    2    0    0  0.22183009340E+03  0.57791639373E+03 -0.45324927302E+03  0.78231867227E+03  0.15294330000E+03 0.  0.
<mgrwt>
<rscale>  0 0.82837840E+03</rscale>
<asrwt>0</asrwt>
<pdfrwt beam="1">  1        1 0.29534734E+00 0.90388393E+03</pdfrwt>
<pdfrwt beam="2">  1       -1 0.11294644E+00 0.90388393E+03</pdfrwt>
<totfact> 0.24802200E+00</totfact>
</mgrwt>
</event>
<event>
 4    5  0.7176259E-008  0.7230975E+03  0.7818608E-02  0.9912241E-01
          1   -1    0    0  501    0  0.00000000000E+00  0.00000000000E+00  0.61596774614E+03  0.61596774616E+03  0.50400000000E-02 0. -1.
         -1   -1    0    0    0  501 -0.00000000000E+00 -0.00000000000E+00 -0.17529873752E+04  0.17529873752E+04  0.50400000000E-02 0.  1.
    8880023    1    1    2    0    0  0.27729469141E+03 -0.11030584336E+03  0.37892327070E+03  0.81636558986E+03  0.65864270000E+03 0. -1.
    8880022    1    1    2    0    0 -0.27729469141E+03  0.11030584336E+03 -0.15159428997E+04  0.15525895315E+04  0.15294330000E+03 0.  0.
<mgrwt>
<rscale>  0 0.59671674E+03</rscale>
<asrwt>0</asrwt>
<pdfrwt beam="1">  1        1 0.94764269E-01 0.72309746E+03</pdfrwt>
<pdfrwt beam="2">  1       -1 0.26969036E+00 0.72309746E+03</pdfrwt>
<totfact> 0.18031378E+00</totfact>
</mgrwt>
</event>
<event>
 4    5  0.7176259E-008  0.1165991E+04  0.7818608E-02  0.9190912E-01
          1   -1    0    0  501    0  0.00000000000E+00  0.00000000000E+00  0.58185230806E+03  0.58185230808E+03  0.50400000000E-02 0. -1.
         -1   -1    0    0    0  501 -0.00000000000E+00 -0.00000000000E+00 -0.21281291395E+04  0.21281291395E+04  0.50400000000E-02 0.  1.
    8880023    1    1    2    0    0 -0.39244299530E+03 -0.87847168607E+03 -0.46699354800E+03  0.12560323196E+04  0.65864270000E+03 0.  0.
    8880022    1    1    2    0    0  0.39244299530E+03  0.87847168607E+03 -0.10792832834E+04  0.14539491279E+04  0.15294330000E+03 0.  0.
<mgrwt>
<rscale>  0 0.11147724E+04</rscale>
<asrwt>0</asrwt>
<pdfrwt beam="1">  1        1 0.89515741E-01 0.11659907E+04</pdfrwt>
<pdfrwt beam="2">  1       -1 0.32740448E+00 0.11659907E+04</pdfrwt>
<totfact> 0.78042033E-01</totfact>
</mgrwt>
</event>
<event>
 4    5  0.7176259E-008  0.7668445E+03  0.7818608E-02  0.9787700E-01
          1   -1    0    0  501    0  0.00000000000E+00  0.00000000000E+00  0.38452976433E+03  0.38452976436E+03  0.50400000000E-02 0. -1.
         -1   -1    0    0    0  501 -0.00000000000E+00 -0.00000000000E+00 -0.25545339001E+04  0.25545339001E+04  0.50400000000E-02 0.  1.
    8880023    1    1    2    0    0 -0.24713283023E+03 -0.30523039663E+03 -0.40134225658E+02  0.76789399863E+03  0.65864270000E+03 0.  0.
    8880022    1    1    2    0    0  0.24713283023E+03  0.30523039663E+03 -0.21298699101E+04  0.21711696658E+04  0.15294330000E+03 0.  0.
<mgrwt>
<rscale>  0 0.66026850E+03</rscale>
<asrwt>0</asrwt>
<pdfrwt beam="1">  1        1 0.59158427E-01 0.76684447E+03</pdfrwt>
<pdfrwt beam="2">  1       -1 0.39300520E+00 0.76684447E+03</pdfrwt>
<totfact> 0.53848412E-01</totfact>
</mgrwt>
</event>
<event>
 4    5  0.7176259E-008  0.1004466E+04  0.7818608E-02  0.9375737E-01
         -1   -1    0    0    0  501 -0.00000000000E+00  0.00000000000E+00  0.22268772091E+04  0.22268772091E+04  0.50400000000E-02 0.  1.
          1   -1    0    0  501    0  0.00000000000E+00 -0.00000000000E+00 -0.86901293677E+03  0.86901293678E+03  0.50400000000E-02 0. -1.
    8880023    1    1    2    0    0  0.90182602224E+02  0.75300048785E+03 -0.47152727995E+03  0.11096354439E+04  0.65864270000E+03 0. -1.
    8880022    1    1    2    0    0 -0.90182602224E+02 -0.75300048785E+03  0.18293915523E+04  0.19862547020E+04  0.15294330000E+03 0.  0.
<mgrwt>
<rscale>  0 0.94099584E+03</rscale>
<asrwt>0</asrwt>
<pdfrwt beam="1">  1        1 0.13369430E+00 0.10044664E+04</pdfrwt>
<pdfrwt beam="2">  1       -1 0.34259648E+00 0.10044664E+04</pdfrwt>
<totfact> 0.34205778E-01</totfact>
</mgrwt>
</event>
<event>
 4    5  0.7176259E-008  0.7772948E+03  0.7818608E-02  0.9762230E-01
         -1   -1    0    0    0  501 -0.00000000000E+00  0.00000000000E+00  0.71604450746E+03  0.71604450747E+03  0.50400000000E-02 0.  1.
          1   -1    0    0  501    0  0.00000000000E+00 -0.00000000000E+00 -0.53642053184E+03  0.53642053187E+03  0.50400000000E-02 0. -1.
    8880023    1    1    2    0    0  0.44374073086E+01  0.41274357906E+03  0.68854106211E+00  0.77729507460E+03  0.65864270000E+03 0. -1.
    8880022    1    1    2    0    0 -0.44374073086E+01 -0.41274357906E+03  0.17893543455E+03  0.47516996474E+03  0.15294330000E+03 0. -1.
<mgrwt>
<rscale>  0 0.67429468E+03</rscale>
<asrwt>0</asrwt>
<pdfrwt beam="1">  1        1 0.82526236E-01 0.77729477E+03</pdfrwt>
<pdfrwt beam="2">  1       -1 0.11016069E+00 0.77729477E+03</pdfrwt>
<totfact> 0.31208847E+01</totfact>
</mgrwt>
</event>
<event>
 4    5  0.7176259E-008  0.8219867E+03  0.7818608E-02  0.9665130E-01
         -1   -1    0    0    0  501 -0.00000000000E+00  0.00000000000E+00  0.82013258060E+03  0.82013258061E+03  0.50400000000E-02 0.  1.
          1   -1    0    0  501    0  0.00000000000E+00 -0.00000000000E+00 -0.31739709592E+04  0.31739709592E+04  0.50400000000E-02 0. -1.
    8880023    1    1    2    0    0 -0.47939094297E+03 -0.10971018328E+03 -0.30326252461E+04  0.31420499821E+04  0.65864270000E+03 0. -1.
    8880022    1    1    2    0    0  0.47939094297E+03  0.10971018328E+03  0.67878686756E+03  0.85205355765E+03  0.15294330000E+03 0.  0.
<mgrwt>
<rscale>  0 0.73131459E+03</rscale>
<asrwt>0</asrwt>
<pdfrwt beam="1">  1        1 0.48830322E+00 0.82198674E+03</pdfrwt>
<pdfrwt beam="2">  1       -1 0.12617424E+00 0.82198674E+03</pdfrwt>
<totfact> 0.26033128E-01</totfact>
</mgrwt>
</event>
<event>
 4    5  0.7176259E-008  0.1378869E+04  0.7818608E-02  0.9000278E-01
          1   -1    0    0  501    0  0.00000000000E+00  0.00000000000E+00  0.21071774378E+04  0.21071774378E+04  0.50400000000E-02 0. -1.
         -1   -1    0    0    0  501 -0.00000000000E+00 -0.00000000000E+00 -0.81900697870E+03  0.81900697872E+03  0.50400000000E-02 0.  1.
    8880023    1    1    2    0    0 -0.10029978459E+04 -0.67931236205E+03  0.89317054997E+03  0.16428736414E+04  0.65864270000E+03 0.  0.
    8880022    1    1    2    0    0  0.10029978459E+04  0.67931236205E+03  0.39499990911E+03  0.12833107751E+04  0.15294330000E+03 0.  0.
<mgrwt>
<rscale>  0 0.13375868E+04</rscale>
<asrwt>0</asrwt>
<pdfrwt beam="1">  1        1 0.32418115E+00 0.13788692E+04</pdfrwt>
<pdfrwt beam="2">  1       -1 0.12600107E+00 0.13788692E+04</pdfrwt>
<totfact> 0.13336770E+00</totfact>
</mgrwt>
</event>
<event>
 4    5  0.7176259E-008  0.9215444E+03  0.7818608E-02  0.9492295E-01
          1   -1    0    0  501    0  0.00000000000E+00  0.00000000000E+00  0.95026120023E+03  0.95026120024E+03  0.50400000000E-02 0. -1.
         -1   -1    0    0    0  501 -0.00000000000E+00 -0.00000000000E+00 -0.10987300767E+04  0.10987300767E+04  0.50400000000E-02 0.  1.
    8880023    1    1    2    0    0  0.56066997867E+03  0.31793570892E+03  0.56057128879E+03  0.10786493017E+04  0.65864270000E+03 0.  0.
    8880022    1    1    2    0    0 -0.56066997867E+03 -0.31793570892E+03 -0.70904016529E+03  0.97034197528E+03  0.15294330000E+03 0.  1.
<mgrwt>
<rscale>  0 0.84854271E+03</rscale>
<asrwt>0</asrwt>
<pdfrwt beam="1">  1        1 0.14619403E+00 0.92154444E+03</pdfrwt>
<pdfrwt beam="2">  1       -1 0.16903540E+00 0.92154444E+03</pdfrwt>
<totfact> 0.41956368E+00</totfact>
</mgrwt>
</event>
<event>
 4    5  0.7176259E-008  0.7073451E+03  0.7818608E-02  0.9967995E-01
         -1   -1    0    0    0  501 -0.00000000000E+00  0.00000000000E+00  0.18858172288E+04  0.18858172288E+04  0.50400000000E-02 0.  1.
          1   -1    0    0  501    0  0.00000000000E+00 -0.00000000000E+00 -0.69611168316E+03  0.69611168318E+03  0.50400000000E-02 0. -1.
    8880023    1    1    2    0    0  0.25314959257E+03 -0.49418893444E+02 -0.49974504061E+03  0.86607289250E+03  0.65864270000E+03 0. -1.
    8880022    1    1    2    0    0 -0.25314959257E+03  0.49418893444E+02  0.16894505862E+04  0.17158560195E+04  0.15294330000E+03 0.  0.
<mgrwt>
<rscale>  0 0.57076157E+03</rscale>
<asrwt>0</asrwt>
<pdfrwt beam="1">  1        1 0.10709411E+00 0.70734514E+03</pdfrwt>
<pdfrwt beam="2">  1       -1 0.29012572E+00 0.70734514E+03</pdfrwt>
<totfact> 0.11181090E+00</totfact>
</mgrwt>
</event>
<event>
 4    5  0.7176259E-008  0.6960536E+03  0.7818608E-02  0.1001398E+00
          1   -1    0    0  501    0  0.00000000000E+00  0.00000000000E+00  0.15431828422E+04  0.15431828422E+04  0.50400000000E-02 0. -1.
         -1   -1    0    0    0  501 -0.00000000000E+00 -0.00000000000E+00 -0.19212016295E+03  0.19212016301E+03  0.50400000000E-02 0.  1.
    8880023    1    1    2    0    0 -0.21427442444E+03  0.69042441197E+02  0.12751453516E+04  0.14527512731E+04  0.65864270000E+03 0.  0.
    8880022    1    1    2    0    0  0.21427442444E+03 -0.69042441197E+02  0.75917327676E+02  0.28255173210E+03  0.15294330000E+03 0.  0.
<mgrwt>
<rscale>  0 0.55041314E+03</rscale>
<asrwt>0</asrwt>
<pdfrwt beam="1">  1        1 0.23741274E+00 0.69605359E+03</pdfrwt>
<pdfrwt beam="2">  1       -1 0.29556948E-01 0.69605359E+03</pdfrwt>
<totfact> 0.66007262E+01</totfact>
</mgrwt>
</event>
<event>
 4    5  0.7176259E-008  0.6788079E+03  0.7818608E-02  0.1010006E+00
         -1   -1    0    0    0  501 -0.00000000000E+00  0.00000000000E+00  0.51310236141E+03  0.51310236144E+03  0.50400000000E-02 0.  1.
          1   -1    0    0  501    0  0.00000000000E+00 -0.00000000000E+00 -0.11167665209E+04  0.11167665209E+04  0.50400000000E-02 0. -1.
    8880023    1    1    2    0    0 -0.10509481043E+03 -0.12619442507E+03 -0.97974377559E+03  0.11919219875E+04  0.65864270000E+03 0. -1.
    8880022    1    1    2    0    0  0.10509481043E+03  0.12619442507E+03  0.37607961610E+03  0.43794689490E+03  0.15294330000E+03 0.  0.
<mgrwt>
<rscale>  0 0.51472186E+03</rscale>
<asrwt>0</asrwt>
<pdfrwt beam="1">  1        1 0.17181023E+00 0.67880790E+03</pdfrwt>
<pdfrwt beam="2">  1       -1 0.78938825E-01 0.67880790E+03</pdfrwt>
<totfact> 0.20550941E+01</totfact>
</mgrwt>
</event>
<event>
 4    5  0.7176259E-008  0.1460966E+04  0.7818608E-02  0.8937702E-01
         -1   -1    0    0    0  501 -0.00000000000E+00  0.00000000000E+00  0.16063085481E+04  0.16063085481E+04  0.50400000000E-02 0.  1.
          1   -1    0    0  501    0  0.00000000000E+00 -0.00000000000E+00 -0.19052747480E+04  0.19052747480E+04  0.50400000000E-02 0. -1.
    8880023    1    1    2    0    0  0.12915988214E+04 -0.17995917299E+03 -0.12235923616E+04  0.19056760724E+04  0.65864270000E+03 0.  0.
    8880022    1    1    2    0    0 -0.12915988214E+04  0.17995917299E+03  0.92462616160E+03  0.16059072237E+04  0.15294330000E+03 0.  0.
<mgrwt>
<rscale>  0 0.14224843E+04</rscale>
<asrwt>0</asrwt>
<pdfrwt beam="1">  1        1 0.29311919E+00 0.14609665E+04</pdfrwt>
<pdfrwt beam="2">  1       -1 0.24712439E+00 0.14609665E+04</pdfrwt>
<totfact> 0.23854852E-01</totfact>
</mgrwt>
</event>
<event>
 4    5  0.7176259E-008  0.1422424E+04  0.7818608E-02  0.8966452E-01
          1   -1    0    0  501    0  0.00000000000E+00  0.00000000000E+00  0.24399149113E+04  0.24399149113E+04  0.50400000000E-02 0. -1.
         -1   -1    0    0    0  501 -0.00000000000E+00 -0.00000000000E+00 -0.19364920145E+04  0.19364920145E+04  0.50400000000E-02 0.  1.
    8880023    1    1    2    0    0  0.12457005286E+04  0.19419254941E+03  0.19741607437E+04  0.24332285962E+04  0.65864270000E+03 0. -1.
    8880022    1    1    2    0    0 -0.12457005286E+04 -0.19419254941E+03 -0.14707378469E+04  0.19431783296E+04  0.15294330000E+03 0.  0.
<mgrwt>
<rscale>  0 0.13826806E+04</rscale>
<asrwt>0</asrwt>
<pdfrwt beam="1">  1        1 0.37537152E+00 0.14224243E+04</pdfrwt>
<pdfrwt beam="2">  1       -1 0.29792185E+00 0.14224243E+04</pdfrwt>
<totfact> 0.48456214E-02</totfact>
</mgrwt>
</event>
<event>
 4    5  0.7176259E-008  0.1058504E+04  0.7818608E-02  0.9308728E-01
          1   -1    0    0  501    0  0.00000000000E+00  0.00000000000E+00  0.19867422886E+04  0.19867422886E+04  0.50400000000E-02 0. -1.
         -1   -1    0    0    0  501 -0.00000000000E+00 -0.00000000000E+00 -0.74733964844E+03  0.74733964845E+03  0.50400000000E-02 0.  1.
    8880023    1    1    2    0    0 -0.44246155027E+03  0.70060578399E+03  0.15144561056E+04  0.18477034909E+04  0.65864270000E+03 0. -1.
    8880022    1    1    2    0    0  0.44246155027E+03 -0.70060578399E+03 -0.27505346545E+03  0.88637844621E+03  0.15294330000E+03 0.  0.
<mgrwt>
<rscale>  0 0.99983340E+03</rscale>
<asrwt>0</asrwt>
<pdfrwt beam="1">  1        1 0.30565266E+00 0.10585041E+04</pdfrwt>
<pdfrwt beam="2">  1       -1 0.11497533E+00 0.10585041E+04</pdfrwt>
<totfact> 0.20948028E+00</totfact>
</mgrwt>
</event>
<event>
 4    5  0.7719220E-008  0.1496898E+04  0.7818608E-02  0.8911829E-01
         -1   -1    0    0    0  501 -0.00000000000E+00  0.00000000000E+00  0.32080095958E+04  0.32080095958E+04  0.50400000000E-02 0.  1.
          1   -1    0    0  501    0  0.00000000000E+00 -0.00000000000E+00 -0.20686685765E+04  0.20686685765E+04  0.50400000000E-02 0. -1.
    8880023    1    1    2    0    0 -0.30791783478E+03 -0.13084650194E+04 -0.16186707266E+04  0.22047220295E+04  0.65864270000E+03 0.  0.
    8880022    1    1    2    0    0  0.30791783478E+03  0.13084650194E+04  0.27580117459E+04  0.30719561429E+04  0.15294330000E+03 0.  0.
<mgrwt>
<rscale>  0 0.14595167E+04</rscale>
<asrwt>0</asrwt>
<pdfrwt beam="1">  1        1 0.31825671E+00 0.14968982E+04</pdfrwt>
<pdfrwt beam="2">  1       -1 0.49353993E+00 0.14968982E+04</pdfrwt>
<totfact> 0.41199113E-03</totfact>
</mgrwt>
</event>
<event>
 4    5  0.7176259E-008  0.1287548E+04  0.7818608E-02  0.9076388E-01
          1   -1    0    0  501    0  0.00000000000E+00  0.00000000000E+00  0.29380373970E+04  0.29380373970E+04  0.50400000000E-02 0. -1.
         -1   -1    0    0    0  501 -0.00000000000E+00 -0.00000000000E+00 -0.12912481639E+04  0.12912481640E+04  0.50400000000E-02 0.  1.
    8880023    1    1    2    0    0  0.88545068999E+03  0.66328513036E+03  0.25078387578E+04  0.28190486923E+04  0.65864270000E+03 0. -1.
    8880022    1    1    2    0    0 -0.88545068999E+03 -0.66328513036E+03 -0.86104952471E+03  0.14102368686E+04  0.15294330000E+03 0.  0.
<mgrwt>
<rscale>  0 0.12425723E+04</rscale>
<asrwt>0</asrwt>
<pdfrwt beam="1">  1        1 0.45200576E+00 0.12875482E+04</pdfrwt>
<pdfrwt beam="2">  1       -1 0.19865356E+00 0.12875482E+04</pdfrwt>
<totfact> 0.99589737E-02</totfact>
</mgrwt>
</event>
<event>
 4    5  0.7176259E-008  0.1053324E+04  0.7818608E-02  0.9314896E-01
         -1   -1    0    0    0  501 -0.00000000000E+00  0.00000000000E+00  0.52386927296E+03  0.52386927298E+03  0.50400000000E-02 0.  1.
          1   -1    0    0  501    0  0.00000000000E+00 -0.00000000000E+00 -0.22358620281E+04  0.22358620281E+04  0.50400000000E-02 0. -1.
    8880023    1    1    2    0    0 -0.82138879629E+03  0.31653143983E+02 -0.16008058192E+04  0.19162648442E+04  0.65864270000E+03 0.  0.
    8880022    1    1    2    0    0  0.82138879629E+03 -0.31653143983E+02 -0.11118693601E+03  0.84346645692E+03  0.15294330000E+03 0.  0.
<mgrwt>
<rscale>  0 0.99422996E+03</rscale>
<asrwt>0</asrwt>
<pdfrwt beam="1">  1        1 0.34397877E+00 0.10533241E+04</pdfrwt>
<pdfrwt beam="2">  1       -1 0.80595274E-01 0.10533241E+04</pdfrwt>
<totfact> 0.31847962E+00</totfact>
</mgrwt>
</event>
<event>
 4    5  0.7176259E-008  0.1013764E+04  0.7818608E-02  0.9363767E-01
         -1   -1    0    0    0  501 -0.00000000000E+00  0.00000000000E+00  0.93876986313E+03  0.93876986314E+03  0.50400000000E-02 0.  1.
          1   -1    0    0  501    0  0.00000000000E+00 -0.00000000000E+00 -0.16628839672E+04  0.16628839672E+04  0.50400000000E-02 0. -1.
    8880023    1    1    2    0    0  0.42867787860E+03  0.64042444183E+03 -0.12846779243E+04  0.16364949632E+04  0.65864270000E+03 0.  0.
    8880022    1    1    2    0    0 -0.42867787860E+03 -0.64042444183E+03  0.56056382018E+03  0.96515886714E+03  0.15294330000E+03 0.  0.
<mgrwt>
<rscale>  0 0.95118462E+03</rscale>
<asrwt>0</asrwt>
<pdfrwt beam="1">  1        1 0.25582830E+00 0.10137645E+04</pdfrwt>
<pdfrwt beam="2">  1       -1 0.14442613E+00 0.10137645E+04</pdfrwt>
<totfact> 0.19609024E+00</totfact>
</mgrwt>
</event>
<event>
 4    5  0.7176259E-008  0.6759604E+03  0.7818608E-02  0.1011708E+00
         -1   -1    0    0    0  501 -0.00000000000E+00  0.00000000000E+00  0.32667429402E+03  0.32667429406E+03  0.50400000000E-02 0.  1.
          1   -1    0    0  501    0  0.00000000000E+00 -0.00000000000E+00 -0.12834850655E+04  0.12834850655E+04  0.50400000000E-02 0. -1.
    8880023    1    1    2    0    0  0.14901152072E+03 -0.30129652243E+02 -0.11412380295E+04  0.13264036623E+04  0.65864270000E+03 0. -1.
    8880022    1    1    2    0    0 -0.14901152072E+03  0.30129652243E+02  0.18442725796E+03  0.28375569729E+03  0.15294330000E+03 0.  0.
<mgrwt>
<rscale>  0 0.50801564E+03</rscale>
<asrwt>0</asrwt>
<pdfrwt beam="1">  1        1 0.19745924E+00 0.67596038E+03</pdfrwt>
<pdfrwt beam="2">  1       -1 0.50257584E-01 0.67596038E+03</pdfrwt>
<totfact> 0.38318676E+01</totfact>
</mgrwt>
</event>
<event>
 4    5  0.7176259E-008  0.1421897E+04  0.7818608E-02  0.8966852E-01
         -1   -1    0    0    0  501 -0.00000000000E+00  0.00000000000E+00  0.83065355387E+03  0.83065355388E+03  0.50400000000E-02 0.  1.
          1   -1    0    0  501    0  0.00000000000E+00 -0.00000000000E+00 -0.39901989480E+04  0.39901989481E+04  0.50400000000E-02 0. -1.
    8880023    1    1    2    0    0 -0.64225576851E+03 -0.10841993835E+04 -0.32508109906E+04  0.35481774305E+04  0.65864270000E+03 0.  0.
    8880022    1    1    2    0    0  0.64225576851E+03  0.10841993835E+04  0.91265596452E+02  0.12726750714E+04  0.15294330000E+03 0.  0.
<mgrwt>
<rscale>  0 0.13821354E+04</rscale>
<asrwt>0</asrwt>
<pdfrwt beam="1">  1        1 0.61387675E+00 0.14218970E+04</pdfrwt>
<pdfrwt beam="2">  1       -1 0.12779286E+00 0.14218970E+04</pdfrwt>
<totfact> 0.50597041E-02</totfact>
</mgrwt>
</event>
<event>
 4    5  0.7176259E-008  0.1080575E+04  0.7818608E-02  0.9282998E-01
         -1   -1    0    0    0  501 -0.00000000000E+00  0.00000000000E+00  0.35385408919E+03  0.35385408923E+03  0.50400000000E-02 0.  1.
          1   -1    0    0  501    0  0.00000000000E+00 -0.00000000000E+00 -0.29204924770E+04  0.29204924770E+04  0.50400000000E-02 0. -1.
    8880023    1    1    2    0    0 -0.85194919616E+03 -0.89520441049E+02 -0.18696019618E+04  0.21594103463E+04  0.65864270000E+03 0.  0.
    8880022    1    1    2    0    0  0.85194919616E+03  0.89520441049E+02 -0.69703642608E+03  0.11149362199E+04  0.15294330000E+03 0.  0.
<mgrwt>
<rscale>  0 0.10236325E+04</rscale>
<asrwt>0</asrwt>
<pdfrwt beam="1">  1        1 0.44930652E+00 0.10805746E+04</pdfrwt>
<pdfrwt beam="2">  1       -1 0.54439093E-01 0.10805746E+04</pdfrwt>
<totfact> 0.23612953E+00</totfact>
</mgrwt>
</event>
<event>
 4    5  0.7176259E-008  0.8346022E+03  0.7818608E-02  0.9640444E-01
          1   -1    0    0  501    0  0.00000000000E+00  0.00000000000E+00  0.65923128758E+03  0.65923128760E+03  0.50400000000E-02 0. -1.
         -1   -1    0    0    0  501 -0.00000000000E+00 -0.00000000000E+00 -0.10665690773E+04  0.10665690773E+04  0.50400000000E-02 0.  1.
    8880023    1    1    2    0    0 -0.50262555112E+03 -0.10058881607E+03  0.25662403690E+03  0.87316473654E+03  0.65864270000E+03 0.  0.
    8880022    1    1    2    0    0  0.50262555112E+03  0.10058881607E+03 -0.66396182666E+03  0.85263562841E+03  0.15294330000E+03 0.  0.
<mgrwt>
<rscale>  0 0.74676227E+03</rscale>
<asrwt>0</asrwt>
<pdfrwt beam="1">  1        1 0.10142020E+00 0.83460216E+03</pdfrwt>
<pdfrwt beam="2">  1       -1 0.16408755E+00 0.83460216E+03</pdfrwt>
<totfact> 0.82886206E+00</totfact>
</mgrwt>
</event>
<event>
 4    5  0.7176259E-008  0.1191408E+04  0.7818608E-02  0.9165520E-01
          1   -1    0    0  501    0  0.00000000000E+00  0.00000000000E+00  0.16460012037E+04  0.16460012037E+04  0.50400000000E-02 0. -1.
         -1   -1    0    0    0  501 -0.00000000000E+00 -0.00000000000E+00 -0.95467324692E+03  0.95467324693E+03  0.50400000000E-02 0.  1.
    8880023    1    1    2    0    0  0.66355645490E+03 -0.73846819480E+03 -0.25747774826E+03  0.12189124007E+04  0.65864270000E+03 0.  0.
    8880022    1    1    2    0    0 -0.66355645490E+03  0.73846819480E+03  0.94880570502E+03  0.13817620499E+04  0.15294330000E+03 0.  0.
<mgrwt>
<rscale>  0 0.11416516E+04</rscale>
<asrwt>0</asrwt>
<pdfrwt beam="1">  1        1 0.25323095E+00 0.11914078E+04</pdfrwt>
<pdfrwt beam="2">  1       -1 0.14687281E+00 0.11914078E+04</pdfrwt>
<totfact> 0.18822721E+00</totfact>
</mgrwt>
</event>
<event>
 4    5  0.7176259E-008  0.1115928E+04  0.7818608E-02  0.9243526E-01
          1   -1    0    0  501    0  0.00000000000E+00  0.00000000000E+00  0.22921817221E+04  0.22921817221E+04  0.50400000000E-02 0. -1.
         -1   -1    0    0    0  501 -0.00000000000E+00 -0.00000000000E+00 -0.55689220279E+03  0.55689220282E+03  0.50400000000E-02 0.  1.
    8880023    1    1    2    0    0  0.89960039805E+03  0.46955518156E+02  0.15610403932E+04  0.19188910892E+04  0.65864270000E+03 0.  0.
    8880022    1    1    2    0    0 -0.89960039805E+03 -0.46955518156E+02  0.17424912612E+03  0.93018283570E+03  0.15294330000E+03 0.  0.
<mgrwt>
<rscale>  0 0.10615246E+04</rscale>
<asrwt>0</asrwt>
<pdfrwt beam="1">  1        1 0.35264335E+00 0.11159283E+04</pdfrwt>
<pdfrwt beam="2">  1       -1 0.85675721E-01 0.11159283E+04</pdfrwt>
<totfact> 0.25351122E+00</totfact>
</mgrwt>
</event>
<event>
 4    5  0.7176259E-008  0.1609690E+04  0.7818608E-02  0.8835828E-01
          1   -1    0    0  501    0  0.00000000000E+00  0.00000000000E+00  0.28573060392E+04  0.28573060392E+04  0.50400000000E-02 0. -1.
         -1   -1    0    0    0  501 -0.00000000000E+00 -0.00000000000E+00 -0.18593631240E+04  0.18593631240E+04  0.50400000000E-02 0.  1.
    8880023    1    1    2    0    0 -0.12317241542E+04  0.80009209438E+03  0.22596401605E+04  0.27743603970E+04  0.65864270000E+03 0.  0.
    8880022    1    1    2    0    0  0.12317241542E+04 -0.80009209438E+03 -0.12616972452E+04  0.19423087662E+04  0.15294330000E+03 0.  0.
<mgrwt>
<rscale>  0 0.15753635E+04</rscale>
<asrwt>0</asrwt>
<pdfrwt beam="1">  1        1 0.43958554E+00 0.16096900E+04</pdfrwt>
<pdfrwt beam="2">  1       -1 0.28605587E+00 0.16096900E+04</pdfrwt>
<totfact> 0.28678060E-02</totfact>
</mgrwt>
</event>
<event>
 4    5  0.7176259E-008  0.6737259E+03  0.7818608E-02  0.1013122E+00
         -1   -1    0    0    0  501 -0.00000000000E+00  0.00000000000E+00  0.10559331980E+04  0.10559331980E+04  0.50400000000E-02 0.  1.
          1   -1    0    0  501    0  0.00000000000E+00 -0.00000000000E+00 -0.76874729612E+03  0.76874729614E+03  0.50400000000E-02 0. -1.
    8880023    1    1    2    0    0 -0.22584022968E+02 -0.13995106332E+03 -0.60679383787E+03  0.90670022949E+03  0.65864270000E+03 0. -1.
    8880022    1    1    2    0    0  0.22584022968E+02  0.13995106332E+03  0.89397973970E+03  0.91798026462E+03  0.15294330000E+03 0.  0.
<mgrwt>
<rscale>  0 0.50252606E+03</rscale>
<asrwt>0</asrwt>
<pdfrwt beam="1">  1        1 0.11826882E+00 0.67372587E+03</pdfrwt>
<pdfrwt beam="2">  1       -1 0.16245126E+00 0.67372587E+03</pdfrwt>
<totfact> 0.68972271E+00</totfact>
</mgrwt>
</event>
<event>
 4    5  0.7176259E-008  0.7486691E+03  0.7818608E-02  0.9835378E-01
         -1   -1    0    0    0  501 -0.00000000000E+00  0.00000000000E+00  0.27958004503E+04  0.27958004503E+04  0.50400000000E-02 0.  1.
          1   -1    0    0  501    0  0.00000000000E+00 -0.00000000000E+00 -0.49238459200E+03  0.49238459202E+03  0.50400000000E-02 0. -1.
    8880023    1    1    2    0    0 -0.32485791509E+03  0.14547355304E+03 -0.18386330939E+03  0.77091578167E+03  0.65864270000E+03 0.  0.
    8880022    1    1    2    0    0  0.32485791509E+03 -0.14547355304E+03  0.24872791677E+04  0.25172692607E+04  0.15294330000E+03 0.  0.
<mgrwt>
<rscale>  0 0.63498033E+03</rscale>
<asrwt>0</asrwt>
<pdfrwt beam="1">  1        1 0.75751476E-01 0.74866910E+03</pdfrwt>
<pdfrwt beam="2">  1       -1 0.43012314E+00 0.74866910E+03</pdfrwt>
<totfact> 0.21636773E-01</totfact>
</mgrwt>
</event>
<event>
 4    5  0.7176259E-008  0.1038080E+04  0.7818608E-02  0.9333350E-01
          1   -1    0    0  501    0  0.00000000000E+00  0.00000000000E+00  0.32382339104E+04  0.32382339104E+04  0.50400000000E-02 0. -1.
         -1   -1    0    0    0  501 -0.00000000000E+00 -0.00000000000E+00 -0.29836101257E+03  0.29836101261E+03  0.50400000000E-02 0.  1.
    8880023    1    1    2    0    0  0.52693758699E+03 -0.60509166245E+03  0.10440466787E+04  0.14722916879E+04  0.65864270000E+03 0.  0.
    8880022    1    1    2    0    0 -0.52693758699E+03  0.60509166245E+03  0.18958262191E+04  0.20643032352E+04  0.15294330000E+03 0.  0.
<mgrwt>
<rscale>  0 0.97769695E+03</rscale>
<asrwt>0</asrwt>
<pdfrwt beam="1">  1        1 0.49818980E+00 0.10380796E+04</pdfrwt>
<pdfrwt beam="2">  1       -1 0.45901697E-01 0.10380796E+04</pdfrwt>
<totfact> 0.19275164E+00</totfact>
</mgrwt>
</event>
<event>
 4    5  0.7176259E-008  0.1479376E+04  0.7818608E-02  0.8924338E-01
         -1   -1    0    0    0  501 -0.00000000000E+00  0.00000000000E+00  0.10732210030E+04  0.10732210030E+04  0.50400000000E-02 0.  1.
          1   -1    0    0  501    0  0.00000000000E+00 -0.00000000000E+00 -0.26878306562E+04  0.26878306562E+04  0.50400000000E-02 0. -1.
    8880023    1    1    2    0    0  0.58222418296E+03 -0.11898558994E+04 -0.18893013986E+04  0.23995858063E+04  0.65864270000E+03 0.  0.
    8880022    1    1    2    0    0 -0.58222418296E+03  0.11898558994E+04  0.27469174536E+03  0.13614658529E+04  0.15294330000E+03 0.  0.
<mgrwt>
<rscale>  0 0.14414660E+04</rscale>
<asrwt>0</asrwt>
<pdfrwt beam="1">  1        1 0.41351241E+00 0.14793756E+04</pdfrwt>
<pdfrwt beam="2">  1       -1 0.16511092E+00 0.14793756E+04</pdfrwt>
<totfact> 0.25469977E-01</totfact>
</mgrwt>
</event>
<event>
 4    5  0.7176259E-008  0.8311144E+03  0.7818608E-02  0.9647168E-01
         -1   -1    0    0    0  501 -0.00000000000E+00  0.00000000000E+00  0.33335979712E+03  0.33335979716E+03  0.50400000000E-02 0.  1.
          1   -1    0    0  501    0  0.00000000000E+00 -0.00000000000E+00 -0.19925643793E+04  0.19925643793E+04  0.50400000000E-02 0. -1.
    8880023    1    1    2    0    0  0.48440804155E+03 -0.14929765722E+03 -0.15871351675E+04  0.17915772903E+04  0.65864270000E+03 0.  0.
    8880022    1    1    2    0    0 -0.48440804155E+03  0.14929765722E+03 -0.72069414709E+02  0.53434688613E+03  0.15294330000E+03 0.  0.
<mgrwt>
<rscale>  0 0.74251427E+03</rscale>
<asrwt>0</asrwt>
<pdfrwt beam="1">  1        1 0.30654836E+00 0.83111440E+03</pdfrwt>
<pdfrwt beam="2">  1       -1 0.51286124E-01 0.83111440E+03</pdfrwt>
<totfact> 0.11900652E+01</totfact>
</mgrwt>
</event>
<event>
 4    5  0.7176259E-008  0.1016322E+04  0.7818608E-02  0.9360508E-01
         -1   -1    0    0    0  501 -0.00000000000E+00  0.00000000000E+00  0.10632439259E+04  0.10632439259E+04  0.50400000000E-02 0.  1.
          1   -1    0    0  501    0  0.00000000000E+00 -0.00000000000E+00 -0.78832164363E+03  0.78832164365E+03  0.50400000000E-02 0. -1.
    8880023    1    1    2    0    0  0.56478299096E+03 -0.52926426350E+03  0.30776907423E+03  0.10619004176E+04  0.65864270000E+03 0.  0.
    8880022    1    1    2    0    0 -0.56478299096E+03  0.52926426350E+03 -0.32846791978E+02  0.78966515199E+03  0.15294330000E+03 0.  0.
<mgrwt>
<rscale>  0 0.95398221E+03</rscale>
<asrwt>0</asrwt>
<pdfrwt beam="1">  1        1 0.12128025E+00 0.10163221E+04</pdfrwt>
<pdfrwt beam="2">  1       -1 0.16357599E+00 0.10163221E+04</pdfrwt>
<totfact> 0.62225285E+00</totfact>
</mgrwt>
</event>
<event>
 4    5  0.7176259E-008  0.7947438E+03  0.7818608E-02  0.9722278E-01
         -1   -1    0    0    0  501 -0.00000000000E+00  0.00000000000E+00  0.73531104481E+03  0.73531104483E+03  0.50400000000E-02 0.  1.
          1   -1    0    0  501    0  0.00000000000E+00 -0.00000000000E+00 -0.62685361429E+03  0.62685361431E+03  0.50400000000E-02 0. -1.
    8880023    1    1    2    0    0  0.44106969355E+03  0.57141026103E+02  0.30657063298E+03  0.85182353261E+03  0.65864270000E+03 0.  1.
    8880022    1    1    2    0    0 -0.44106969355E+03 -0.57141026103E+02 -0.19811320246E+03  0.51034112654E+03  0.15294330000E+03 0.  0.
<mgrwt>
<rscale>  0 0.69705706E+03</rscale>
<asrwt>0</asrwt>
<pdfrwt beam="1">  1        1 0.96439018E-01 0.79474384E+03</pdfrwt>
<pdfrwt beam="2">  1       -1 0.11312478E+00 0.79474384E+03</pdfrwt>
<totfact> 0.23422261E+01</totfact>
</mgrwt>
</event>
<event>
 4    5  0.7676891E-008  0.1225718E+04  0.7818608E-02  0.9132520E-01
          1   -1    0    0  501    0  0.00000000000E+00  0.00000000000E+00  0.19248356372E+04  0.19248356372E+04  0.50400000000E-02 0. -1.
         -1   -1    0    0    0  501 -0.00000000000E+00 -0.00000000000E+00 -0.14008452092E+04  0.14008452092E+04  0.50400000000E-02 0.  1.
    8880023    1    1    2    0    0  0.96062275240E+03 -0.38180807754E+03  0.14714837641E+04  0.19151104811E+04  0.65864270000E+03 0. -1.
    8880022    1    1    2    0    0 -0.96062275240E+03  0.38180807754E+03 -0.94749333612E+03  0.14105703653E+04  0.15294330000E+03 0.  0.
<mgrwt>
<rscale>  0 0.11777929E+04</rscale>
<asrwt>0</asrwt>
<pdfrwt beam="1">  1        1 0.29612856E+00 0.12257176E+04</pdfrwt>
<pdfrwt beam="2">  1       -1 0.21551465E+00 0.12257176E+04</pdfrwt>
<totfact> 0.38657827E-01</totfact>
</mgrwt>
</event>
<event>
 4    5  0.7176259E-008  0.7101626E+03  0.7818608E-02  0.9957398E-01
         -1   -1    0    0    0  501 -0.00000000000E+00  0.00000000000E+00  0.25549620835E+03  0.25549620840E+03  0.50400000000E-02 0.  1.
          1   -1    0    0  501    0  0.00000000000E+00 -0.00000000000E+00 -0.11798941260E+04  0.11798941260E+04  0.50400000000E-02 0. -1.
    8880023    1    1    2    0    0  0.12145940708E+03  0.23615304464E+03 -0.87182931789E+03  0.11244630780E+04  0.65864270000E+03 0. -1.
    8880022    1    1    2    0    0 -0.12145940708E+03 -0.23615304464E+03 -0.52568599743E+02  0.31092725637E+03  0.15294330000E+03 0.  0.
<mgrwt>
<rscale>  0 0.57558390E+03</rscale>
<asrwt>0</asrwt>
<pdfrwt beam="1">  1        1 0.18152217E+00 0.71016255E+03</pdfrwt>
<pdfrwt beam="2">  1       -1 0.39307110E-01 0.71016255E+03</pdfrwt>
<totfact> 0.71376727E+01</totfact>
</mgrwt>
</event>
<event>
 4    5  0.8703275E-008  0.7093784E+03  0.7818608E-02  0.9960316E-01
          1   -1    0    0  501    0  0.00000000000E+00  0.00000000000E+00  0.31298040456E+04  0.31298040456E+04  0.50400000000E-02 0. -1.
         -1   -1    0    0    0  501 -0.00000000000E+00 -0.00000000000E+00 -0.74249650746E+03  0.74249650748E+03  0.50400000000E-02 0.  1.
    8880023    1    1    2    0    0 -0.19901767232E+03  0.17262536833E+03  0.30561251918E+04  0.31373745307E+04  0.65864270000E+03 0. -1.
    8880022    1    1    2    0    0  0.19901767232E+03 -0.17262536833E+03 -0.66881765359E+03  0.73492602244E+03  0.15294330000E+03 0.  0.
<mgrwt>
<rscale>  0 0.57425068E+03</rscale>
<asrwt>0</asrwt>
<pdfrwt beam="1">  1        1 0.48150832E+00 0.70937843E+03</pdfrwt>
<pdfrwt beam="2">  1       -1 0.11423023E+00 0.70937843E+03</pdfrwt>
<totfact> 0.36758942E-01</totfact>
</mgrwt>
</event>
<event>
 4    5  0.7176259E-008  0.1363396E+04  0.7818608E-02  0.9012660E-01
          1   -1    0    0  501    0  0.00000000000E+00  0.00000000000E+00  0.15075366733E+04  0.15075366733E+04  0.50400000000E-02 0. -1.
         -1   -1    0    0    0  501 -0.00000000000E+00 -0.00000000000E+00 -0.23942562904E+04  0.23942562904E+04  0.50400000000E-02 0.  1.
    8880023    1    1    2    0    0 -0.10552415098E+04  0.55812565310E+03  0.98117860158E+03  0.16797501431E+04  0.65864270000E+03 0.  0.
    8880022    1    1    2    0    0  0.10552415098E+04 -0.55812565310E+03 -0.18678982187E+04  0.22220428207E+04  0.15294330000E+03 0.  0.
<mgrwt>
<rscale>  0 0.13215353E+04</rscale>
<asrwt>0</asrwt>
<pdfrwt beam="1">  1        1 0.23192872E+00 0.13633962E+04</pdfrwt>
<pdfrwt beam="2">  1       -1 0.36834712E+00 0.13633962E+04</pdfrwt>
<totfact> 0.73082816E-02</totfact>
</mgrwt>
</event>
<event>
 4    5  0.7176259E-008  0.1240777E+04  0.7818608E-02  0.9118468E-01
         -1   -1    0    0    0  501 -0.00000000000E+00  0.00000000000E+00  0.81359313323E+03  0.81359313324E+03  0.50400000000E-02 0.  1.
          1   -1    0    0  501    0  0.00000000000E+00 -0.00000000000E+00 -0.22957763926E+04  0.22957763926E+04  0.50400000000E-02 0. -1.
    8880023    1    1    2    0    0  0.36076594135E+02  0.10509120914E+04 -0.16170718153E+04  0.20382466010E+04  0.65864270000E+03 0.  0.
    8880022    1    1    2    0    0 -0.36076594135E+02 -0.10509120914E+04  0.13488855593E+03  0.10711229248E+04  0.15294330000E+03 0.  0.
<mgrwt>
<rscale>  0 0.11936097E+04</rscale>
<asrwt>0</asrwt>
<pdfrwt beam="1">  1        1 0.35319637E+00 0.12407772E+04</pdfrwt>
<pdfrwt beam="2">  1       -1 0.12516818E+00 0.12407772E+04</pdfrwt>
<totfact> 0.10253943E+00</totfact>
</mgrwt>
</event>
<event>
 4    5  0.7176259E-008  0.7697091E+03  0.7818608E-02  0.9780590E-01
         -1   -1    0    0    0  501 -0.00000000000E+00  0.00000000000E+00  0.78902139484E+03  0.78902139486E+03  0.50400000000E-02 0.  1.
          1   -1    0    0  501    0  0.00000000000E+00 -0.00000000000E+00 -0.14686226191E+04  0.14686226191E+04  0.50400000000E-02 0. -1.
    8880023    1    1    2    0    0  0.44417414662E+02  0.39581432272E+03 -0.12963876099E+04  0.15076713588E+04  0.65864270000E+03 0. -1.
    8880022    1    1    2    0    0 -0.44417414662E+02 -0.39581432272E+03  0.61678638571E+03  0.74997265510E+03  0.15294330000E+03 0.  0.
<mgrwt>
<rscale>  0 0.66414650E+03</rscale>
<asrwt>0</asrwt>
<pdfrwt beam="1">  1        1 0.22594194E+00 0.76970910E+03</pdfrwt>
<pdfrwt beam="2">  1       -1 0.12138791E+00 0.76970910E+03</pdfrwt>
<totfact> 0.43004994E+00</totfact>
</mgrwt>
</event>
<event>
 4    5  0.7176259E-008  0.1697083E+04  0.7818608E-02  0.8781710E-01
          1   -1    0    0  501    0  0.00000000000E+00  0.00000000000E+00  0.14928512832E+04  0.14928512832E+04  0.50400000000E-02 0. -1.
         -1   -1    0    0    0  501 -0.00000000000E+00 -0.00000000000E+00 -0.30870568962E+04  0.30870568962E+04  0.50400000000E-02 0.  1.
    8880023    1    1    2    0    0  0.18110880397E+02 -0.15639540048E+04  0.66934178732E+03  0.18243104911E+04  0.65864270000E+03 0.  0.
    8880022    1    1    2    0    0 -0.18110880397E+02  0.15639540048E+04 -0.22635474004E+04  0.27555976883E+04  0.15294330000E+03 0.  0.
<mgrwt>
<rscale>  0 0.16647813E+04</rscale>
<asrwt>0</asrwt>
<pdfrwt beam="1">  1        1 0.22966943E+00 0.16970829E+04</pdfrwt>
<pdfrwt beam="2">  1       -1 0.47493183E+00 0.16970829E+04</pdfrwt>
<totfact> 0.13285461E-02</totfact>
</mgrwt>
</event>
<event>
 4    5  0.7176259E-008  0.1438642E+04  0.7818608E-02  0.8954224E-01
         -1   -1    0    0    0  501 -0.00000000000E+00  0.00000000000E+00  0.97207374285E+03  0.97207374286E+03  0.50400000000E-02 0.  1.
          1   -1    0    0  501    0  0.00000000000E+00 -0.00000000000E+00 -0.34306047120E+04  0.34306047120E+04  0.50400000000E-02 0. -1.
    8880023    1    1    2    0    0  0.18700860392E+03 -0.12652699861E+04  0.19617980027E+03  0.14519562927E+04  0.65864270000E+03 0.  1.
    8880022    1    1    2    0    0 -0.18700860392E+03  0.12652699861E+04 -0.26547107694E+04  0.29507221621E+04  0.15294330000E+03 0.  0.
<mgrwt>
<rscale>  0 0.13994398E+04</rscale>
<asrwt>0</asrwt>
<pdfrwt beam="1">  1        1 0.52778533E+00 0.14386419E+04</pdfrwt>
<pdfrwt beam="2">  1       -1 0.14954981E+00 0.14386419E+04</pdfrwt>
<totfact> 0.96003368E-02</totfact>
</mgrwt>
</event>
<event>
 4    5  0.7176259E-008  0.9238187E+03  0.7818608E-02  0.9488828E-01
          1   -1    0    0  501    0  0.00000000000E+00  0.00000000000E+00  0.14164736261E+04  0.14164736262E+04  0.50400000000E-02 0. -1.
         -1   -1    0    0    0  501 -0.00000000000E+00 -0.00000000000E+00 -0.10754300045E+04  0.10754300046E+04  0.50400000000E-02 0.  1.
    8880023    1    1    2    0    0  0.64637817429E+03 -0.42731560784E+02  0.11300757941E+04  0.14596274309E+04  0.65864270000E+03 0.  0.
    8880022    1    1    2    0    0 -0.64637817429E+03  0.42731560784E+02 -0.78903217246E+03  0.10322761998E+04  0.15294330000E+03 0.  0.
<mgrwt>
<rscale>  0 0.85112483E+03</rscale>
<asrwt>0</asrwt>
<pdfrwt beam="1">  1        1 0.21791902E+00 0.92381867E+03</pdfrwt>
<pdfrwt beam="2">  1       -1 0.16545077E+00 0.92381867E+03</pdfrwt>
<totfact> 0.20215427E+00</totfact>
</mgrwt>
</event>
<event>
 4    5  0.7176259E-008  0.6962608E+03  0.7818608E-02  0.1001308E+00
         -1   -1    0    0    0  501 -0.00000000000E+00  0.00000000000E+00  0.24465586591E+03  0.24465586596E+03  0.50400000000E-02 0.  1.
          1   -1    0    0  501    0  0.00000000000E+00 -0.00000000000E+00 -0.23692182780E+04  0.23692182780E+04  0.50400000000E-02 0. -1.
    8880023    1    1    2    0    0 -0.28277226040E+02  0.22398499244E+03 -0.22187059437E+04  0.23253892468E+04  0.65864270000E+03 0. -1.
    8880022    1    1    2    0    0  0.28277226040E+02 -0.22398499244E+03  0.94143531576E+02  0.28848489719E+03  0.15294330000E+03 0.  0.
<mgrwt>
<rscale>  0 0.55080359E+03</rscale>
<asrwt>0</asrwt>
<pdfrwt beam="1">  1        1 0.36449510E+00 0.69626079E+03</pdfrwt>
<pdfrwt beam="2">  1       -1 0.37639366E-01 0.69626079E+03</pdfrwt>
<totfact> 0.12026939E+01</totfact>
</mgrwt>
</event>
<event>
 4    5  0.7176259E-008  0.7058196E+03  0.7818608E-02  0.9973865E-01
          1   -1    0    0  501    0  0.00000000000E+00  0.00000000000E+00  0.25978805576E+04  0.25978805576E+04  0.50400000000E-02 0. -1.
         -1   -1    0    0    0  501 -0.00000000000E+00 -0.00000000000E+00 -0.18151647596E+03  0.18151647603E+03  0.50400000000E-02 0.  1.
    8880023    1    1    2    0    0 -0.25333528278E+03  0.13869882339E+02  0.23781663104E+04  0.24806967459E+04  0.65864270000E+03 0. -1.
    8880022    1    1    2    0    0  0.25333528278E+03 -0.13869882339E+02  0.38197771277E+02  0.29870028772E+03  0.15294330000E+03 0.  0.
<mgrwt>
<rscale>  0 0.56811218E+03</rscale>
<asrwt>0</asrwt>
<pdfrwt beam="1">  1        1 0.39967394E+00 0.70581963E+03</pdfrwt>
<pdfrwt beam="2">  1       -1 0.27925611E-01 0.70581963E+03</pdfrwt>
<totfact> 0.14189585E+01</totfact>
</mgrwt>
</event>
<event>
 4    5  0.7176259E-008  0.6860662E+03  0.7818608E-02  0.1006081E+00
          1   -1    0    0  501    0  0.00000000000E+00  0.00000000000E+00  0.31168199396E+04  0.31168199396E+04  0.50400000000E-02 0. -1.
         -1   -1    0    0    0  501 -0.00000000000E+00 -0.00000000000E+00 -0.25977200878E+03  0.25977200883E+03  0.50400000000E-02 0.  1.
    8880023    1    1    2    0    0 -0.18486118380E+03 -0.51990689562E+02  0.30100995266E+04  0.30872942936E+04  0.65864270000E+03 0. -1.
    8880022    1    1    2    0    0  0.18486118380E+03  0.51990689562E+02 -0.15305159581E+03  0.28929765480E+03  0.15294330000E+03 0.  0.
<mgrwt>
<rscale>  0 0.53062254E+03</rscale>
<asrwt>0</asrwt>
<pdfrwt beam="1">  1        1 0.47951077E+00 0.68606625E+03</pdfrwt>
<pdfrwt beam="2">  1       -1 0.39964924E-01 0.68606625E+03</pdfrwt>
<totfact> 0.32546921E+00</totfact>
</mgrwt>
</event>
<event>
 4    5  0.7176259E-008  0.1145356E+04  0.7818608E-02  0.9212162E-01
          1   -1    0    0  501    0  0.00000000000E+00  0.00000000000E+00  0.17280343277E+04  0.17280343277E+04  0.50400000000E-02 0. -1.
         -1   -1    0    0    0  501 -0.00000000000E+00 -0.00000000000E+00 -0.82872474648E+03  0.82872474650E+03  0.50400000000E-02 0.  1.
    8880023    1    1    2    0    0  0.12196600698E+03 -0.92906143105E+03 -0.13438266009E+03  0.11532127970E+04  0.65864270000E+03 0. -1.
    8880022    1    1    2    0    0 -0.12196600698E+03  0.92906143105E+03  0.10336922413E+04  0.14035462772E+04  0.15294330000E+03 0.  0.
<mgrwt>
<rscale>  0 0.10928776E+04</rscale>
<asrwt>0</asrwt>
<pdfrwt beam="1">  1        1 0.26585143E+00 0.11453563E+04</pdfrwt>
<pdfrwt beam="2">  1       -1 0.12749612E+00 0.11453563E+04</pdfrwt>
<totfact> 0.24026168E+00</totfact>
</mgrwt>
</event>
<event>
 4    5  0.7176259E-008  0.1043466E+04  0.7818608E-02  0.9326777E-01
         -1   -1    0    0    0  501 -0.00000000000E+00  0.00000000000E+00  0.13469251088E+04  0.13469251088E+04  0.50400000000E-02 0.  1.
          1   -1    0    0  501    0  0.00000000000E+00 -0.00000000000E+00 -0.28707833652E+04  0.28707833653E+04  0.50400000000E-02 0. -1.
    8880023    1    1    2    0    0  0.60076832068E+03  0.54230020756E+03 -0.26352856106E+04  0.28343522268E+04  0.65864270000E+03 0.  0.
    8880022    1    1    2    0    0 -0.60076832068E+03 -0.54230020756E+03  0.11114273541E+04  0.13833562472E+04  0.15294330000E+03 0.  0.
<mgrwt>
<rscale>  0 0.98354652E+03</rscale>
<asrwt>0</asrwt>
<pdfrwt beam="1">  1        1 0.44165898E+00 0.10434665E+04</pdfrwt>
<pdfrwt beam="2">  1       -1 0.20721925E+00 0.10434665E+04</pdfrwt>
<totfact> 0.10141007E-01</totfact>
</mgrwt>
</event>
<event>
 4    5  0.7176259E-008  0.7583282E+03  0.7818608E-02  0.9809455E-01
          1   -1    0    0  501    0  0.00000000000E+00  0.00000000000E+00  0.91268159832E+03  0.91268159833E+03  0.50400000000E-02 0. -1.
         -1   -1    0    0    0  501 -0.00000000000E+00 -0.00000000000E+00 -0.96981225457E+03  0.96981225458E+03  0.50400000000E-02 0.  1.
    8880023    1    1    2    0    0 -0.29516861694E+03  0.23265204874E+03  0.69452362886E+03  0.10283116092E+04  0.65864270000E+03 0. -1.
    8880022    1    1    2    0    0  0.29516861694E+03 -0.23265204874E+03 -0.75165428512E+03  0.85418224376E+03  0.15294330000E+03 0.  0.
<mgrwt>
<rscale>  0 0.64857599E+03</rscale>
<asrwt>0</asrwt>
<pdfrwt beam="1">  1        1 0.14041255E+00 0.75832822E+03</pdfrwt>
<pdfrwt beam="2">  1       -1 0.14920189E+00 0.75832822E+03</pdfrwt>
<totfact> 0.64970266E+00</totfact>
</mgrwt>
</event>
<event>
 4    5  0.7176259E-008  0.1577552E+04  0.7818608E-02  0.8856730E-01
          1   -1    0    0  501    0  0.00000000000E+00  0.00000000000E+00  0.32805986593E+04  0.32805986593E+04  0.50400000000E-02 0. -1.
         -1   -1    0    0    0  501 -0.00000000000E+00 -0.00000000000E+00 -0.11950765301E+04  0.11950765301E+04  0.50400000000E-02 0.  1.
    8880023    1    1    2    0    0  0.24666545550E+02 -0.14332655349E+04  0.25173177327E+04  0.29707839547E+04  0.65864270000E+03 0. -1.
    8880022    1    1    2    0    0 -0.24666545550E+02  0.14332655349E+04 -0.43179560350E+03  0.15048912347E+04  0.15294330000E+03 0.  0.
<mgrwt>
<rscale>  0 0.15424102E+04</rscale>
<asrwt>0</asrwt>
<pdfrwt beam="1">  1        1 0.50470748E+00 0.15775515E+04</pdfrwt>
<pdfrwt beam="2">  1       -1 0.18385793E+00 0.15775515E+04</pdfrwt>
<totfact> 0.67901007E-02</totfact>
</mgrwt>
</event>
<event>
 4    5  0.7176259E-008  0.7285971E+03  0.7818608E-02  0.9894502E-01
          1   -1    0    0  501    0  0.00000000000E+00  0.00000000000E+00  0.63478439858E+03  0.63478439860E+03  0.50400000000E-02 0. -1.
         -1   -1    0    0    0  501 -0.00000000000E+00 -0.00000000000E+00 -0.81972435588E+03  0.81972435590E+03  0.50400000000E-02 0.  1.
    8880023    1    1    2    0    0 -0.25844314462E+03  0.17392737509E+03  0.35670168063E+03  0.81122739478E+03  0.65864270000E+03 0. -1.
    8880022    1    1    2    0    0  0.25844314462E+03 -0.17392737509E+03 -0.54164163793E+03  0.64328135972E+03  0.15294330000E+03 0.  0.
<mgrwt>
<rscale>  0 0.60528484E+03</rscale>
<asrwt>0</asrwt>
<pdfrwt beam="1">  1        1 0.97659138E-01 0.72859714E+03</pdfrwt>
<pdfrwt beam="2">  1       -1 0.12611144E+00 0.72859714E+03</pdfrwt>
<totfact> 0.17779424E+01</totfact>
</mgrwt>
</event>
<event>
 4    5  0.7176259E-008  0.1225459E+04  0.7818608E-02  0.9132763E-01
         -1   -1    0    0    0  501 -0.00000000000E+00  0.00000000000E+00  0.41292842085E+03  0.41292842088E+03  0.50400000000E-02 0.  1.
          1   -1    0    0  501    0  0.00000000000E+00 -0.00000000000E+00 -0.38599784989E+04  0.38599784989E+04  0.50400000000E-02 0. -1.
    8880023    1    1    2    0    0  0.40253275459E+02 -0.10326279065E+04 -0.27674505740E+04  0.30266373429E+04  0.65864270000E+03 0. -1.
    8880022    1    1    2    0    0 -0.40253275459E+02  0.10326279065E+04 -0.67959950407E+03  0.12462695769E+04  0.15294330000E+03 0.  0.
<mgrwt>
<rscale>  0 0.11775215E+04</rscale>
<asrwt>0</asrwt>
<pdfrwt beam="1">  1        1 0.59384282E+00 0.12254595E+04</pdfrwt>
<pdfrwt beam="2">  1       -1 0.63527452E-01 0.12254595E+04</pdfrwt>
<totfact> 0.32227833E-01</totfact>
</mgrwt>
</event>
<event>
 4    5  0.7176259E-008  0.7801455E+03  0.7818608E-02  0.9755495E-01
         -1   -1    0    0    0  501 -0.00000000000E+00  0.00000000000E+00  0.29161407116E+03  0.29161407121E+03  0.50400000000E-02 0.  1.
          1   -1    0    0  501    0  0.00000000000E+00 -0.00000000000E+00 -0.16903992878E+04  0.16903992878E+04  0.50400000000E-02 0. -1.
    8880023    1    1    2    0    0  0.41801392526E+03  0.90075402896E+01 -0.13149827612E+04  0.15289887658E+04  0.65864270000E+03 0. -1.
    8880022    1    1    2    0    0 -0.41801392526E+03 -0.90075402896E+01 -0.83802455445E+02  0.45302459320E+03  0.15294330000E+03 0.  0.
<mgrwt>
<rscale>  0 0.67806600E+03</rscale>
<asrwt>0</asrwt>
<pdfrwt beam="1">  1        1 0.26006142E+00 0.78014549E+03</pdfrwt>
<pdfrwt beam="2">  1       -1 0.44863704E-01 0.78014549E+03</pdfrwt>
<totfact> 0.24581165E+01</totfact>
</mgrwt>
</event>
<event>
 4    5  0.7176259E-008  0.7328864E+03  0.7818608E-02  0.9881175E-01
          1   -1    0    0  501    0  0.00000000000E+00  0.00000000000E+00  0.18876474674E+04  0.18876474674E+04  0.50400000000E-02 0. -1.
         -1   -1    0    0    0  501 -0.00000000000E+00 -0.00000000000E+00 -0.19545842752E+03  0.19545842758E+03  0.50400000000E-02 0.  1.
    8880023    1    1    2    0    0  0.24341799812E+03 -0.20990447519E+03  0.15204951724E+04  0.16879063913E+04  0.65864270000E+03 0. -1.
    8880022    1    1    2    0    0 -0.24341799812E+03  0.20990447519E+03  0.17169386751E+03  0.39519950363E+03  0.15294330000E+03 0.  0.
<mgrwt>
<rscale>  0 0.61182358E+03</rscale>
<asrwt>0</asrwt>
<pdfrwt beam="1">  1        1 0.29040730E+00 0.73288636E+03</pdfrwt>
<pdfrwt beam="2">  1       -1 0.30070527E-01 0.73288636E+03</pdfrwt>
<totfact> 0.37412950E+01</totfact>
</mgrwt>
</event>
<event>
 4    5  0.7176259E-008  0.1235482E+04  0.7818608E-02  0.9123380E-01
         -1   -1    0    0    0  501 -0.00000000000E+00  0.00000000000E+00  0.96314441233E+03  0.96314441234E+03  0.50400000000E-02 0.  1.
          1   -1    0    0  501    0  0.00000000000E+00 -0.00000000000E+00 -0.15978058998E+04  0.15978058998E+04  0.50400000000E-02 0. -1.
    8880023    1    1    2    0    0 -0.10239988013E+04 -0.20983574654E+03 -0.82761692360E+03  0.14870657565E+04  0.65864270000E+03 0. -1.
    8880022    1    1    2    0    0  0.10239988013E+04  0.20983574654E+03  0.19295543612E+03  0.10738845557E+04  0.15294330000E+03 0.  0.
<mgrwt>
<rscale>  0 0.11880509E+04</rscale>
<asrwt>0</asrwt>
<pdfrwt beam="1">  1        1 0.24581629E+00 0.12354816E+04</pdfrwt>
<pdfrwt beam="2">  1       -1 0.14817606E+00 0.12354816E+04</pdfrwt>
<totfact> 0.19733199E+00</totfact>
</mgrwt>
</event>
<event>
 4    5  0.7176259E-008  0.9980346E+03  0.7818608E-02  0.9384134E-01
          1   -1    0    0  501    0  0.00000000000E+00  0.00000000000E+00  0.23578659933E+04  0.23578659933E+04  0.50400000000E-02 0. -1.
         -1   -1    0    0    0  501 -0.00000000000E+00 -0.00000000000E+00 -0.76523799499E+03  0.76523799500E+03  0.50400000000E-02 0.  1.
    8880023    1    1    2    0    0 -0.24186349074E+03  0.70976396303E+03  0.20152766367E+04  0.22488692625E+04  0.65864270000E+03 0.  0.
    8880022    1    1    2    0    0  0.24186349074E+03 -0.70976396303E+03 -0.42264863831E+03  0.87423472583E+03  0.15294330000E+03 0.  0.
<mgrwt>
<rscale>  0 0.93393011E+03</rscale>
<asrwt>0</asrwt>
<pdfrwt beam="1">  1        1 0.36274862E+00 0.99803459E+03</pdfrwt>
<pdfrwt beam="2">  1       -1 0.11772892E+00 0.99803459E+03</pdfrwt>
<totfact> 0.11198236E+00</totfact>
</mgrwt>
</event>
<event>
 4    5  0.7176259E-008  0.8166563E+03  0.7818608E-02  0.9675875E-01
         -1   -1    0    0    0  501 -0.00000000000E+00  0.00000000000E+00  0.41741812274E+03  0.41741812277E+03  0.50400000000E-02 0.  1.
          1   -1    0    0  501    0  0.00000000000E+00 -0.00000000000E+00 -0.33707272162E+04  0.33707272162E+04  0.50400000000E-02 0. -1.
    8880023    1    1    2    0    0  0.36634404563E+03  0.31449845079E+03 -0.31429665866E+04  0.32473321983E+04  0.65864270000E+03 0. -1.
    8880022    1    1    2    0    0 -0.36634404563E+03 -0.31449845079E+03  0.18965749321E+03  0.54081314062E+03  0.15294330000E+03 0.  0.
<mgrwt>
<rscale>  0 0.72471504E+03</rscale>
<asrwt>0</asrwt>
<pdfrwt beam="1">  1        1 0.51857340E+00 0.81665626E+03</pdfrwt>
<pdfrwt beam="2">  1       -1 0.64218175E-01 0.81665626E+03</pdfrwt>
<totfact> 0.83181263E-01</totfact>
</mgrwt>
</event>
<event>
 4    5  0.7176259E-008  0.1457316E+04  0.7818608E-02  0.8940380E-01
         -1   -1    0    0    0  501 -0.00000000000E+00  0.00000000000E+00  0.13494067402E+04  0.13494067402E+04  0.50400000000E-02 0.  1.
          1   -1    0    0  501    0  0.00000000000E+00 -0.00000000000E+00 -0.29623286667E+04  0.29623286667E+04  0.50400000000E-02 0. -1.
    8880023    1    1    2    0    0 -0.89334674149E+02 -0.12969110797E+04 -0.23828333035E+04  0.27931458593E+04  0.65864270000E+03 0.  0.
    8880022    1    1    2    0    0  0.89334674149E+02  0.12969110797E+04  0.76991137699E+03  0.15185895476E+04  0.15294330000E+03 0.  0.
<mgrwt>
<rscale>  0 0.14187178E+04</rscale>
<asrwt>0</asrwt>
<pdfrwt beam="1">  1        1 0.45574287E+00 0.14573158E+04</pdfrwt>
<pdfrwt beam="2">  1       -1 0.20760104E+00 0.14573158E+04</pdfrwt>
<totfact> 0.80958775E-02</totfact>
</mgrwt>
</event>
<event>
 4    5  0.7176259E-008  0.7647300E+03  0.7818608E-02  0.9793012E-01
          1   -1    0    0  501    0  0.00000000000E+00  0.00000000000E+00  0.10720653974E+04  0.10720653974E+04  0.50400000000E-02 0. -1.
         -1   -1    0    0    0  501 -0.00000000000E+00 -0.00000000000E+00 -0.34880290701E+03  0.34880290705E+03  0.50400000000E-02 0.  1.
    8880023    1    1    2    0    0  0.28408598847E+03  0.26513559097E+03  0.63508807960E+03  0.99405674161E+03  0.65864270000E+03 0.  1.
    8880022    1    1    2    0    0 -0.28408598847E+03 -0.26513559097E+03  0.88174410795E+02  0.42681156284E+03  0.15294330000E+03 0.  0.
<mgrwt>
<rscale>  0 0.65738885E+03</rscale>
<asrwt>0</asrwt>
<pdfrwt beam="1">  1        1 0.16493314E+00 0.76472998E+03</pdfrwt>
<pdfrwt beam="2">  1       -1 0.53661987E-01 0.76472998E+03</pdfrwt>
<totfact> 0.47741806E+01</totfact>
</mgrwt>
</event>
<event>
 4    5  0.7176259E-008  0.9948677E+03  0.7818608E-02  0.9388303E-01
          1   -1    0    0  501    0  0.00000000000E+00  0.00000000000E+00  0.98356895653E+03  0.98356895655E+03  0.50400000000E-02 0. -1.
         -1   -1    0    0    0  501 -0.00000000000E+00 -0.00000000000E+00 -0.10338318578E+04  0.10338318578E+04  0.50400000000E-02 0.  1.
    8880023    1    1    2    0    0 -0.66609364056E+03  0.33506849207E+03  0.46507639382E+03  0.10982066703E+04  0.65864270000E+03 0.  0.
    8880022    1    1    2    0    0  0.66609364056E+03 -0.33506849207E+03 -0.51533929507E+03  0.91919414403E+03  0.15294330000E+03 0.  0.
<mgrwt>
<rscale>  0 0.93044565E+03</rscale>
<asrwt>0</asrwt>
<pdfrwt beam="1">  1        1 0.15131830E+00 0.99486775E+03</pdfrwt>
<pdfrwt beam="2">  1       -1 0.15905106E+00 0.99486775E+03</pdfrwt>
<totfact> 0.46468683E+00</totfact>
</mgrwt>
</event>
<event>
 4    5  0.7176259E-008  0.8196502E+03  0.7818608E-02  0.9669816E-01
         -1   -1    0    0    0  501 -0.00000000000E+00  0.00000000000E+00  0.92892599561E+03  0.92892599562E+03  0.50400000000E-02 0.  1.
          1   -1    0    0  501    0  0.00000000000E+00 -0.00000000000E+00 -0.57949816601E+03  0.57949816604E+03  0.50400000000E-02 0. -1.
    8880023    1    1    2    0    0 -0.25469442421E+03  0.41610929550E+03 -0.10250868630E+03  0.82603537004E+03  0.65864270000E+03 0. -1.
    8880022    1    1    2    0    0  0.25469442421E+03 -0.41610929550E+03  0.45193651589E+03  0.68238879162E+03  0.15294330000E+03 0.  0.
<mgrwt>
<rscale>  0 0.72842732E+03</rscale>
<asrwt>0</asrwt>
<pdfrwt beam="1">  1        1 0.89153564E-01 0.81965017E+03</pdfrwt>
<pdfrwt beam="2">  1       -1 0.14291169E+00 0.81965017E+03</pdfrwt>
<totfact> 0.14584985E+01</totfact>
</mgrwt>
</event>
<event>
 4    5  0.7176259E-008  0.8921357E+03  0.7818608E-02  0.9538776E-01
          1   -1    0    0  501    0  0.00000000000E+00  0.00000000000E+00  0.10951918367E+04  0.10951918367E+04  0.50400000000E-02 0. -1.
         -1   -1    0    0    0  501 -0.00000000000E+00 -0.00000000000E+00 -0.13887388651E+04  0.13887388652E+04  0.50400000000E-02 0.  1.
    8880023    1    1    2    0    0 -0.60096051432E+03 -0.30698234027E+02  0.81822716295E+03  0.12105378217E+04  0.65864270000E+03 0. -1.
    8880022    1    1    2    0    0  0.60096051432E+03  0.30698234027E+02 -0.11117741914E+04  0.12733928801E+04  0.15294330000E+03 0.  0.
<mgrwt>
<rscale>  0 0.81484404E+03</rscale>
<asrwt>0</asrwt>
<pdfrwt beam="1">  1        1 0.16849105E+00 0.89213571E+03</pdfrwt>
<pdfrwt beam="2">  1       -1 0.21365213E+00 0.89213571E+03</pdfrwt>
<totfact> 0.15858478E+00</totfact>
</mgrwt>
</event>
<event>
 4    5  0.7176259E-008  0.8162694E+03  0.7818608E-02  0.9676663E-01
         -1   -1    0    0    0  501 -0.00000000000E+00  0.00000000000E+00  0.17945536471E+04  0.17945536471E+04  0.50400000000E-02 0.  1.
          1   -1    0    0  501    0  0.00000000000E+00 -0.00000000000E+00 -0.10417854940E+04  0.10417854940E+04  0.50400000000E-02 0. -1.
    8880023    1    1    2    0    0 -0.47716430889E+03 -0.69280104158E+02 -0.83634363461E+03  0.11686600840E+04  0.65864270000E+03 0. -1.
    8880022    1    1    2    0    0  0.47716430889E+03  0.69280104158E+02  0.15891117877E+04  0.16676790570E+04  0.15294330000E+03 0.  0.
<mgrwt>
<rscale>  0 0.72423427E+03</rscale>
<asrwt>0</asrwt>
<pdfrwt beam="1">  1        1 0.16027469E+00 0.81626939E+03</pdfrwt>
<pdfrwt beam="2">  1       -1 0.27608518E+00 0.81626939E+03</pdfrwt>
<totfact> 0.69146108E-01</totfact>
</mgrwt>
</event>
<event>
 4    5  0.7176259E-008  0.6642447E+03  0.7818608E-02  0.1020176E+00
          1   -1    0    0  501    0  0.00000000000E+00  0.00000000000E+00  0.25835463865E+04  0.25835463865E+04  0.50400000000E-02 0. -1.
         -1   -1    0    0    0  501 -0.00000000000E+00 -0.00000000000E+00 -0.11215177576E+03  0.11215177587E+03  0.50400000000E-02 0.  1.
    8880023    1    1    2    0    0 -0.44433631146E+02 -0.73732140550E+02  0.24247673450E+04  0.25141037488E+04  0.65864270000E+03 0. -1.
    8880022    1    1    2    0    0  0.44433631146E+02  0.73732140550E+02  0.46627265793E+02  0.18159441362E+03  0.15294330000E+03 0.  0.
<mgrwt>
<rscale>  0 0.47623266E+03</rscale>
<asrwt>0</asrwt>
<pdfrwt beam="1">  1        1 0.39746869E+00 0.66424467E+03</pdfrwt>
<pdfrwt beam="2">  1       -1 0.17254119E-01 0.66424467E+03</pdfrwt>
<totfact> 0.32817346E+01</totfact>
</mgrwt>
</event>
<event>
 4    5  0.7176259E-008  0.7226156E+03  0.7818608E-02  0.9913833E-01
         -1   -1    0    0    0  501 -0.00000000000E+00  0.00000000000E+00  0.10151893790E+04  0.10151893790E+04  0.50400000000E-02 0.  1.
          1   -1    0    0  501    0  0.00000000000E+00 -0.00000000000E+00 -0.11112533960E+04  0.11112533960E+04  0.50400000000E-02 0. -1.
    8880023    1    1    2    0    0 -0.23528011665E+03 -0.18167670287E+03 -0.95914114855E+03  0.12008851347E+04  0.65864270000E+03 0.  0.
    8880022    1    1    2    0    0  0.23528011665E+03  0.18167670287E+03  0.86307713151E+03  0.92555764035E+03  0.15294330000E+03 0.  0.
<mgrwt>
<rscale>  0 0.59595545E+03</rscale>
<asrwt>0</asrwt>
<pdfrwt beam="1">  1        1 0.17096206E+00 0.72261564E+03</pdfrwt>
<pdfrwt beam="2">  1       -1 0.15618298E+00 0.72261564E+03</pdfrwt>
<totfact> 0.40548126E+00</totfact>
</mgrwt>
</event>
<event>
 4    5  0.7176259E-008  0.6602735E+03  0.7818608E-02  0.1023878E+00
          1   -1    0    0  501    0  0.00000000000E+00  0.00000000000E+00  0.18664172693E+04  0.18664172693E+04  0.50400000000E-02 0. -1.
         -1   -1    0    0    0  501 -0.00000000000E+00 -0.00000000000E+00 -0.35115726912E+03  0.35115726915E+03  0.50400000000E-02 0.  1.
    8880023    1    1    2    0    0 -0.42556964034E+02 -0.18435104003E+02  0.17854662026E+04  0.19036414355E+04  0.65864270000E+03 0. -1.
    8880022    1    1    2    0    0  0.42556964034E+02  0.18435104003E+02 -0.27020620243E+03  0.31393310290E+03  0.15294330000E+03 0.  0.
<mgrwt>
<rscale>  0 0.46312803E+03</rscale>
<asrwt>0</asrwt>
<pdfrwt beam="1">  1        1 0.28714112E+00 0.66027355E+03</pdfrwt>
<pdfrwt beam="2">  1       -1 0.54024195E-01 0.66027355E+03</pdfrwt>
<totfact> 0.13426226E+01</totfact>
</mgrwt>
</event>
<event>
 4    5  0.7176259E-008  0.1014578E+04  0.7818608E-02  0.9362729E-01
          1   -1    0    0  501    0  0.00000000000E+00  0.00000000000E+00  0.14634650069E+04  0.14634650070E+04  0.50400000000E-02 0. -1.
         -1   -1    0    0    0  501 -0.00000000000E+00 -0.00000000000E+00 -0.84923923435E+03  0.84923923436E+03  0.50400000000E-02 0.  1.
    8880023    1    1    2    0    0  0.77087373082E+03  0.36209288448E+02 -0.34544145887E+03  0.10717730306E+04  0.65864270000E+03 0.  0.
    8880022    1    1    2    0    0 -0.77087373082E+03 -0.36209288448E+02  0.95966723147E+03  0.12409312107E+04  0.15294330000E+03 0.  0.
<mgrwt>
<rscale>  0 0.95207422E+03</rscale>
<asrwt>0</asrwt>
<pdfrwt beam="1">  1        1 0.22514846E+00 0.10145776E+04</pdfrwt>
<pdfrwt beam="2">  1       -1 0.13065219E+00 0.10145776E+04</pdfrwt>
<totfact> 0.34844062E+00</totfact>
</mgrwt>
</event>
<event>
 4    5  0.7176259E-008  0.7007087E+03  0.7818608E-02  0.9994274E-01
         -1   -1    0    0    0  501 -0.00000000000E+00  0.00000000000E+00  0.40392089949E+03  0.40392089952E+03  0.50400000000E-02 0.  1.
          1   -1    0    0  501    0  0.00000000000E+00 -0.00000000000E+00 -0.15835210772E+04  0.15835210772E+04  0.50400000000E-02 0. -1.
    8880023    1    1    2    0    0 -0.23905692731E+03 -0.58569574171E+01 -0.14405098041E+04  0.16018930115E+04  0.65864270000E+03 0. -1.
    8880022    1    1    2    0    0  0.23905692731E+03  0.58569574171E+01  0.26090962636E+03  0.38554896523E+03  0.15294330000E+03 0.  0.
<mgrwt>
<rscale>  0 0.55902036E+03</rscale>
<asrwt>0</asrwt>
<pdfrwt beam="1">  1        1 0.24361862E+00 0.70070873E+03</pdfrwt>
<pdfrwt beam="2">  1       -1 0.62141678E-01 0.70070873E+03</pdfrwt>
<totfact> 0.15714666E+01</totfact>
</mgrwt>
</event>
<event>
 4    5  0.7533330E-008  0.1194436E+04  0.7818608E-02  0.9162550E-01
          1   -1    0    0  501    0  0.00000000000E+00  0.00000000000E+00  0.18052870689E+04  0.18052870689E+04  0.50400000000E-02 0. -1.
         -1   -1    0    0    0  501 -0.00000000000E+00 -0.00000000000E+00 -0.18410949658E+04  0.18410949658E+04  0.50400000000E-02 0.  1.
    8880023    1    1    2    0    0 -0.45301193214E+02  0.99539635668E+03  0.14326148184E+04  0.18652242571E+04  0.65864270000E+03 0.  0.
    8880022    1    1    2    0    0  0.45301193214E+02 -0.99539635668E+03 -0.14684227153E+04  0.17811577776E+04  0.15294330000E+03 0.  0.
<mgrwt>
<rscale>  0 0.11448472E+04</rscale>
<asrwt>0</asrwt>
<pdfrwt beam="1">  1        1 0.27773647E+00 0.11944356E+04</pdfrwt>
<pdfrwt beam="2">  1       -1 0.28324538E+00 0.11944356E+04</pdfrwt>
<totfact> 0.16869478E-01</totfact>
</mgrwt>
</event>
<event>
 4    5  0.7176259E-008  0.1113724E+04  0.7818608E-02  0.9245928E-01
         -1   -1    0    0    0  501 -0.00000000000E+00  0.00000000000E+00  0.42178989067E+03  0.42178989070E+03  0.50400000000E-02 0.  1.
          1   -1    0    0  501    0  0.00000000000E+00 -0.00000000000E+00 -0.38953731443E+04  0.38953731443E+04  0.50400000000E-02 0. -1.
    8880023    1    1    2    0    0 -0.83658462541E+03  0.32664404520E+03 -0.31650994510E+04  0.33553293294E+04  0.65864270000E+03 0.  0.
    8880022    1    1    2    0    0  0.83658462541E+03 -0.32664404520E+03 -0.30848380264E+03  0.96183370561E+03  0.15294330000E+03 0.  0.
<mgrwt>
<rscale>  0 0.10591692E+04</rscale>
<asrwt>0</asrwt>
<pdfrwt beam="1">  1        1 0.59928815E+00 0.11137237E+04</pdfrwt>
<pdfrwt beam="2">  1       -1 0.64890755E-01 0.11137237E+04</pdfrwt>
<totfact> 0.29342500E-01</totfact>
</mgrwt>
</event>
<event>
 4    5  0.7176259E-008  0.6949775E+03  0.7818608E-02  0.1001871E+00
         -1   -1    0    0    0  501 -0.00000000000E+00  0.00000000000E+00  0.32061629571E+03  0.32061629575E+03  0.50400000000E-02 0.  1.
          1   -1    0    0  501    0  0.00000000000E+00 -0.00000000000E+00 -0.12179446130E+04  0.12179446130E+04  0.50400000000E-02 0. -1.
    8880023    1    1    2    0    0 -0.10178978544E+03  0.19703375076E+03 -0.10266274480E+04  0.12397409336E+04  0.65864270000E+03 0. -1.
    8880022    1    1    2    0    0  0.10178978544E+03 -0.19703375076E+03  0.12929913064E+03  0.29881997516E+03  0.15294330000E+03 0.  0.
<mgrwt>
<rscale>  0 0.54837355E+03</rscale>
<asrwt>0</asrwt>
<pdfrwt beam="1">  1        1 0.18737609E+00 0.69497746E+03</pdfrwt>
<pdfrwt beam="2">  1       -1 0.49325585E-01 0.69497746E+03</pdfrwt>
<totfact> 0.44108141E+01</totfact>
</mgrwt>
</event>
<event>
 4    5  0.7176259E-008  0.1159142E+04  0.7818608E-02  0.9197899E-01
         -1   -1    0    0    0  501 -0.00000000000E+00  0.00000000000E+00  0.39647079708E+03  0.39647079712E+03  0.50400000000E-02 0.  1.
          1   -1    0    0  501    0  0.00000000000E+00 -0.00000000000E+00 -0.29700507066E+04  0.29700507066E+04  0.50400000000E-02 0. -1.
    8880023    1    1    2    0    0 -0.48448634639E+03  0.82162891162E+03 -0.17390337766E+04  0.20899401357E+04  0.65864270000E+03 0. -1.
    8880022    1    1    2    0    0  0.48448634639E+03 -0.82162891162E+03 -0.83454613284E+03  0.12765813680E+04  0.15294330000E+03 0.  0.
<mgrwt>
<rscale>  0 0.11075135E+04</rscale>
<asrwt>0</asrwt>
<pdfrwt beam="1">  1        1 0.45693086E+00 0.11591425E+04</pdfrwt>
<pdfrwt beam="2">  1       -1 0.60995509E-01 0.11591425E+04</pdfrwt>
<totfact> 0.17213253E+00</totfact>
</mgrwt>
</event>
<event>
 4    5  0.7176259E-008  0.7573883E+03  0.7818608E-02  0.9811916E-01
         -1   -1    0    0    0  501 -0.00000000000E+00  0.00000000000E+00  0.67443579225E+03  0.67443579227E+03  0.50400000000E-02 0.  1.
          1   -1    0    0  501    0  0.00000000000E+00 -0.00000000000E+00 -0.76736070665E+03  0.76736070667E+03  0.50400000000E-02 0. -1.
    8880023    1    1    2    0    0  0.31488227233E+03  0.20168282221E+03 -0.46817436777E+03  0.89040678968E+03  0.65864270000E+03 0. -1.
    8880022    1    1    2    0    0 -0.31488227233E+03 -0.20168282221E+03  0.37524945337E+03  0.55138970926E+03  0.15294330000E+03 0.  0.
<mgrwt>
<rscale>  0 0.64726943E+03</rscale>
<asrwt>0</asrwt>
<pdfrwt beam="1">  1        1 0.11805549E+00 0.75738828E+03</pdfrwt>
<pdfrwt beam="2">  1       -1 0.10375935E+00 0.75738828E+03</pdfrwt>
<totfact> 0.21221417E+01</totfact>
</mgrwt>
</event>
<event>
 4    5  0.1027743E-007  0.1000139E+04  0.7818608E-02  0.9381376E-01
          1   -1    0    0  501    0  0.00000000000E+00  0.00000000000E+00  0.20023541866E+04  0.20023541866E+04  0.50400000000E-02 0. -1.
         -1   -1    0    0    0  501 -0.00000000000E+00 -0.00000000000E+00 -0.12426470400E+04  0.12426470400E+04  0.50400000000E-02 0.  1.
    8880023    1    1    2    0    0 -0.33769677625E+03  0.67262768507E+03  0.17355962199E+04  0.20031404245E+04  0.65864270000E+03 0. -1.
    8880022    1    1    2    0    0  0.33769677625E+03 -0.67262768507E+03 -0.97588907330E+03  0.12418608021E+04  0.15294330000E+03 0.  0.
<mgrwt>
<rscale>  0 0.93624317E+03</rscale>
<asrwt>0</asrwt>
<pdfrwt beam="1">  1        1 0.30805448E+00 0.10001387E+04</pdfrwt>
<pdfrwt beam="2">  1       -1 0.19117647E+00 0.10001387E+04</pdfrwt>
<totfact> 0.52108256E-01</totfact>
</mgrwt>
</event>
<event>
 4    5  0.7176259E-008  0.7557731E+03  0.7818608E-02  0.9816176E-01
          1   -1    0    0  501    0  0.00000000000E+00  0.00000000000E+00  0.11796765765E+04  0.11796765765E+04  0.50400000000E-02 0. -1.
         -1   -1    0    0    0  501 -0.00000000000E+00 -0.00000000000E+00 -0.58225682702E+03  0.58225682705E+03  0.50400000000E-02 0.  1.
    8880023    1    1    2    0    0  0.14723312409E+03 -0.34015457582E+03  0.95968629319E+03  0.12215525842E+04  0.65864270000E+03 0. -1.
    8880022    1    1    2    0    0 -0.14723312409E+03  0.34015457582E+03 -0.36226654370E+03  0.54038081940E+03  0.15294330000E+03 0.  0.
<mgrwt>
<rscale>  0 0.64501626E+03</rscale>
<asrwt>0</asrwt>
<pdfrwt beam="1">  1        1 0.18148870E+00 0.75577307E+03</pdfrwt>
<pdfrwt beam="2">  1       -1 0.89577974E-01 0.75577307E+03</pdfrwt>
<totfact> 0.13929800E+01</totfact>
</mgrwt>
</event>
<event>
 4    5  0.7176259E-008  0.6677131E+03  0.7818608E-02  0.1017358E+00
          1   -1    0    0  501    0  0.00000000000E+00  0.00000000000E+00  0.14211313265E+04  0.14211313265E+04  0.50400000000E-02 0. -1.
         -1   -1    0    0    0  501 -0.00000000000E+00 -0.00000000000E+00 -0.57281251177E+03  0.57281251180E+03  0.50400000000E-02 0.  1.
    8880023    1    1    2    0    0 -0.10944888323E+03 -0.71756328825E+01  0.13237486880E+04  0.14826163843E+04  0.65864270000E+03 0. -1.
    8880022    1    1    2    0    0  0.10944888323E+03  0.71756328825E+01 -0.47542987330E+03  0.51132745398E+03  0.15294330000E+03 0.  0.
<mgrwt>
<rscale>  0 0.48652130E+03</rscale>
<asrwt>0</asrwt>
<pdfrwt beam="1">  1        1 0.21863559E+00 0.66771308E+03</pdfrwt>
<pdfrwt beam="2">  1       -1 0.88125002E-01 0.66771308E+03</pdfrwt>
<totfact> 0.98742507E+00</totfact>
</mgrwt>
</event>
<event>
 4    5  0.7176259E-008  0.8004808E+03  0.7818608E-02  0.9709757E-01
          1   -1    0    0  501    0  0.00000000000E+00  0.00000000000E+00  0.13510149920E+04  0.13510149921E+04  0.50400000000E-02 0. -1.
         -1   -1    0    0    0  501 -0.00000000000E+00 -0.00000000000E+00 -0.67697257229E+03  0.67697257230E+03  0.50400000000E-02 0.  1.
    8880023    1    1    2    0    0  0.28756365859E+03 -0.35251456609E+03  0.11174412928E+04  0.13745707061E+04  0.65864270000E+03 0. -1.
    8880022    1    1    2    0    0 -0.28756365859E+03  0.35251456609E+03 -0.44339887301E+03  0.65341685825E+03  0.15294330000E+03 0.  0.
<mgrwt>
<rscale>  0 0.70438805E+03</rscale>
<asrwt>0</asrwt>
<pdfrwt beam="1">  1        1 0.20784846E+00 0.80048085E+03</pdfrwt>
<pdfrwt beam="2">  1       -1 0.10414963E+00 0.80048085E+03</pdfrwt>
<totfact> 0.74364430E+00</totfact>
</mgrwt>
</event>
<event>
 4    5  0.7176259E-008  0.6874217E+03  0.7818608E-02  0.1005403E+00
          1   -1    0    0  501    0  0.00000000000E+00  0.00000000000E+00  0.17274913538E+04  0.17274913538E+04  0.50400000000E-02 0. -1.
         -1   -1    0    0    0  501 -0.00000000000E+00 -0.00000000000E+00 -0.21903297233E+03  0.21903297238E+03  0.50400000000E-02 0.  1.
    8880023    1    1    2    0    0 -0.44785522349E+02 -0.19165763160E+03  0.15483544173E+04  0.16940926771E+04  0.65864270000E+03 0. -1.
    8880022    1    1    2    0    0  0.44785522349E+02  0.19165763160E+03 -0.39896035846E+02  0.25243164907E+03  0.15294330000E+03 0.  0.
<mgrwt>
<rscale>  0 0.53343332E+03</rscale>
<asrwt>0</asrwt>
<pdfrwt beam="1">  1        1 0.26576790E+00 0.68742170E+03</pdfrwt>
<pdfrwt beam="2">  1       -1 0.33697381E-01 0.68742170E+03</pdfrwt>
<totfact> 0.39435161E+01</totfact>
</mgrwt>
</event>
<event>
 4    5  0.7176259E-008  0.9232110E+03  0.7818608E-02  0.9489753E-01
          1   -1    0    0  501    0  0.00000000000E+00  0.00000000000E+00  0.73724183004E+03  0.73724183006E+03  0.50400000000E-02 0. -1.
         -1   -1    0    0    0  501 -0.00000000000E+00 -0.00000000000E+00 -0.13811936752E+04  0.13811936752E+04  0.50400000000E-02 0.  1.
    8880023    1    1    2    0    0 -0.11868277569E+03 -0.63594238055E+03  0.29391967969E+03  0.96886908146E+03  0.65864270000E+03 0. -1.
    8880022    1    1    2    0    0  0.11868277569E+03  0.63594238055E+03 -0.93787152489E+03  0.11495664238E+04  0.15294330000E+03 0.  0.
<mgrwt>
<rscale>  0 0.85043518E+03</rscale>
<asrwt>0</asrwt>
<pdfrwt beam="1">  1        1 0.11342182E+00 0.92321098E+03</pdfrwt>
<pdfrwt beam="2">  1       -1 0.21249133E+00 0.92321098E+03</pdfrwt>
<totfact> 0.31554957E+00</totfact>
</mgrwt>
</event>
<event>
 4    5  0.7176259E-008  0.7497664E+03  0.7818608E-02  0.9832360E-01
         -1   -1    0    0    0  501 -0.00000000000E+00  0.00000000000E+00  0.30828892559E+03  0.30828892563E+03  0.50400000000E-02 0.  1.
          1   -1    0    0  501    0  0.00000000000E+00 -0.00000000000E+00 -0.22958669606E+04  0.22958669606E+04  0.50400000000E-02 0. -1.
    8880023    1    1    2    0    0 -0.13818334314E+03  0.33052198163E+03 -0.20738223006E+04  0.22051958093E+04  0.65864270000E+03 0. -1.
    8880022    1    1    2    0    0  0.13818334314E+03 -0.33052198163E+03  0.86244265549E+02  0.39896007697E+03  0.15294330000E+03 0.  0.
<mgrwt>
<rscale>  0 0.63654452E+03</rscale>
<asrwt>0</asrwt>
<pdfrwt beam="1">  1        1 0.35321029E+00 0.74976638E+03</pdfrwt>
<pdfrwt beam="2">  1       -1 0.47429067E-01 0.74976638E+03</pdfrwt>
<totfact> 0.87389792E+00</totfact>
</mgrwt>
</event>
<event>
 4    5  0.7176259E-008  0.7736610E+03  0.7818608E-02  0.9770944E-01
         -1   -1    0    0    0  501 -0.00000000000E+00  0.00000000000E+00  0.33607462654E+03  0.33607462658E+03  0.50400000000E-02 0.  1.
          1   -1    0    0  501    0  0.00000000000E+00 -0.00000000000E+00 -0.14885129755E+04  0.14885129755E+04  0.50400000000E-02 0. -1.
    8880023    1    1    2    0    0 -0.40456356481E+03 -0.32702010009E+02 -0.11557949798E+04  0.13908318881E+04  0.65864270000E+03 0. -1.
    8880022    1    1    2    0    0  0.40456356481E+03  0.32702010009E+02  0.33566308130E+01  0.43375571399E+03  0.15294330000E+03 0.  0.
<mgrwt>
<rscale>  0 0.66945451E+03</rscale>
<asrwt>0</asrwt>
<pdfrwt beam="1">  1        1 0.22900199E+00 0.77366098E+03</pdfrwt>
<pdfrwt beam="2">  1       -1 0.51703789E-01 0.77366098E+03</pdfrwt>
<totfact> 0.25830807E+01</totfact>
</mgrwt>
</event>
<event>
 4    5  0.7176259E-008  0.1023383E+04  0.7818608E-02  0.9351585E-01
         -1   -1    0    0    0  501 -0.00000000000E+00  0.00000000000E+00  0.19779799927E+04  0.19779799927E+04  0.50400000000E-02 0.  1.
          1   -1    0    0  501    0  0.00000000000E+00 -0.00000000000E+00 -0.58381339189E+03  0.58381339191E+03  0.50400000000E-02 0. -1.
    8880023    1    1    2    0    0  0.18484079587E+03 -0.76114172205E+03  0.82862686457E+02  0.10267323273E+04  0.65864270000E+03 0. -1.
    8880022    1    1    2    0    0 -0.18484079587E+03  0.76114172205E+03  0.13113039144E+04  0.15350610573E+04  0.15294330000E+03 0.  0.
<mgrwt>
<rscale>  0 0.96169449E+03</rscale>
<asrwt>0</asrwt>
<pdfrwt beam="1">  1        1 0.89817445E-01 0.10233831E+04</pdfrwt>
<pdfrwt beam="2">  1       -1 0.30430461E+00 0.10233831E+04</pdfrwt>
<totfact> 0.11159407E+00</totfact>
</mgrwt>
</event>
<event>
 4    5  0.7176259E-008  0.8329926E+03  0.7818608E-02  0.9643538E-01
         -1   -1    0    0    0  501 -0.00000000000E+00  0.00000000000E+00  0.74710521498E+03  0.74710521499E+03  0.50400000000E-02 0.  1.
          1   -1    0    0  501    0  0.00000000000E+00 -0.00000000000E+00 -0.15943264922E+04  0.15943264922E+04  0.50400000000E-02 0. -1.
    8880023    1    1    2    0    0  0.50928435143E+03 -0.26378837802E+02 -0.13647882707E+04  0.15989132634E+04  0.65864270000E+03 0.  0.
    8880022    1    1    2    0    0 -0.50928435143E+03  0.26378837802E+02  0.51756699347E+03  0.74251844384E+03  0.15294330000E+03 0.  0.
<mgrwt>
<rscale>  0 0.74480390E+03</rscale>
<asrwt>0</asrwt>
<pdfrwt beam="1">  1        1 0.24528100E+00 0.83299256E+03</pdfrwt>
<pdfrwt beam="2">  1       -1 0.11493926E+00 0.83299256E+03</pdfrwt>
<totfact> 0.39867655E+00</totfact>
</mgrwt>
</event>
<event>
 4    5  0.7176259E-008  0.1326806E+04  0.7818608E-02  0.9042750E-01
          1   -1    0    0  501    0  0.00000000000E+00  0.00000000000E+00  0.18625092820E+04  0.18625092820E+04  0.50400000000E-02 0. -1.
         -1   -1    0    0    0  501 -0.00000000000E+00 -0.00000000000E+00 -0.10889288325E+04  0.10889288325E+04  0.50400000000E-02 0.  1.
    8880023    1    1    2    0    0  0.11437829352E+04 -0.13551774855E+03  0.11228737574E+04  0.17381772477E+04  0.65864270000E+03 0.  0.
    8880022    1    1    2    0    0 -0.11437829352E+04  0.13551774855E+03 -0.34929330785E+03  0.12132608668E+04  0.15294330000E+03 0.  0.
<mgrwt>
<rscale>  0 0.12835039E+04</rscale>
<asrwt>0</asrwt>
<pdfrwt beam="1">  1        1 0.28653989E+00 0.13268062E+04</pdfrwt>
<pdfrwt beam="2">  1       -1 0.16752751E+00 0.13268062E+04</pdfrwt>
<totfact> 0.91622494E-01</totfact>
</mgrwt>
</event>
<event>
 4    5  0.7176259E-008  0.7019965E+03  0.7818608E-02  0.9989018E-01
         -1   -1    0    0    0  501 -0.00000000000E+00  0.00000000000E+00  0.16127938431E+04  0.16127938431E+04  0.50400000000E-02 0.  1.
          1   -1    0    0  501    0  0.00000000000E+00 -0.00000000000E+00 -0.37022528102E+03  0.37022528105E+03  0.50400000000E-02 0. -1.
    8880023    1    1    2    0    0 -0.10465288100E+03 -0.21917269106E+03 -0.58607361451E+01  0.70202097440E+03  0.65864270000E+03 0.  0.
    8880022    1    1    2    0    0  0.10465288100E+03  0.21917269106E+03  0.12484292982E+04  0.12809981497E+04  0.15294330000E+03 0.  1.
<mgrwt>
<rscale>  0 0.56134428E+03</rscale>
<asrwt>0</asrwt>
<pdfrwt beam="1">  1        1 0.56957736E-01 0.70199651E+03</pdfrwt>
<pdfrwt beam="2">  1       -1 0.24812213E+00 0.70199651E+03</pdfrwt>
<totfact> 0.49920736E+00</totfact>
</mgrwt>
</event>
<event>
 4    5  0.7176259E-008  0.7395488E+03  0.7818608E-02  0.9861263E-01
         -1   -1    0    0    0  501 -0.00000000000E+00  0.00000000000E+00  0.15753429110E+03  0.15753429118E+03  0.50400000000E-02 0.  1.
          1   -1    0    0  501    0  0.00000000000E+00 -0.00000000000E+00 -0.19864128390E+04  0.19864128391E+04  0.50400000000E-02 0. -1.
    8880023    1    1    2    0    0  0.18010687835E+03  0.28404888891E+03 -0.10808503522E+04  0.13096449706E+04  0.65864270000E+03 0.  0.
    8880022    1    1    2    0    0 -0.18010687835E+03 -0.28404888891E+03 -0.74802819572E+03  0.83430215961E+03  0.15294330000E+03 0. -1.
<mgrwt>
<rscale>  0 0.62175925E+03</rscale>
<asrwt>0</asrwt>
<pdfrwt beam="1">  1        1 0.30560196E+00 0.73954883E+03</pdfrwt>
<pdfrwt beam="2">  1       -1 0.24236046E-01 0.73954883E+03</pdfrwt>
<totfact> 0.46542867E+01</totfact>
</mgrwt>
</event>
<event>
 4    5  0.7176259E-008  0.9332617E+03  0.7818608E-02  0.9474617E-01
          1   -1    0    0  501    0  0.00000000000E+00  0.00000000000E+00  0.13925393325E+04  0.13925393325E+04  0.50400000000E-02 0. -1.
         -1   -1    0    0    0  501 -0.00000000000E+00 -0.00000000000E+00 -0.83806901607E+03  0.83806901609E+03  0.50400000000E-02 0.  1.
    8880023    1    1    2    0    0 -0.32075698538E+03  0.57817133453E+03  0.10391077226E+04  0.13966825699E+04  0.65864270000E+03 0.  0.
    8880022    1    1    2    0    0  0.32075698538E+03 -0.57817133453E+03 -0.48463740620E+03  0.83392577862E+03  0.15294330000E+03 0.  0.
<mgrwt>
<rscale>  0 0.86181333E+03</rscale>
<asrwt>0</asrwt>
<pdfrwt beam="1">  1        1 0.21423682E+00 0.93326167E+03</pdfrwt>
<pdfrwt beam="2">  1       -1 0.12893370E+00 0.93326167E+03</pdfrwt>
<totfact> 0.40798891E+00</totfact>
</mgrwt>
</event>
<event>
 4    5  0.7797116E-008  0.1096912E+04  0.7818608E-02  0.9264502E-01
          1   -1    0    0  501    0  0.00000000000E+00  0.00000000000E+00  0.26485562479E+04  0.26485562479E+04  0.50400000000E-02 0. -1.
         -1   -1    0    0    0  501 -0.00000000000E+00 -0.00000000000E+00 -0.13097655420E+04  0.13097655420E+04  0.50400000000E-02 0.  1.
    8880023    1    1    2    0    0 -0.73920358369E+02 -0.87403734198E+03  0.23605967646E+04  0.26030045689E+04  0.65864270000E+03 0.  0.
    8880022    1    1    2    0    0  0.73920358369E+02  0.87403734198E+03 -0.10218060587E+04  0.13553172209E+04  0.15294330000E+03 0.  0.
<mgrwt>
<rscale>  0 0.10411758E+04</rscale>
<asrwt>0</asrwt>
<pdfrwt beam="1">  1        1 0.40747019E+00 0.10969119E+04</pdfrwt>
<pdfrwt beam="2">  1       -1 0.20150239E+00 0.10969119E+04</pdfrwt>
<totfact> 0.15749286E-01</totfact>
</mgrwt>
</event>
<event>
 4    5  0.7176259E-008  0.7345520E+03  0.7818608E-02  0.9876111E-01
         -1   -1    0    0    0  501 -0.00000000000E+00  0.00000000000E+00  0.14602647801E+04  0.14602647801E+04  0.50400000000E-02 0.  1.
          1   -1    0    0  501    0  0.00000000000E+00 -0.00000000000E+00 -0.81723994184E+03  0.81723994186E+03  0.50400000000E-02 0. -1.
    8880023    1    1    2    0    0  0.30542445803E+03  0.11167951236E+03 -0.62193873821E+03  0.96248346136E+03  0.65864270000E+03 0.  0.
    8880022    1    1    2    0    0 -0.30542445803E+03 -0.11167951236E+03  0.12649635764E+04  0.13150212606E+04  0.15294330000E+03 0.  0.
<mgrwt>
<rscale>  0 0.61433165E+03</rscale>
<asrwt>0</asrwt>
<pdfrwt beam="1">  1        1 0.12572922E+00 0.73455199E+03</pdfrwt>
<pdfrwt beam="2">  1       -1 0.22465612E+00 0.73455199E+03</pdfrwt>
<totfact> 0.22892404E+00</totfact>
</mgrwt>
</event>
<event>
 4    5  0.7176259E-008  0.1868589E+04  0.7818608E-02  0.8685515E-01
          1   -1    0    0  501    0  0.00000000000E+00  0.00000000000E+00  0.30165893085E+04  0.30165893085E+04  0.50400000000E-02 0. -1.
         -1   -1    0    0    0  501 -0.00000000000E+00 -0.00000000000E+00 -0.12103439094E+04  0.12103439094E+04  0.50400000000E-02 0.  1.
    8880023    1    1    2    0    0  0.23563287660E+03 -0.17327123890E+04  0.15990933625E+04  0.24594155533E+04  0.65864270000E+03 0.  0.
    8880022    1    1    2    0    0 -0.23563287660E+03  0.17327123890E+04  0.20715203662E+03  0.17675176647E+04  0.15294330000E+03 0.  0.
<mgrwt>
<rscale>  0 0.18396087E+04</rscale>
<asrwt>0</asrwt>
<pdfrwt beam="1">  1        1 0.46409066E+00 0.18685891E+04</pdfrwt>
<pdfrwt beam="2">  1       -1 0.18620676E+00 0.18685891E+04</pdfrwt>
<totfact> 0.99264235E-02</totfact>
</mgrwt>
</event>
<event>
 4    5  0.7176259E-008  0.1213705E+04  0.7818608E-02  0.9143914E-01
         -1   -1    0    0    0  501 -0.00000000000E+00  0.00000000000E+00  0.65988634451E+03  0.65988634453E+03  0.50400000000E-02 0.  1.
          1   -1    0    0  501    0  0.00000000000E+00 -0.00000000000E+00 -0.20711742836E+04  0.20711742836E+04  0.50400000000E-02 0. -1.
    8880023    1    1    2    0    0 -0.10192798886E+04 -0.18372413658E+02 -0.11399308708E+04  0.16650890767E+04  0.65864270000E+03 0.  0.
    8880022    1    1    2    0    0  0.10192798886E+04  0.18372413658E+02 -0.27135706831E+03  0.10659715514E+04  0.15294330000E+03 0.  0.
<mgrwt>
<rscale>  0 0.11651561E+04</rscale>
<asrwt>0</asrwt>
<pdfrwt beam="1">  1        1 0.31864219E+00 0.12137048E+04</pdfrwt>
<pdfrwt beam="2">  1       -1 0.10152098E+00 0.12137048E+04</pdfrwt>
<totfact> 0.24174136E+00</totfact>
</mgrwt>
</event>
<event>
 4    5  0.7176259E-008  0.1248840E+04  0.7818608E-02  0.9111049E-01
         -1   -1    0    0    0  501 -0.00000000000E+00  0.00000000000E+00  0.10937222386E+04  0.10937222386E+04  0.50400000000E-02 0.  1.
          1   -1    0    0  501    0  0.00000000000E+00 -0.00000000000E+00 -0.14185227870E+04  0.14185227870E+04  0.50400000000E-02 0. -1.
    8880023    1    1    2    0    0 -0.39698456161E+03 -0.98396838121E+03 -0.62847508063E+03  0.13980635360E+04  0.65864270000E+03 0.  0.
    8880022    1    1    2    0    0  0.39698456161E+03  0.98396838121E+03  0.30367453217E+03  0.11141814896E+04  0.15294330000E+03 0.  0.
<mgrwt>
<rscale>  0 0.12020669E+04</rscale>
<asrwt>0</asrwt>
<pdfrwt beam="1">  1        1 0.21823427E+00 0.12488398E+04</pdfrwt>
<pdfrwt beam="2">  1       -1 0.16826496E+00 0.12488398E+04</pdfrwt>
<totfact> 0.18422137E+00</totfact>
</mgrwt>
</event>
<event>
 4    5  0.7176259E-008  0.8053387E+03  0.7818608E-02  0.9699369E-01
          1   -1    0    0  501    0  0.00000000000E+00  0.00000000000E+00  0.15616742246E+04  0.15616742246E+04  0.50400000000E-02 0. -1.
         -1   -1    0    0    0  501 -0.00000000000E+00 -0.00000000000E+00 -0.52292771206E+03  0.52292771208E+03  0.50400000000E-02 0.  1.
    8880023    1    1    2    0    0 -0.28965303085E+03 -0.36174757568E+03  0.13013789861E+04  0.15304109443E+04  0.65864270000E+03 0. -1.
    8880022    1    1    2    0    0  0.28965303085E+03  0.36174757568E+03 -0.26263247359E+03  0.55419099234E+03  0.15294330000E+03 0.  0.
<mgrwt>
<rscale>  0 0.71054349E+03</rscale>
<asrwt>0</asrwt>
<pdfrwt beam="1">  1        1 0.24025757E+00 0.80533868E+03</pdfrwt>
<pdfrwt beam="2">  1       -1 0.80450419E-01 0.80533868E+03</pdfrwt>
<totfact> 0.94249112E+00</totfact>
</mgrwt>
</event>
<event>
 4    5  0.7176259E-008  0.2952499E+04  0.7818608E-02  0.8262612E-01
          1   -1    0    0  501    0  0.00000000000E+00  0.00000000000E+00  0.25517089219E+04  0.25517089219E+04  0.50400000000E-02 0. -1.
         -1   -1    0    0    0  501 -0.00000000000E+00 -0.00000000000E+00 -0.35071679360E+04  0.35071679360E+04  0.50400000000E-02 0.  1.
    8880023    1    1    2    0    0  0.24162586281E+04  0.15636924053E+04  0.18730633551E+03  0.29584343099E+04  0.65864270000E+03 0.  0.
    8880022    1    1    2    0    0 -0.24162586281E+04 -0.15636924053E+04 -0.11427653496E+04  0.31004425480E+04  0.15294330000E+03 0.  0.
<mgrwt>
<rscale>  0 0.29347542E+04</rscale>
<asrwt>0</asrwt>
<pdfrwt beam="1">  1        1 0.39257060E+00 0.29524989E+04</pdfrwt>
<pdfrwt beam="2">  1       -1 0.53956430E+00 0.29524989E+04</pdfrwt>
<totfact> 0.84634568E-04</totfact>
</mgrwt>
</event>
<event>
 4    5  0.7176259E-008  0.1326058E+04  0.7818608E-02  0.9043378E-01
         -1   -1    0    0    0  501 -0.00000000000E+00  0.00000000000E+00  0.23710945618E+04  0.23710945618E+04  0.50400000000E-02 0.  1.
          1   -1    0    0  501    0  0.00000000000E+00 -0.00000000000E+00 -0.80455364530E+03  0.80455364532E+03  0.50400000000E-02 0. -1.
    8880023    1    1    2    0    0 -0.84377534828E+03 -0.78272761545E+03  0.13566066695E+03  0.13329791376E+04  0.65864270000E+03 0.  0.
    8880022    1    1    2    0    0  0.84377534828E+03  0.78272761545E+03  0.14308802496E+04  0.18426690696E+04  0.15294330000E+03 0.  0.
<mgrwt>
<rscale>  0 0.12827250E+04</rscale>
<asrwt>0</asrwt>
<pdfrwt beam="1">  1        1 0.12377749E+00 0.13260579E+04</pdfrwt>
<pdfrwt beam="2">  1       -1 0.36478377E+00 0.13260579E+04</pdfrwt>
<totfact> 0.26472401E-01</totfact>
</mgrwt>
</event>
<event>
 4    5  0.7176259E-008  0.9261680E+03  0.7818608E-02  0.9485266E-01
         -1   -1    0    0    0  501 -0.00000000000E+00  0.00000000000E+00  0.10506402659E+04  0.10506402659E+04  0.50400000000E-02 0.  1.
          1   -1    0    0  501    0  0.00000000000E+00 -0.00000000000E+00 -0.13721814817E+04  0.13721814817E+04  0.50400000000E-02 0. -1.
    8880023    1    1    2    0    0 -0.65052079572E+03 -0.28278006407E+02  0.72816045944E+03  0.11781361603E+04  0.65864270000E+03 0.  1.
    8880022    1    1    2    0    0  0.65052079572E+03  0.28278006407E+02 -0.10497016752E+04  0.12446855873E+04  0.15294330000E+03 0.  0.
<mgrwt>
<rscale>  0 0.85378892E+03</rscale>
<asrwt>0</asrwt>
<pdfrwt beam="1">  1        1 0.21110484E+00 0.92616800E+03</pdfrwt>
<pdfrwt beam="2">  1       -1 0.16163696E+00 0.92616800E+03</pdfrwt>
<totfact> 0.23175153E+00</totfact>
</mgrwt>
</event>
<event>
 4    5  0.7176259E-008  0.7559467E+03  0.7818608E-02  0.9815716E-01
         -1   -1    0    0    0  501 -0.00000000000E+00  0.00000000000E+00  0.47419969211E+03  0.47419969214E+03  0.50400000000E-02 0.  1.
          1   -1    0    0  501    0  0.00000000000E+00 -0.00000000000E+00 -0.14579431775E+04  0.14579431775E+04  0.50400000000E-02 0. -1.
    8880023    1    1    2    0    0  0.33081657357E+03 -0.16794522241E+03 -0.12426891293E+04  0.14545554927E+04  0.65864270000E+03 0.  0.
    8880022    1    1    2    0    0 -0.33081657357E+03  0.16794522241E+03  0.25894564391E+03  0.47758737692E+03  0.15294330000E+03 0.  1.
<mgrwt>
<rscale>  0 0.64525896E+03</rscale>
<asrwt>0</asrwt>
<pdfrwt beam="1">  1        1 0.22429895E+00 0.75594670E+03</pdfrwt>
<pdfrwt beam="2">  1       -1 0.72953799E-01 0.75594670E+03</pdfrwt>
<totfact> 0.13723283E+01</totfact>
</mgrwt>
</event>
<event>
 4    5  0.7176259E-008  0.1379952E+04  0.7818608E-02  0.8999419E-01
         -1   -1    0    0    0  501 -0.00000000000E+00  0.00000000000E+00  0.12554009382E+04  0.12554009382E+04  0.50400000000E-02 0.  1.
          1   -1    0    0  501    0  0.00000000000E+00 -0.00000000000E+00 -0.15592389361E+04  0.15592389361E+04  0.50400000000E-02 0. -1.
    8880023    1    1    2    0    0 -0.11800836205E+04  0.27903430447E+03 -0.67650579975E+03  0.15368564662E+04  0.65864270000E+03 0.  0.
    8880022    1    1    2    0    0  0.11800836205E+04 -0.27903430447E+03  0.37266780187E+03  0.12777834081E+04  0.15294330000E+03 0.  0.
<mgrwt>
<rscale>  0 0.13387095E+04</rscale>
<asrwt>0</asrwt>
<pdfrwt beam="1">  1        1 0.23988291E+00 0.13799521E+04</pdfrwt>
<pdfrwt beam="2">  1       -1 0.19313861E+00 0.13799521E+04</pdfrwt>
<totfact> 0.95957007E-01</totfact>
</mgrwt>
</event>
<event>
 4    5  0.7176259E-008  0.1107402E+04  0.7818608E-02  0.9252859E-01
         -1   -1    0    0    0  501 -0.00000000000E+00  0.00000000000E+00  0.14572407848E+04  0.14572407848E+04  0.50400000000E-02 0.  1.
          1   -1    0    0  501    0  0.00000000000E+00 -0.00000000000E+00 -0.77268568750E+03  0.77268568752E+03  0.50400000000E-02 0. -1.
    8880023    1    1    2    0    0  0.65148189058E+03  0.60671275972E+03  0.18373192481E+02  0.11075544262E+04  0.65864270000E+03 0.  0.
    8880022    1    1    2    0    0 -0.65148189058E+03 -0.60671275972E+03  0.66618190481E+03  0.11223720461E+04  0.15294330000E+03 0.  0.
<mgrwt>
<rscale>  0 0.10524100E+04</rscale>
<asrwt>0</asrwt>
<pdfrwt beam="1">  1        1 0.11887472E+00 0.11074020E+04</pdfrwt>
<pdfrwt beam="2">  1       -1 0.22419089E+00 0.11074020E+04</pdfrwt>
<totfact> 0.23944596E+00</totfact>
</mgrwt>
</event>
<event>
 4    5  0.7176259E-008  0.9285767E+03  0.7818608E-02  0.9481632E-01
          1   -1    0    0  501    0  0.00000000000E+00  0.00000000000E+00  0.14899408235E+04  0.14899408235E+04  0.50400000000E-02 0. -1.
         -1   -1    0    0    0  501 -0.00000000000E+00 -0.00000000000E+00 -0.50571494499E+03  0.50571494502E+03  0.50400000000E-02 0.  1.
    8880023    1    1    2    0    0  0.36633048893E+03 -0.54244482979E+03  0.94109309886E+03  0.13220857943E+04  0.65864270000E+03 0.  0.
    8880022    1    1    2    0    0 -0.36633048893E+03  0.54244482979E+03  0.43132779648E+02  0.67356997423E+03  0.15294330000E+03 0.  0.
<mgrwt>
<rscale>  0 0.85651690E+03</rscale>
<asrwt>0</asrwt>
<pdfrwt beam="1">  1        1 0.22922166E+00 0.92857667E+03</pdfrwt>
<pdfrwt beam="2">  1       -1 0.77802300E-01 0.92857667E+03</pdfrwt>
<totfact> 0.11154329E+01</totfact>
</mgrwt>
</event>
<event>
 4    5  0.7176259E-008  0.7410265E+03  0.7818608E-02  0.9856967E-01
          1   -1    0    0  501    0  0.00000000000E+00  0.00000000000E+00  0.43293926225E+04  0.43293926225E+04  0.50400000000E-02 0. -1.
         -1   -1    0    0    0  501 -0.00000000000E+00 -0.00000000000E+00 -0.96897116425E+02  0.96897116556E+02  0.50400000000E-02 0.  1.
    8880023    1    1    2    0    0  0.30914161463E+03 -0.14050451036E+03  0.37181121374E+04  0.37912370182E+04  0.65864270000E+03 0. -1.
    8880022    1    1    2    0    0 -0.30914161463E+03  0.14050451036E+03  0.51438336866E+03  0.63505272088E+03  0.15294330000E+03 0.  0.
<mgrwt>
<rscale>  0 0.62392951E+03</rscale>
<asrwt>0</asrwt>
<pdfrwt beam="1">  1        1 0.66606039E+00 0.74102649E+03</pdfrwt>
<pdfrwt beam="2">  1       -1 0.14907249E-01 0.74102649E+03</pdfrwt>
<totfact> 0.17677734E+00</totfact>
</mgrwt>
</event>
<event>
 4    5  0.7176259E-008  0.8369980E+03  0.7818608E-02  0.9635867E-01
         -1   -1    0    0    0  501 -0.00000000000E+00  0.00000000000E+00  0.61849364829E+03  0.61849364831E+03  0.50400000000E-02 0.  1.
          1   -1    0    0  501    0  0.00000000000E+00 -0.00000000000E+00 -0.10769830906E+04  0.10769830906E+04  0.50400000000E-02 0. -1.
    8880023    1    1    2    0    0  0.21494331363E+03  0.46963272589E+03 -0.71319247945E+03  0.10996405069E+04  0.65864270000E+03 0.  0.
    8880022    1    1    2    0    0 -0.21494331363E+03 -0.46963272589E+03  0.25470303715E+03  0.59583623207E+03  0.15294330000E+03 0.  0.
<mgrwt>
<rscale>  0 0.74967086E+03</rscale>
<asrwt>0</asrwt>
<pdfrwt beam="1">  1        1 0.16568971E+00 0.83699805E+03</pdfrwt>
<pdfrwt beam="2">  1       -1 0.95152869E-01 0.83699805E+03</pdfrwt>
<totfact> 0.14368749E+01</totfact>
</mgrwt>
</event>
<event>
 4    5  0.7176259E-008  0.8841209E+03  0.7818608E-02  0.9552019E-01
         -1   -1    0    0    0  501 -0.00000000000E+00  0.00000000000E+00  0.14135869019E+04  0.14135869019E+04  0.50400000000E-02 0.  1.
          1   -1    0    0  501    0  0.00000000000E+00 -0.00000000000E+00 -0.21581414748E+04  0.21581414748E+04  0.50400000000E-02 0. -1.
    8880023    1    1    2    0    0  0.35383095792E+03 -0.47187210469E+03 -0.19942296750E+04  0.21814265591E+04  0.65864270000E+03 0.  0.
    8880022    1    1    2    0    0 -0.35383095792E+03  0.47187210469E+03  0.12496751022E+04  0.13903018176E+04  0.15294330000E+03 0.  0.
<mgrwt>
<rscale>  0 0.80554954E+03</rscale>
<asrwt>0</asrwt>
<pdfrwt beam="1">  1        1 0.33202177E+00 0.88412094E+03</pdfrwt>
<pdfrwt beam="2">  1       -1 0.21747491E+00 0.88412094E+03</pdfrwt>
<totfact> 0.27670137E-01</totfact>
</mgrwt>
</event>
<event>
 4    5  0.7176259E-008  0.6739630E+03  0.7818608E-02  0.1012968E+00
          1   -1    0    0  501    0  0.00000000000E+00  0.00000000000E+00  0.47520925133E+03  0.47520925136E+03  0.50400000000E-02 0. -1.
         -1   -1    0    0    0  501 -0.00000000000E+00 -0.00000000000E+00 -0.10267909662E+04  0.10267909662E+04  0.50400000000E-02 0.  1.
    8880023    1    1    2    0    0  0.10099096398E+03 -0.10107801991E+03  0.21494718100E+03  0.70740966759E+03  0.65864270000E+03 0. -1.
    8880022    1    1    2    0    0 -0.10099096398E+03  0.10107801991E+03 -0.76652889587E+03  0.79459054999E+03  0.15294330000E+03 0.  0.
<mgrwt>
<rscale>  0 0.50311901E+03</rscale>
<asrwt>0</asrwt>
<pdfrwt beam="1">  1        1 0.73109116E-01 0.67396302E+03</pdfrwt>
<pdfrwt beam="2">  1       -1 0.15796784E+00 0.67396302E+03</pdfrwt>
<totfact> 0.14932944E+01</totfact>
</mgrwt>
</event>
<event>
 4    5  0.7176259E-008  0.8654359E+03  0.7818608E-02  0.9583966E-01
         -1   -1    0    0    0  501 -0.00000000000E+00  0.00000000000E+00  0.78831076800E+03  0.78831076801E+03  0.50400000000E-02 0.  1.
          1   -1    0    0  501    0  0.00000000000E+00 -0.00000000000E+00 -0.32747003068E+04  0.32747003068E+04  0.50400000000E-02 0. -1.
    8880023    1    1    2    0    0 -0.52342099574E+03 -0.20297652005E+03 -0.30993196417E+04  0.32178815165E+04  0.65864270000E+03 0. -1.
    8880022    1    1    2    0    0  0.52342099574E+03  0.20297652005E+03  0.61293010284E+03  0.84512955838E+03  0.15294330000E+03 0.  0.
<mgrwt>
<rscale>  0 0.78366549E+03</rscale>
<asrwt>0</asrwt>
<pdfrwt beam="1">  1        1 0.50380004E+00 0.86543585E+03</pdfrwt>
<pdfrwt beam="2">  1       -1 0.12127858E+00 0.86543585E+03</pdfrwt>
<totfact> 0.23934354E-01</totfact>
</mgrwt>
</event>
<event>
 4    5  0.8454759E-008  0.8765278E+03  0.7818608E-02  0.9564814E-01
          1   -1    0    0  501    0  0.00000000000E+00  0.00000000000E+00  0.18417150626E+04  0.18417150626E+04  0.50400000000E-02 0. -1.
         -1   -1    0    0    0  501 -0.00000000000E+00 -0.00000000000E+00 -0.97775139684E+03  0.97775139685E+03  0.50400000000E-02 0.  1.
    8880023    1    1    2    0    0 -0.45898450925E+03  0.35188623426E+03  0.16280717327E+04  0.18490317668E+04  0.65864270000E+03 0. -1.
    8880022    1    1    2    0    0  0.45898450925E+03 -0.35188623426E+03 -0.76410806698E+03  0.97043469261E+03  0.15294330000E+03 0.  0.
<mgrwt>
<rscale>  0 0.79669445E+03</rscale>
<asrwt>0</asrwt>
<pdfrwt beam="1">  1        1 0.28334078E+00 0.87652776E+03</pdfrwt>
<pdfrwt beam="2">  1       -1 0.15042329E+00 0.87652776E+03</pdfrwt>
<totfact> 0.13602173E+00</totfact>
</mgrwt>
</event>
<event>
 4    5  0.7176259E-008  0.1032934E+04  0.7818608E-02  0.9339684E-01
          1   -1    0    0  501    0  0.00000000000E+00  0.00000000000E+00  0.20141579666E+04  0.20141579666E+04  0.50400000000E-02 0. -1.
         -1   -1    0    0    0  501 -0.00000000000E+00 -0.00000000000E+00 -0.85646381269E+03  0.85646381270E+03  0.50400000000E-02 0.  1.
    8880023    1    1    2    0    0 -0.79534679257E+03 -0.23803459911E+02  0.16322374012E+04  0.19316190787E+04  0.65864270000E+03 0. -1.
    8880022    1    1    2    0    0  0.79534679257E+03  0.23803459911E+02 -0.47454324728E+03  0.93900270059E+03  0.15294330000E+03 0.  0.
<mgrwt>
<rscale>  0 0.97210181E+03</rscale>
<asrwt>0</asrwt>
<pdfrwt beam="1">  1        1 0.30987045E+00 0.10329343E+04</pdfrwt>
<pdfrwt beam="2">  1       -1 0.13176366E+00 0.10329343E+04</pdfrwt>
<totfact> 0.14373504E+00</totfact>
</mgrwt>
</event>
<event>
 4    5  0.7176259E-008  0.1123395E+04  0.7818608E-02  0.9235445E-01
          1   -1    0    0  501    0  0.00000000000E+00  0.00000000000E+00  0.25758256398E+04  0.25758256398E+04  0.50400000000E-02 0. -1.
         -1   -1    0    0    0  501 -0.00000000000E+00 -0.00000000000E+00 -0.66834938824E+03  0.66834938826E+03  0.50400000000E-02 0.  1.
    8880023    1    1    2    0    0 -0.88132406883E+03  0.22687947888E+03  0.20231625998E+04  0.23141312676E+04  0.65864270000E+03 0. -1.
    8880022    1    1    2    0    0  0.88132406883E+03 -0.22687947888E+03 -0.11568634822E+03  0.93004376048E+03  0.15294330000E+03 0.  0.
<mgrwt>
<rscale>  0 0.10694949E+04</rscale>
<asrwt>0</asrwt>
<pdfrwt beam="1">  1        1 0.39628087E+00 0.11233951E+04</pdfrwt>
<pdfrwt beam="2">  1       -1 0.10282298E+00 0.11233951E+04</pdfrwt>
<totfact> 0.10735528E+00</totfact>
</mgrwt>
</event>
<event>
 4    5  0.7176259E-008  0.7228368E+03  0.7818608E-02  0.9913102E-01
         -1   -1    0    0    0  501 -0.00000000000E+00  0.00000000000E+00  0.58583645056E+03  0.58583645058E+03  0.50400000000E-02 0.  1.
          1   -1    0    0  501    0  0.00000000000E+00 -0.00000000000E+00 -0.99153297939E+03  0.99153297941E+03  0.50400000000E-02 0. -1.
    8880023    1    1    2    0    0 -0.28368693412E+03 -0.90578934819E+02 -0.78792580633E+03  0.10692614753E+04  0.65864270000E+03 0. -1.
    8880022    1    1    2    0    0  0.28368693412E+03  0.90578934819E+02  0.38222927750E+03  0.50810795469E+03  0.15294330000E+03 0.  0.
<mgrwt>
<rscale>  0 0.59630510E+03</rscale>
<asrwt>0</asrwt>
<pdfrwt beam="1">  1        1 0.15254353E+00 0.72283679E+03</pdfrwt>
<pdfrwt beam="2">  1       -1 0.90128685E-01 0.72283679E+03</pdfrwt>
<totfact> 0.19106529E+01</totfact>
</mgrwt>
</event>
<event>
 4    5  0.7176259E-008  0.9931167E+03  0.7818608E-02  0.9390619E-01
          1   -1    0    0  501    0  0.00000000000E+00  0.00000000000E+00  0.21687462252E+04  0.21687462252E+04  0.50400000000E-02 0. -1.
         -1   -1    0    0    0  501 -0.00000000000E+00 -0.00000000000E+00 -0.88091964937E+03  0.88091964938E+03  0.50400000000E-02 0.  1.
    8880023    1    1    2    0    0 -0.71966559739E+03  0.18588175517E+03  0.18537561786E+04  0.21030199179E+04  0.65864270000E+03 0.  0.
    8880022    1    1    2    0    0  0.71966559739E+03 -0.18588175517E+03 -0.56592960281E+03  0.94664595669E+03  0.15294330000E+03 0.  0.
<mgrwt>
<rscale>  0 0.92851740E+03</rscale>
<asrwt>0</asrwt>
<pdfrwt beam="1">  1        1 0.33365326E+00 0.99311671E+03</pdfrwt>
<pdfrwt beam="2">  1       -1 0.13552610E+00 0.99311671E+03</pdfrwt>
<totfact> 0.10585148E+00</totfact>
</mgrwt>
</event>
<event>
 4    5  0.7176259E-008  0.1301927E+04  0.7818608E-02  0.9063898E-01
          1   -1    0    0  501    0  0.00000000000E+00  0.00000000000E+00  0.22201021439E+04  0.22201021439E+04  0.50400000000E-02 0. -1.
         -1   -1    0    0    0  501 -0.00000000000E+00 -0.00000000000E+00 -0.80151229378E+03  0.80151229380E+03  0.50400000000E-02 0.  1.
    8880023    1    1    2    0    0 -0.10712238762E+04 -0.33716831620E+03  0.13659148491E+04  0.18869914276E+04  0.65864270000E+03 0.  0.
    8880022    1    1    2    0    0  0.10712238762E+04  0.33716831620E+03  0.52675001033E+02  0.11346230102E+04  0.15294330000E+03 0.  0.
<mgrwt>
<rscale>  0 0.12575802E+04</rscale>
<asrwt>0</asrwt>
<pdfrwt beam="1">  1        1 0.34155418E+00 0.13019268E+04</pdfrwt>
<pdfrwt beam="2">  1       -1 0.12330958E+00 0.13019268E+04</pdfrwt>
<totfact> 0.11897859E+00</totfact>
</mgrwt>
</event>
<event>
 4    5  0.7176259E-008  0.6586914E+03  0.7818608E-02  0.1025539E+00
         -1   -1    0    0    0  501 -0.00000000000E+00  0.00000000000E+00  0.80191248750E+03  0.80191248752E+03  0.50400000000E-02 0.  1.
          1   -1    0    0  501    0  0.00000000000E+00 -0.00000000000E+00 -0.17340635013E+04  0.17340635013E+04  0.50400000000E-02 0. -1.
    8880023    1    1    2    0    0 -0.27974059914E+01 -0.75068779359E+01 -0.16632900906E+04  0.17889685046E+04  0.65864270000E+03 0.  0.
    8880022    1    1    2    0    0  0.27974059914E+01  0.75068779359E+01  0.73113907686E+03  0.74700748418E+03  0.15294330000E+03 0.  1.
<mgrwt>
<rscale>  0 0.45739652E+03</rscale>
<asrwt>0</asrwt>
<pdfrwt beam="1">  1        1 0.26677900E+00 0.65869142E+03</pdfrwt>
<pdfrwt beam="2">  1       -1 0.12337115E+00 0.65869142E+03</pdfrwt>
<totfact> 0.27890328E+00</totfact>
</mgrwt>
</event>
<event>
 4    5  0.7176259E-008  0.9413470E+03  0.7818608E-02  0.9462675E-01
          1   -1    0    0  501    0  0.00000000000E+00  0.00000000000E+00  0.23387139855E+04  0.23387139855E+04  0.50400000000E-02 0. -1.
         -1   -1    0    0    0  501 -0.00000000000E+00 -0.00000000000E+00 -0.11279768745E+04  0.11279768746E+04  0.50400000000E-02 0.  1.
    8880023    1    1    2    0    0  0.67066101830E+03  0.50376956959E+02  0.21234083705E+04  0.23227133601E+04  0.65864270000E+03 0.  0.
    8880022    1    1    2    0    0 -0.67066101830E+03 -0.50376956959E+02 -0.91267125955E+03  0.11439774999E+04  0.15294330000E+03 0.  0.
<mgrwt>
<rscale>  0 0.87092500E+03</rscale>
<asrwt>0</asrwt>
<pdfrwt beam="1">  1        1 0.35980215E+00 0.94134704E+03</pdfrwt>
<pdfrwt beam="2">  1       -1 0.17353490E+00 0.94134704E+03</pdfrwt>
<totfact> 0.41698036E-01</totfact>
</mgrwt>
</event>
<event>
 4    5  0.7176259E-008  0.7267517E+03  0.7818608E-02  0.9900369E-01
          1   -1    0    0  501    0  0.00000000000E+00  0.00000000000E+00  0.15329969061E+04  0.15329969061E+04  0.50400000000E-02 0. -1.
         -1   -1    0    0    0  501 -0.00000000000E+00 -0.00000000000E+00 -0.23466716583E+03  0.23466716588E+03  0.50400000000E-02 0.  1.
    8880023    1    1    2    0    0  0.26947276889E+03  0.14745258150E+03  0.12130283176E+04  0.14140741645E+04  0.65864270000E+03 0. -1.
    8880022    1    1    2    0    0 -0.26947276889E+03 -0.14745258150E+03  0.85301422604E+02  0.35358990748E+03  0.15294330000E+03 0.  0.
<mgrwt>
<rscale>  0 0.60243393E+03</rscale>
<asrwt>0</asrwt>
<pdfrwt beam="1">  1        1 0.23584568E+00 0.72675171E+03</pdfrwt>
<pdfrwt beam="2">  1       -1 0.36102640E-01 0.72675171E+03</pdfrwt>
<totfact> 0.46978785E+01</totfact>
</mgrwt>
</event>
<event>
 4    5  0.7176259E-008  0.6799768E+03  0.7818608E-02  0.1009337E+00
          1   -1    0    0  501    0  0.00000000000E+00  0.00000000000E+00  0.55388307439E+03  0.55388307441E+03  0.50400000000E-02 0. -1.
         -1   -1    0    0    0  501 -0.00000000000E+00 -0.00000000000E+00 -0.70587975451E+03  0.70587975453E+03  0.50400000000E-02 0.  1.
    8880023    1    1    2    0    0  0.16263997413E+03 -0.45896744163E+02  0.30793474403E+03  0.74645313661E+03  0.65864270000E+03 0. -1.
    8880022    1    1    2    0    0 -0.16263997413E+03  0.45896744163E+02 -0.45993142415E+03  0.51330969233E+03  0.15294330000E+03 0.  0.
<mgrwt>
<rscale>  0 0.51739080E+03</rscale>
<asrwt>0</asrwt>
<pdfrwt beam="1">  1        1 0.85212781E-01 0.67997682E+03</pdfrwt>
<pdfrwt beam="2">  1       -1 0.10859689E+00 0.67997682E+03</pdfrwt>
<totfact> 0.31161066E+01</totfact>
</mgrwt>
</event>
<event>
 4    5  0.7176259E-008  0.7786663E+03  0.7818608E-02  0.9758979E-01
          1   -1    0    0  501    0  0.00000000000E+00  0.00000000000E+00  0.19753217501E+04  0.19753217501E+04  0.50400000000E-02 0. -1.
         -1   -1    0    0    0  501 -0.00000000000E+00 -0.00000000000E+00 -0.73661563512E+03  0.73661563514E+03  0.50400000000E-02 0.  1.
    8880023    1    1    2    0    0 -0.40583780858E+03  0.88355269417E+02  0.18210153477E+04  0.19805095514E+04  0.65864270000E+03 0.  0.
    8880022    1    1    2    0    0  0.40583780858E+03 -0.88355269417E+02 -0.58230923273E+03  0.73142783380E+03  0.15294330000E+03 0.  0.
<mgrwt>
<rscale>  0 0.67611187E+03</rscale>
<asrwt>0</asrwt>
<pdfrwt beam="1">  1        1 0.30389565E+00 0.77866629E+03</pdfrwt>
<pdfrwt beam="2">  1       -1 0.11332548E+00 0.77866629E+03</pdfrwt>
<totfact> 0.23069896E+00</totfact>
</mgrwt>
</event>
<event>
 4    5  0.7176259E-008  0.8483910E+03  0.7818608E-02  0.9614557E-01
         -1   -1    0    0    0  501 -0.00000000000E+00  0.00000000000E+00  0.27127389513E+03  0.27127389518E+03  0.50400000000E-02 0.  1.
          1   -1    0    0  501    0  0.00000000000E+00 -0.00000000000E+00 -0.23870898863E+04  0.23870898863E+04  0.50400000000E-02 0. -1.
    8880023    1    1    2    0    0 -0.52851299289E+03  0.81431760084E+02 -0.18636641379E+04  0.20476843850E+04  0.65864270000E+03 0. -1.
    8880022    1    1    2    0    0  0.52851299289E+03 -0.81431760084E+02 -0.25215185323E+03  0.61067939650E+03  0.15294330000E+03 0.  0.
<mgrwt>
<rscale>  0 0.76340165E+03</rscale>
<asrwt>0</asrwt>
<pdfrwt beam="1">  1        1 0.36724458E+00 0.84839102E+03</pdfrwt>
<pdfrwt beam="2">  1       -1 0.41734447E-01 0.84839102E+03</pdfrwt>
<totfact> 0.94671304E+00</totfact>
</mgrwt>
</event>
<event>
 4    5  0.7176259E-008  0.1755017E+04  0.7818608E-02  0.8747836E-01
         -1   -1    0    0    0  501 -0.00000000000E+00  0.00000000000E+00  0.27314289835E+04  0.27314289835E+04  0.50400000000E-02 0.  1.
          1   -1    0    0  501    0  0.00000000000E+00 -0.00000000000E+00 -0.22860992185E+04  0.22860992185E+04  0.50400000000E-02 0. -1.
    8880023    1    1    2    0    0 -0.13897612931E+04  0.84548084638E+03 -0.16170143699E+04  0.23863821974E+04  0.65864270000E+03 0.  0.
    8880022    1    1    2    0    0  0.13897612931E+04 -0.84548084638E+03  0.20623441349E+04  0.26311460045E+04  0.15294330000E+03 0.  0.
<mgrwt>
<rscale>  0 0.17239240E+04</rscale>
<asrwt>0</asrwt>
<pdfrwt beam="1">  1        1 0.35170757E+00 0.17550170E+04</pdfrwt>
<pdfrwt beam="2">  1       -1 0.42021984E+00 0.17550170E+04</pdfrwt>
<totfact> 0.89974819E-03</totfact>
</mgrwt>
</event>
<event>
 4    5  0.7176259E-008  0.6856003E+03  0.7818608E-02  0.1006318E+00
          1   -1    0    0  501    0  0.00000000000E+00  0.00000000000E+00  0.58127120697E+03  0.58127120699E+03  0.50400000000E-02 0. -1.
         -1   -1    0    0    0  501 -0.00000000000E+00 -0.00000000000E+00 -0.53266049565E+03  0.53266049567E+03  0.50400000000E-02 0.  1.
    8880023    1    1    2    0    0  0.70236526258E+02  0.17693052859E+03  0.31331188896E+03  0.75379846617E+03  0.65864270000E+03 0. -1.
    8880022    1    1    2    0    0 -0.70236526258E+02 -0.17693052859E+03 -0.26470117765E+03  0.36013323650E+03  0.15294330000E+03 0.  0.
<mgrwt>
<rscale>  0 0.52964595E+03</rscale>
<asrwt>0</asrwt>
<pdfrwt beam="1">  1        1 0.89426340E-01 0.68560031E+03</pdfrwt>
<pdfrwt beam="2">  1       -1 0.81947769E-01 0.68560031E+03</pdfrwt>
<totfact> 0.54559157E+01</totfact>
</mgrwt>
</event>
<event>
 4    5  0.7176259E-008  0.8008146E+03  0.7818608E-02  0.9709037E-01
         -1   -1    0    0    0  501 -0.00000000000E+00  0.00000000000E+00  0.86470470334E+03  0.86470470335E+03  0.50400000000E-02 0.  1.
          1   -1    0    0  501    0  0.00000000000E+00 -0.00000000000E+00 -0.86210449046E+03  0.86210449048E+03  0.50400000000E-02 0. -1.
    8880023    1    1    2    0    0  0.58208241795E+02  0.45178055237E+03 -0.56728634146E+03  0.98138568686E+03  0.65864270000E+03 0.  0.
    8880022    1    1    2    0    0 -0.58208241795E+02 -0.45178055237E+03  0.56988655434E+03  0.74542350697E+03  0.15294330000E+03 0.  0.
<mgrwt>
<rscale>  0 0.70481248E+03</rscale>
<asrwt>0</asrwt>
<pdfrwt beam="1">  1        1 0.13263146E+00 0.80081463E+03</pdfrwt>
<pdfrwt beam="2">  1       -1 0.13303149E+00 0.80081463E+03</pdfrwt>
<totfact> 0.95900102E+00</totfact>
</mgrwt>
</event>
<event>
 4    5  0.7896241E-008  0.8090209E+03  0.7818608E-02  0.9691620E-01
         -1   -1    0    0    0  501 -0.00000000000E+00  0.00000000000E+00  0.12095170024E+04  0.12095170024E+04  0.50400000000E-02 0.  1.
          1   -1    0    0  501    0  0.00000000000E+00 -0.00000000000E+00 -0.19777170222E+04  0.19777170222E+04  0.50400000000E-02 0. -1.
    8880023    1    1    2    0    0  0.39458788870E+03 -0.25496084976E+03 -0.18383761259E+04  0.20085172699E+04  0.65864270000E+03 0. -1.
    8880022    1    1    2    0    0 -0.39458788870E+03  0.25496084976E+03  0.10701761061E+04  0.11787167547E+04  0.15294330000E+03 0.  0.
<mgrwt>
<rscale>  0 0.71517934E+03</rscale>
<asrwt>0</asrwt>
<pdfrwt beam="1">  1        1 0.30426416E+00 0.80902092E+03</pdfrwt>
<pdfrwt beam="2">  1       -1 0.18607954E+00 0.80902092E+03</pdfrwt>
<totfact> 0.60928729E-01</totfact>
</mgrwt>
</event>
<event>
 4    5  0.7176259E-008  0.1534054E+04  0.7818608E-02  0.8885956E-01
         -1   -1    0    0    0  501 -0.00000000000E+00  0.00000000000E+00  0.17330730912E+04  0.17330730912E+04  0.50400000000E-02 0.  1.
          1   -1    0    0  501    0  0.00000000000E+00 -0.00000000000E+00 -0.20579822398E+04  0.20579822398E+04  0.50400000000E-02 0. -1.
    8880023    1    1    2    0    0  0.10871222820E+04  0.85888099297E+03 -0.13637864359E+04  0.20526166386E+04  0.65864270000E+03 0.  0.
    8880022    1    1    2    0    0 -0.10871222820E+04 -0.85888099297E+03  0.10388772873E+04  0.17384386924E+04  0.15294330000E+03 0.  0.
<mgrwt>
<rscale>  0 0.14977415E+04</rscale>
<asrwt>0</asrwt>
<pdfrwt beam="1">  1        1 0.31661265E+00 0.15340540E+04</pdfrwt>
<pdfrwt beam="2">  1       -1 0.26662663E+00 0.15340540E+04</pdfrwt>
<totfact> 0.13889302E-01</totfact>
</mgrwt>
</event>
<event>
 4    5  0.7176259E-008  0.7362327E+03  0.7818608E-02  0.9871060E-01
         -1   -1    0    0    0  501 -0.00000000000E+00  0.00000000000E+00  0.30458640232E+03  0.30458640236E+03  0.50400000000E-02 0.  1.
          1   -1    0    0  501    0  0.00000000000E+00 -0.00000000000E+00 -0.15249069639E+04  0.15249069640E+04  0.50400000000E-02 0. -1.
    8880023    1    1    2    0    0 -0.27505670771E+03 -0.18047766222E+03 -0.12653144976E+04  0.14639191792E+04  0.65864270000E+03 0. -1.
    8880022    1    1    2    0    0  0.27505670771E+03  0.18047766222E+03  0.44993935978E+02  0.36557418715E+03  0.15294330000E+03 0.  0.
<mgrwt>
<rscale>  0 0.61684575E+03</rscale>
<asrwt>0</asrwt>
<pdfrwt beam="1">  1        1 0.23460107E+00 0.73623270E+03</pdfrwt>
<pdfrwt beam="2">  1       -1 0.46859447E-01 0.73623270E+03</pdfrwt>
<totfact> 0.29506878E+01</totfact>
</mgrwt>
</event>
<event>
 4    5  0.7176259E-008  0.8485772E+03  0.7818608E-02  0.9614214E-01
          1   -1    0    0  501    0  0.00000000000E+00  0.00000000000E+00  0.13192686222E+04  0.13192686222E+04  0.50400000000E-02 0. -1.
         -1   -1    0    0    0  501 -0.00000000000E+00 -0.00000000000E+00 -0.41380566686E+03  0.41380566689E+03  0.50400000000E-02 0.  1.
    8880023    1    1    2    0    0 -0.52968455285E+03  0.75547389152E+02  0.27470946614E+03  0.89193532870E+03  0.65864270000E+03 0.  0.
    8880022    1    1    2    0    0  0.52968455285E+03 -0.75547389152E+02  0.63075348923E+03  0.84113896042E+03  0.15294330000E+03 0.  0.
<mgrwt>
<rscale>  0 0.76362478E+03</rscale>
<asrwt>0</asrwt>
<pdfrwt beam="1">  1        1 0.20296441E+00 0.84857724E+03</pdfrwt>
<pdfrwt beam="2">  1       -1 0.63662410E-01 0.84857724E+03</pdfrwt>
<totfact> 0.22365235E+01</totfact>
</mgrwt>
</event>
<event>
 4    5  0.7176259E-008  0.7247933E+03  0.7818608E-02  0.9906689E-01
          1   -1    0    0  501    0  0.00000000000E+00  0.00000000000E+00  0.24424983014E+03  0.24424983019E+03  0.50400000000E-02 0. -1.
         -1   -1    0    0    0  501 -0.00000000000E+00 -0.00000000000E+00 -0.22601229461E+04  0.22601229461E+04  0.50400000000E-02 0.  1.
    8880023    1    1    2    0    0 -0.29459671516E+03 -0.68759953065E+02 -0.35094566869E+03  0.80528766560E+03  0.65864270000E+03 0.  0.
    8880022    1    1    2    0    0  0.29459671516E+03  0.68759953065E+02 -0.16649274473E+04  0.16990851107E+04  0.15294330000E+03 0.  0.
<mgrwt>
<rscale>  0 0.59938222E+03</rscale>
<asrwt>0</asrwt>
<pdfrwt beam="1">  1        1 0.37576899E-01 0.72479332E+03</pdfrwt>
<pdfrwt beam="2">  1       -1 0.34771121E+00 0.72479332E+03</pdfrwt>
<totfact> 0.19578207E+00</totfact>
</mgrwt>
</event>
<event>
 4    5  0.7176259E-008  0.1708016E+04  0.7818608E-02  0.8775201E-01
          1   -1    0    0  501    0  0.00000000000E+00  0.00000000000E+00  0.24395415497E+04  0.24395415497E+04  0.50400000000E-02 0. -1.
         -1   -1    0    0    0  501 -0.00000000000E+00 -0.00000000000E+00 -0.14749029943E+04  0.14749029943E+04  0.50400000000E-02 0.  1.
    8880023    1    1    2    0    0  0.15471533357E+04 -0.29970873334E+03  0.14688912758E+04  0.22527673106E+04  0.65864270000E+03 0.  0.
    8880022    1    1    2    0    0 -0.15471533357E+04  0.29970873334E+03 -0.50425272051E+03  0.16616772334E+04  0.15294330000E+03 0.  0.
<mgrwt>
<rscale>  0 0.16759502E+04</rscale>
<asrwt>0</asrwt>
<pdfrwt beam="1">  1        1 0.37531408E+00 0.17080161E+04</pdfrwt>
<pdfrwt beam="2">  1       -1 0.22690815E+00 0.17080161E+04</pdfrwt>
<totfact> 0.13600894E-01</totfact>
</mgrwt>
</event>
<event>
 4    5  0.7176259E-008  0.1106399E+04  0.7818608E-02  0.9253965E-01
          1   -1    0    0  501    0  0.00000000000E+00  0.00000000000E+00  0.31261122387E+04  0.31261122388E+04  0.50400000000E-02 0. -1.
         -1   -1    0    0    0  501 -0.00000000000E+00 -0.00000000000E+00 -0.53898550248E+03  0.53898550251E+03  0.50400000000E-02 0.  1.
    8880023    1    1    2    0    0 -0.88891284499E+03 -0.11953242127E+02  0.25298750097E+04  0.27612292004E+04  0.65864270000E+03 0. -1.
    8880022    1    1    2    0    0  0.88891284499E+03  0.11953242127E+02  0.57251726558E+02  0.90386854088E+03  0.15294330000E+03 0.  0.
<mgrwt>
<rscale>  0 0.10513370E+04</rscale>
<asrwt>0</asrwt>
<pdfrwt beam="1">  1        1 0.48094035E+00 0.11063992E+04</pdfrwt>
<pdfrwt beam="2">  1       -1 0.82920846E-01 0.11063992E+04</pdfrwt>
<totfact> 0.70646007E-01</totfact>
</mgrwt>
</event>
<event>
 4    5  0.7176259E-008  0.7485492E+03  0.7818608E-02  0.9835709E-01
         -1   -1    0    0    0  501 -0.00000000000E+00  0.00000000000E+00  0.25564395821E+04  0.25564395821E+04  0.50400000000E-02 0.  1.
          1   -1    0    0  501    0  0.00000000000E+00 -0.00000000000E+00 -0.51326810180E+03  0.51326810183E+03  0.50400000000E-02 0. -1.
    8880023    1    1    2    0    0  0.31687602580E+03 -0.16157113168E+03 -0.21481823413E+03  0.77876358820E+03  0.65864270000E+03 0. -1.
    8880022    1    1    2    0    0 -0.31687602580E+03  0.16157113168E+03  0.22579897144E+04  0.22909440957E+04  0.15294330000E+03 0.  0.
<mgrwt>
<rscale>  0 0.63480903E+03</rscale>
<asrwt>0</asrwt>
<pdfrwt beam="1">  1        1 0.78964322E-01 0.74854917E+03</pdfrwt>
<pdfrwt beam="2">  1       -1 0.39329840E+00 0.74854917E+03</pdfrwt>
<totfact> 0.36455276E-01</totfact>
</mgrwt>
</event>
<event>
 4    5  0.7176259E-008  0.7776711E+03  0.7818608E-02  0.9761336E-01
          1   -1    0    0  501    0  0.00000000000E+00  0.00000000000E+00  0.22599650501E+04  0.22599650501E+04  0.50400000000E-02 0. -1.
         -1   -1    0    0    0  501 -0.00000000000E+00 -0.00000000000E+00 -0.31165014193E+03  0.31165014197E+03  0.50400000000E-02 0.  1.
    8880023    1    1    2    0    0 -0.41179099721E+03 -0.37285907431E+02  0.19823648273E+04  0.21294465429E+04  0.65864270000E+03 0.  0.
    8880022    1    1    2    0    0  0.41179099721E+03  0.37285907431E+02 -0.34049919171E+02  0.44216864914E+03  0.15294330000E+03 0.  0.
<mgrwt>
<rscale>  0 0.67479376E+03</rscale>
<asrwt>0</asrwt>
<pdfrwt beam="1">  1        1 0.34768692E+00 0.77767106E+03</pdfrwt>
<pdfrwt beam="2">  1       -1 0.47946177E-01 0.77767106E+03</pdfrwt>
<totfact> 0.90130857E+00</totfact>
</mgrwt>
</event>
<event>
 4    5  0.7176259E-008  0.1120460E+04  0.7818608E-02  0.9238611E-01
          1   -1    0    0  501    0  0.00000000000E+00  0.00000000000E+00  0.39414912733E+04  0.39414912733E+04  0.50400000000E-02 0. -1.
         -1   -1    0    0    0  501 -0.00000000000E+00 -0.00000000000E+00 -0.55441901553E+03  0.55441901555E+03  0.50400000000E-02 0.  1.
    8880023    1    1    2    0    0 -0.87175066424E+03 -0.24833832386E+03  0.33965785845E+04  0.35766153596E+04  0.65864270000E+03 0.  0.
    8880022    1    1    2    0    0  0.87175066424E+03  0.24833832386E+03 -0.95063267031E+01  0.91929492926E+03  0.15294330000E+03 0.  0.
<mgrwt>
<rscale>  0 0.10663635E+04</rscale>
<asrwt>0</asrwt>
<pdfrwt beam="1">  1        1 0.60638329E+00 0.11204603E+04</pdfrwt>
<pdfrwt beam="2">  1       -1 0.85295231E-01 0.11204603E+04</pdfrwt>
<totfact> 0.15091620E-01</totfact>
</mgrwt>
</event>
<event>
 4    5  0.7176259E-008  0.7193312E+03  0.7818608E-02  0.9924856E-01
         -1   -1    0    0    0  501 -0.00000000000E+00  0.00000000000E+00  0.51793211134E+03  0.51793211136E+03  0.50400000000E-02 0.  1.
          1   -1    0    0  501    0  0.00000000000E+00 -0.00000000000E+00 -0.24787333965E+04  0.24787333965E+04  0.50400000000E-02 0. -1.
    8880023    1    1    2    0    0 -0.28415681538E+03 -0.53684705706E+02 -0.23677056172E+04  0.24745640504E+04  0.65864270000E+03 0. -1.
    8880022    1    1    2    0    0  0.28415681538E+03  0.53684705706E+02  0.40690433211E+03  0.52210145743E+03  0.15294330000E+03 0.  0.
<mgrwt>
<rscale>  0 0.59071660E+03</rscale>
<asrwt>0</asrwt>
<pdfrwt beam="1">  1        1 0.38134359E+00 0.71933118E+03</pdfrwt>
<pdfrwt beam="2">  1       -1 0.79681865E-01 0.71933118E+03</pdfrwt>
<totfact> 0.23579147E+00</totfact>
</mgrwt>
</event>
<event>
 4    5  0.7176259E-008  0.1841446E+04  0.7818608E-02  0.8699950E-01
          1   -1    0    0  501    0  0.00000000000E+00  0.00000000000E+00  0.28451772913E+04  0.28451772913E+04  0.50400000000E-02 0. -1.
         -1   -1    0    0    0  501 -0.00000000000E+00 -0.00000000000E+00 -0.14245636353E+04  0.14245636353E+04  0.50400000000E-02 0.  1.
    8880023    1    1    2    0    0  0.45510085947E+03  0.16583111084E+04  0.17173889994E+04  0.25180047073E+04  0.65864270000E+03 0. -1.
    8880022    1    1    2    0    0 -0.45510085947E+03 -0.16583111084E+04 -0.29677534345E+03  0.17517362193E+04  0.15294330000E+03 0.  0.
<mgrwt>
<rscale>  0 0.18119885E+04</rscale>
<asrwt>0</asrwt>
<pdfrwt beam="1">  1        1 0.43771958E+00 0.18414458E+04</pdfrwt>
<pdfrwt beam="2">  1       -1 0.21916364E+00 0.18414458E+04</pdfrwt>
<totfact> 0.78280171E-02</totfact>
</mgrwt>
</event>
<event>
 4    5  0.7176259E-008  0.7057953E+03  0.7818608E-02  0.9973959E-01
          1   -1    0    0  501    0  0.00000000000E+00  0.00000000000E+00  0.62925794528E+03  0.62925794530E+03  0.50400000000E-02 0. -1.
         -1   -1    0    0    0  501 -0.00000000000E+00 -0.00000000000E+00 -0.40441557711E+03  0.40441557714E+03  0.50400000000E-02 0.  1.
    8880023    1    1    2    0    0  0.19394658267E+03 -0.16346727762E+03  0.21304630923E+03  0.73724878021E+03  0.65864270000E+03 0.  1.
    8880022    1    1    2    0    0 -0.19394658267E+03  0.16346727762E+03  0.11796058943E+02  0.29642474222E+03  0.15294330000E+03 0.  0.
<mgrwt>
<rscale>  0 0.56806974E+03</rscale>
<asrwt>0</asrwt>
<pdfrwt beam="1">  1        1 0.96808915E-01 0.70579532E+03</pdfrwt>
<pdfrwt beam="2">  1       -1 0.62217781E-01 0.70579532E+03</pdfrwt>
<totfact> 0.85603704E+01</totfact>
</mgrwt>
</event>
<event>
 4    5  0.7176259E-008  0.8720131E+03  0.7818608E-02  0.9572542E-01
         -1   -1    0    0    0  501 -0.00000000000E+00  0.00000000000E+00  0.44536551993E+03  0.44536551996E+03  0.50400000000E-02 0.  1.
          1   -1    0    0  501    0  0.00000000000E+00 -0.00000000000E+00 -0.20413862381E+04  0.20413862381E+04  0.50400000000E-02 0. -1.
    8880023    1    1    2    0    0 -0.46649928382E+03  0.33011360733E+03 -0.16764805735E+04  0.18897073570E+04  0.65864270000E+03 0. -1.
    8880022    1    1    2    0    0  0.46649928382E+03 -0.33011360733E+03  0.80459855299E+02  0.59704440109E+03  0.15294330000E+03 0.  0.
<mgrwt>
<rscale>  0 0.79140524E+03</rscale>
<asrwt>0</asrwt>
<pdfrwt beam="1">  1        1 0.31405942E+00 0.87201306E+03</pdfrwt>
<pdfrwt beam="2">  1       -1 0.68517773E-01 0.87201306E+03</pdfrwt>
<totfact> 0.61990731E+00</totfact>
</mgrwt>
</event>
<event>
 4    5  0.7732348E-008  0.8177376E+03  0.7818608E-02  0.9673680E-01
         -1   -1    0    0    0  501 -0.00000000000E+00  0.00000000000E+00  0.15420124484E+04  0.15420124484E+04  0.50400000000E-02 0.  1.
          1   -1    0    0  501    0  0.00000000000E+00 -0.00000000000E+00 -0.16227711790E+04  0.16227711790E+04  0.50400000000E-02 0. -1.
    8880023    1    1    2    0    0  0.48259049901E+03  0.44620346995E+02 -0.14718554215E+04  0.16837616081E+04  0.65864270000E+03 0. -1.
    8880022    1    1    2    0    0 -0.48259049901E+03 -0.44620346995E+02  0.13910966909E+04  0.14810220193E+04  0.15294330000E+03 0.  0.
<mgrwt>
<rscale>  0 0.72605752E+03</rscale>
<asrwt>0</asrwt>
<pdfrwt beam="1">  1        1 0.24965711E+00 0.81773759E+03</pdfrwt>
<pdfrwt beam="2">  1       -1 0.23723268E+00 0.81773759E+03</pdfrwt>
<totfact> 0.47617176E-01</totfact>
</mgrwt>
</event>
<event>
 4    5  0.7176259E-008  0.1096790E+04  0.7818608E-02  0.9264638E-01
         -1   -1    0    0    0  501 -0.00000000000E+00  0.00000000000E+00  0.98858909837E+03  0.98858909838E+03  0.50400000000E-02 0.  1.
          1   -1    0    0  501    0  0.00000000000E+00 -0.00000000000E+00 -0.32366488758E+04  0.32366488758E+04  0.50400000000E-02 0. -1.
    8880023    1    1    2    0    0  0.28042871004E+03 -0.83096259932E+03 -0.29139381279E+04  0.31135164561E+04  0.65864270000E+03 0. -1.
    8880022    1    1    2    0    0 -0.28042871004E+03  0.83096259932E+03  0.66587835055E+03  0.11117215180E+04  0.15294330000E+03 0.  0.
<mgrwt>
<rscale>  0 0.10410456E+04</rscale>
<asrwt>0</asrwt>
<pdfrwt beam="1">  1        1 0.49794598E+00 0.10967905E+04</pdfrwt>
<pdfrwt beam="2">  1       -1 0.15209063E+00 0.10967905E+04</pdfrwt>
<totfact> 0.13596127E-01</totfact>
</mgrwt>
</event>
<event>
 4    5  0.7176259E-008  0.7388422E+03  0.7818608E-02  0.9863332E-01
          1   -1    0    0  501    0  0.00000000000E+00  0.00000000000E+00  0.36263305816E+03  0.36263305819E+03  0.50400000000E-02 0. -1.
         -1   -1    0    0    0  501 -0.00000000000E+00 -0.00000000000E+00 -0.84474585996E+03  0.84474585998E+03  0.50400000000E-02 0.  1.
    8880023    1    1    2    0    0 -0.64892039326E+02 -0.32843062457E+03 -0.32680798937E+03  0.80789313656E+03  0.65864270000E+03 0.  0.
    8880022    1    1    2    0    0  0.64892039326E+02  0.32843062457E+03 -0.15530481243E+03  0.39948578161E+03  0.15294330000E+03 0. -1.
<mgrwt>
<rscale>  0 0.62071737E+03</rscale>
<asrwt>0</asrwt>
<pdfrwt beam="1">  1        1 0.55789701E-01 0.73884224E+03</pdfrwt>
<pdfrwt beam="2">  1       -1 0.12996090E+00 0.73884224E+03</pdfrwt>
<totfact> 0.35495378E+01</totfact>
</mgrwt>
</event>
<event>
 4    5  0.7176259E-008  0.9251504E+03  0.7818608E-02  0.9486807E-01
          1   -1    0    0  501    0  0.00000000000E+00  0.00000000000E+00  0.36363909288E+03  0.36363909292E+03  0.50400000000E-02 0. -1.
         -1   -1    0    0    0  501 -0.00000000000E+00 -0.00000000000E+00 -0.20719561757E+04  0.20719561757E+04  0.50400000000E-02 0.  1.
    8880023    1    1    2    0    0 -0.68779328614E+02  0.64603589365E+03 -0.49115577290E+03  0.10474431591E+04  0.65864270000E+03 0. -1.
    8880022    1    1    2    0    0  0.68779328614E+02 -0.64603589365E+03 -0.12171613099E+04  0.13881521095E+04  0.15294330000E+03 0.  0.
<mgrwt>
<rscale>  0 0.85263534E+03</rscale>
<asrwt>0</asrwt>
<pdfrwt beam="1">  1        1 0.55944477E-01 0.92515035E+03</pdfrwt>
<pdfrwt beam="2">  1       -1 0.31876248E+00 0.92515035E+03</pdfrwt>
<totfact> 0.17438088E+00</totfact>
</mgrwt>
</event>
<event>
 4    5  0.7176259E-008  0.1247176E+04  0.7818608E-02  0.9112574E-01
          1   -1    0    0  501    0  0.00000000000E+00  0.00000000000E+00  0.21567255854E+04  0.21567255854E+04  0.50400000000E-02 0. -1.
         -1   -1    0    0    0  501 -0.00000000000E+00 -0.00000000000E+00 -0.71117550963E+03  0.71117550965E+03  0.50400000000E-02 0.  1.
    8880023    1    1    2    0    0  0.89259094819E+03 -0.57001763132E+03  0.26585794342E+03  0.12751977702E+04  0.65864270000E+03 0.  1.
    8880022    1    1    2    0    0 -0.89259094819E+03  0.57001763132E+03  0.11796921323E+04  0.15927033248E+04  0.15294330000E+03 0.  0.
<mgrwt>
<rscale>  0 0.12003227E+04</rscale>
<asrwt>0</asrwt>
<pdfrwt beam="1">  1        1 0.33180394E+00 0.12471764E+04</pdfrwt>
<pdfrwt beam="2">  1       -1 0.10941162E+00 0.12471764E+04</pdfrwt>
<totfact> 0.17678072E+00</totfact>
</mgrwt>
</event>
<event>
 4    5  0.7176259E-008  0.6830348E+03  0.7818608E-02  0.1007657E+00
         -1   -1    0    0    0  501 -0.00000000000E+00  0.00000000000E+00  0.14868587431E+03  0.14868587440E+03  0.50400000000E-02 0.  1.
          1   -1    0    0  501    0  0.00000000000E+00 -0.00000000000E+00 -0.19580078005E+04  0.19580078005E+04  0.50400000000E-02 0. -1.
    8880023    1    1    2    0    0 -0.17882745137E+03 -0.27332401098E+02 -0.17248910542E+04  0.18552050217E+04  0.65864270000E+03 0.  0.
    8880022    1    1    2    0    0  0.17882745137E+03  0.27332401098E+02 -0.84430871983E+02  0.25148865317E+03  0.15294330000E+03 0.  0.
<mgrwt>
<rscale>  0 0.52416723E+03</rscale>
<asrwt>0</asrwt>
<pdfrwt beam="1">  1        1 0.30123195E+00 0.68303479E+03</pdfrwt>
<pdfrwt beam="2">  1       -1 0.22874751E-01 0.68303479E+03</pdfrwt>
<totfact> 0.53992829E+01</totfact>
</mgrwt>
</event>
<event>
 4    5  0.7176259E-008  0.8179984E+03  0.7818608E-02  0.9673151E-01
         -1   -1    0    0    0  501 -0.00000000000E+00  0.00000000000E+00  0.52573477088E+03  0.52573477091E+03  0.50400000000E-02 0.  1.
          1   -1    0    0  501    0  0.00000000000E+00 -0.00000000000E+00 -0.14466691827E+04  0.14466691827E+04  0.50400000000E-02 0. -1.
    8880023    1    1    2    0    0 -0.31196317464E+03 -0.37147030620E+03 -0.11527088996E+04  0.14134564812E+04  0.65864270000E+03 0. -1.
    8880022    1    1    2    0    0  0.31196317464E+03  0.37147030620E+03  0.23177448779E+03  0.55894747242E+03  0.15294330000E+03 0.  0.
<mgrwt>
<rscale>  0 0.72638105E+03</rscale>
<asrwt>0</asrwt>
<pdfrwt beam="1">  1        1 0.22256449E+00 0.81799842E+03</pdfrwt>
<pdfrwt beam="2">  1       -1 0.80882273E-01 0.81799842E+03</pdfrwt>
<totfact> 0.11155101E+01</totfact>
</mgrwt>
</event>
<event>
 4    5  0.7176259E-008  0.1327126E+04  0.7818608E-02  0.9042482E-01
         -1   -1    0    0    0  501 -0.00000000000E+00  0.00000000000E+00  0.85468712449E+03  0.85468712451E+03  0.50400000000E-02 0.  1.
          1   -1    0    0  501    0  0.00000000000E+00 -0.00000000000E+00 -0.24380133990E+04  0.24380133990E+04  0.50400000000E-02 0. -1.
    8880023    1    1    2    0    0  0.82831037853E+03  0.80084572967E+03 -0.16630938519E+04  0.21277084698E+04  0.65864270000E+03 0.  0.
    8880022    1    1    2    0    0 -0.82831037853E+03 -0.80084572967E+03  0.79767577354E+02  0.11649920538E+04  0.15294330000E+03 0.  0.
<mgrwt>
<rscale>  0 0.12838363E+04</rscale>
<asrwt>0</asrwt>
<pdfrwt beam="1">  1        1 0.37507898E+00 0.13271255E+04</pdfrwt>
<pdfrwt beam="2">  1       -1 0.13149033E+00 0.13271255E+04</pdfrwt>
<totfact> 0.71561261E-01</totfact>
</mgrwt>
</event>
<event>
 4    5  0.7176259E-008  0.9403729E+03  0.7818608E-02  0.9464103E-01
          1   -1    0    0  501    0  0.00000000000E+00  0.00000000000E+00  0.25708099198E+04  0.25708099198E+04  0.50400000000E-02 0. -1.
         -1   -1    0    0    0  501 -0.00000000000E+00 -0.00000000000E+00 -0.28927893351E+03  0.28927893355E+03  0.50400000000E-02 0.  1.
    8880023    1    1    2    0    0 -0.66406392233E+03 -0.97519696574E+02  0.83281689836E+03  0.12561389957E+04  0.65864270000E+03 0.  0.
    8880022    1    1    2    0    0  0.66406392233E+03  0.97519696574E+02  0.14487140879E+04  0.16039498576E+04  0.15294330000E+03 0.  0.
<mgrwt>
<rscale>  0 0.86982909E+03</rscale>
<asrwt>0</asrwt>
<pdfrwt beam="1">  1        1 0.39550922E+00 0.94037290E+03</pdfrwt>
<pdfrwt beam="2">  1       -1 0.44504451E-01 0.94037290E+03</pdfrwt>
<totfact> 0.62125041E+00</totfact>
</mgrwt>
</event>
<event>
 4    5  0.7176259E-008  0.7417597E+03  0.7818608E-02  0.9854851E-01
         -1   -1    0    0    0  501 -0.00000000000E+00  0.00000000000E+00  0.36723338418E+03  0.36723338422E+03  0.50400000000E-02 0.  1.
          1   -1    0    0  501    0  0.00000000000E+00 -0.00000000000E+00 -0.10540928037E+04  0.10540928037E+04  0.50400000000E-02 0. -1.
    8880023    1    1    2    0    0  0.19478775726E+03 -0.28009803297E+03 -0.73514249780E+03  0.10443380089E+04  0.65864270000E+03 0.  0.
    8880022    1    1    2    0    0 -0.19478775726E+03  0.28009803297E+03  0.48283078310E+02  0.37698817902E+03  0.15294330000E+03 0.  0.
<mgrwt>
<rscale>  0 0.62500208E+03</rscale>
<asrwt>0</asrwt>
<pdfrwt beam="1">  1        1 0.16216812E+00 0.74175965E+03</pdfrwt>
<pdfrwt beam="2">  1       -1 0.56497444E-01 0.74175965E+03</pdfrwt>
<totfact> 0.44697710E+01</totfact>
</mgrwt>
</event>
<event>
 4    5  0.7176259E-008  0.7161628E+03  0.7818608E-02  0.9935790E-01
         -1   -1    0    0    0  501 -0.00000000000E+00  0.00000000000E+00  0.41976892790E+03  0.41976892793E+03  0.50400000000E-02 0.  1.
          1   -1    0    0  501    0  0.00000000000E+00 -0.00000000000E+00 -0.75080983376E+03  0.75080983378E+03  0.50400000000E-02 0. -1.
    8880023    1    1    2    0    0 -0.75554075661E+02 -0.27087006934E+03 -0.43022629307E+03  0.83545429697E+03  0.65864270000E+03 0.  0.
    8880022    1    1    2    0    0  0.75554075661E+02  0.27087006934E+03  0.99185387209E+02  0.33512446474E+03  0.15294330000E+03 0.  0.
<mgrwt>
<rscale>  0 0.58557669E+03</rscale>
<asrwt>0</asrwt>
<pdfrwt beam="1">  1        1 0.11550921E+00 0.71616284E+03</pdfrwt>
<pdfrwt beam="2">  1       -1 0.64579835E-01 0.71616284E+03</pdfrwt>
<totfact> 0.60908843E+01</totfact>
</mgrwt>
</event>
<event>
 4    5  0.7176259E-008  0.6805042E+03  0.7818608E-02  0.1009040E+00
         -1   -1    0    0    0  501 -0.00000000000E+00  0.00000000000E+00  0.30177266690E+03  0.30177266694E+03  0.50400000000E-02 0.  1.
          1   -1    0    0  501    0  0.00000000000E+00 -0.00000000000E+00 -0.17859555244E+04  0.17859555244E+04  0.50400000000E-02 0. -1.
    8880023    1    1    2    0    0  0.47322758487E+02  0.16442735350E+03 -0.16629659795E+04  0.17968143625E+04  0.65864270000E+03 0. -1.
    8880022    1    1    2    0    0 -0.47322758487E+02 -0.16442735350E+03  0.17878312204E+03  0.29091382881E+03  0.15294330000E+03 0.  0.
<mgrwt>
<rscale>  0 0.51858017E+03</rscale>
<asrwt>0</asrwt>
<pdfrwt beam="1">  1        1 0.27476238E+00 0.68050423E+03</pdfrwt>
<pdfrwt beam="2">  1       -1 0.46426565E-01 0.68050423E+03</pdfrwt>
<totfact> 0.20171315E+01</totfact>
</mgrwt>
</event>
<event>
 4    5  0.9859294E-008  0.1019347E+04  0.7818608E-02  0.9356672E-01
          1   -1    0    0  501    0  0.00000000000E+00  0.00000000000E+00  0.25920339291E+04  0.25920339291E+04  0.50400000000E-02 0. -1.
         -1   -1    0    0    0  501 -0.00000000000E+00 -0.00000000000E+00 -0.84326779062E+03  0.84326779064E+03  0.50400000000E-02 0.  1.
    8880023    1    1    2    0    0 -0.26719079697E+03 -0.73066244299E+03  0.22686826117E+04  0.24871649576E+04  0.65864270000E+03 0. -1.
    8880022    1    1    2    0    0  0.26719079697E+03  0.73066244299E+03 -0.51991647320E+03  0.94813676213E+03  0.15294330000E+03 0.  0.
<mgrwt>
<rscale>  0 0.95728826E+03</rscale>
<asrwt>0</asrwt>
<pdfrwt beam="1">  1        1 0.39877445E+00 0.10193472E+04</pdfrwt>
<pdfrwt beam="2">  1       -1 0.12973351E+00 0.10193472E+04</pdfrwt>
<totfact> 0.60571148E-01</totfact>
</mgrwt>
</event>
<event>
 4    5  0.7176259E-008  0.7290672E+03  0.7818608E-02  0.9893021E-01
          1   -1    0    0  501    0  0.00000000000E+00  0.00000000000E+00  0.12466906499E+04  0.12466906499E+04  0.50400000000E-02 0. -1.
         -1   -1    0    0    0  501 -0.00000000000E+00 -0.00000000000E+00 -0.33740930957E+03  0.33740930961E+03  0.50400000000E-02 0.  1.
    8880023    1    1    2    0    0 -0.13192601931E+03  0.28341548140E+03  0.98742142927E+03  0.12274119500E+04  0.65864270000E+03 0.  1.
    8880022    1    1    2    0    0  0.13192601931E+03 -0.28341548140E+03 -0.78140088916E+02  0.35668800958E+03  0.15294330000E+03 0.  0.
<mgrwt>
<rscale>  0 0.60600732E+03</rscale>
<asrwt>0</asrwt>
<pdfrwt beam="1">  1        1 0.19179856E+00 0.72906722E+03</pdfrwt>
<pdfrwt beam="2">  1       -1 0.51909124E-01 0.72906722E+03</pdfrwt>
<totfact> 0.38032095E+01</totfact>
</mgrwt>
</event>
<event>
 4    5  0.7176259E-008  0.6965015E+03  0.7818608E-02  0.1001204E+00
          1   -1    0    0  501    0  0.00000000000E+00  0.00000000000E+00  0.57351979560E+03  0.57351979562E+03  0.50400000000E-02 0. -1.
         -1   -1    0    0    0  501 -0.00000000000E+00 -0.00000000000E+00 -0.57954824599E+03  0.57954824602E+03  0.50400000000E-02 0.  1.
    8880023    1    1    2    0    0  0.19472275399E+03 -0.11570292963E+03  0.28614690214E+03  0.75299028859E+03  0.65864270000E+03 0.  0.
    8880022    1    1    2    0    0 -0.19472275399E+03  0.11570292963E+03 -0.29217535253E+03  0.40007775305E+03  0.15294330000E+03 0.  0.
<mgrwt>
<rscale>  0 0.55125627E+03</rscale>
<asrwt>0</asrwt>
<pdfrwt beam="1">  1        1 0.88233815E-01 0.69650149E+03</pdfrwt>
<pdfrwt beam="2">  1       -1 0.89161269E-01 0.69650149E+03</pdfrwt>
<totfact> 0.46291131E+01</totfact>
</mgrwt>
</event>
<event>
 4    5  0.7176259E-008  0.1225168E+04  0.7818608E-02  0.9133037E-01
          1   -1    0    0  501    0  0.00000000000E+00  0.00000000000E+00  0.68698103758E+03  0.68698103760E+03  0.50400000000E-02 0. -1.
         -1   -1    0    0    0  501 -0.00000000000E+00 -0.00000000000E+00 -0.27319207276E+04  0.27319207276E+04  0.50400000000E-02 0.  1.
    8880023    1    1    2    0    0  0.78764406451E+03  0.66846396409E+03 -0.12270307805E+03  0.12312974845E+04  0.65864270000E+03 0.  0.
    8880022    1    1    2    0    0 -0.78764406451E+03 -0.66846396409E+03 -0.19222366119E+04  0.21876042807E+04  0.15294330000E+03 0.  0.
<mgrwt>
<rscale>  0 0.11772154E+04</rscale>
<asrwt>0</asrwt>
<pdfrwt beam="1">  1        1 0.10568939E+00 0.12251683E+04</pdfrwt>
<pdfrwt beam="2">  1       -1 0.42029549E+00 0.12251683E+04</pdfrwt>
<totfact> 0.14427891E-01</totfact>
</mgrwt>
</event>
<event>
 4    5  0.7176259E-008  0.9246549E+03  0.7818608E-02  0.9487558E-01
         -1   -1    0    0    0  501 -0.00000000000E+00  0.00000000000E+00  0.11145271192E+04  0.11145271192E+04  0.50400000000E-02 0.  1.
          1   -1    0    0  501    0  0.00000000000E+00 -0.00000000000E+00 -0.12075340713E+04  0.12075340713E+04  0.50400000000E-02 0. -1.
    8880023    1    1    2    0    0 -0.52214800784E+03 -0.38540612308E+03 -0.88969498310E+03  0.12831772251E+04  0.65864270000E+03 0. -1.
    8880022    1    1    2    0    0  0.52214800784E+03  0.38540612308E+03  0.79668803101E+03  0.10388839654E+04  0.15294330000E+03 0.  0.
<mgrwt>
<rscale>  0 0.85207344E+03</rscale>
<asrwt>0</asrwt>
<pdfrwt beam="1">  1        1 0.18577447E+00 0.92465487E+03</pdfrwt>
<pdfrwt beam="2">  1       -1 0.17146571E+00 0.92465487E+03</pdfrwt>
<totfact> 0.25686878E+00</totfact>
</mgrwt>
</event>
<event>
 4    5  0.7176259E-008  0.8342587E+03  0.7818608E-02  0.9641103E-01
         -1   -1    0    0    0  501 -0.00000000000E+00  0.00000000000E+00  0.28334228367E+04  0.28334228367E+04  0.50400000000E-02 0.  1.
          1   -1    0    0  501    0  0.00000000000E+00 -0.00000000000E+00 -0.11597035691E+04  0.11597035691E+04  0.50400000000E-02 0. -1.
    8880023    1    1    2    0    0 -0.38151657249E+03 -0.34150022470E+03 -0.97950003159E+03  0.12866265257E+04  0.65864270000E+03 0. -1.
    8880022    1    1    2    0    0  0.38151657249E+03  0.34150022470E+03  0.26532192992E+04  0.27064998801E+04  0.15294330000E+03 0.  0.
<mgrwt>
<rscale>  0 0.74634463E+03</rscale>
<asrwt>0</asrwt>
<pdfrwt beam="1">  1        1 0.17841593E+00 0.83425866E+03</pdfrwt>
<pdfrwt beam="2">  1       -1 0.43591121E+00 0.83425866E+03</pdfrwt>
<totfact> 0.49358238E-02</totfact>
</mgrwt>
</event>
<event>
 4    5  0.7176259E-008  0.1070679E+04  0.7818608E-02  0.9294426E-01
          1   -1    0    0  501    0  0.00000000000E+00  0.00000000000E+00  0.21122491133E+04  0.21122491133E+04  0.50400000000E-02 0. -1.
         -1   -1    0    0    0  501 -0.00000000000E+00 -0.00000000000E+00 -0.71794432666E+03  0.71794432668E+03  0.50400000000E-02 0.  1.
    8880023    1    1    2    0    0  0.83579943603E+03  0.11824673325E+03  0.16211860600E+04  0.19428323228E+04  0.65864270000E+03 0. -1.
    8880022    1    1    2    0    0 -0.83579943603E+03 -0.11824673325E+03 -0.22688127328E+03  0.88736111723E+03  0.15294330000E+03 0.  0.
<mgrwt>
<rscale>  0 0.10129764E+04</rscale>
<asrwt>0</asrwt>
<pdfrwt beam="1">  1        1 0.32496140E+00 0.10706788E+04</pdfrwt>
<pdfrwt beam="2">  1       -1 0.11045297E+00 0.10706788E+04</pdfrwt>
<totfact> 0.18941909E+00</totfact>
</mgrwt>
</event>
<event>
 4    5  0.7176259E-008  0.1909206E+04  0.7818608E-02  0.8664417E-01
         -1   -1    0    0    0  501 -0.00000000000E+00  0.00000000000E+00  0.16859305382E+04  0.16859305382E+04  0.50400000000E-02 0.  1.
          1   -1    0    0  501    0  0.00000000000E+00 -0.00000000000E+00 -0.23277472230E+04  0.23277472230E+04  0.50400000000E-02 0. -1.
    8880023    1    1    2    0    0  0.51706326314E+03  0.17157808768E+04 -0.10364260550E+04  0.21723829333E+04  0.65864270000E+03 0.  0.
    8880022    1    1    2    0    0 -0.51706326314E+03 -0.17157808768E+04  0.39460937025E+03  0.18412948279E+04  0.15294330000E+03 0.  0.
<mgrwt>
<rscale>  0 0.18809102E+04</rscale>
<asrwt>0</asrwt>
<pdfrwt beam="1">  1        1 0.35811496E+00 0.19092063E+04</pdfrwt>
<pdfrwt beam="2">  1       -1 0.25937393E+00 0.19092063E+04</pdfrwt>
<totfact> 0.97102869E-02</totfact>
</mgrwt>
</event>
<event>
 4    5  0.7176259E-008  0.1196943E+04  0.7818608E-02  0.9160100E-01
          1   -1    0    0  501    0  0.00000000000E+00  0.00000000000E+00  0.20399224283E+04  0.20399224283E+04  0.50400000000E-02 0. -1.
         -1   -1    0    0    0  501 -0.00000000000E+00 -0.00000000000E+00 -0.81155648077E+03  0.81155648079E+03  0.50400000000E-02 0.  1.
    8880023    1    1    2    0    0  0.99910974106E+03  0.25334755151E+02 -0.78088067652E+02  0.11994874226E+04  0.65864270000E+03 0.  0.
    8880022    1    1    2    0    0 -0.99910974106E+03 -0.25334755151E+02  0.13064540152E+04  0.16519914864E+04  0.15294330000E+03 0.  0.
<mgrwt>
<rscale>  0 0.11474927E+04</rscale>
<asrwt>0</asrwt>
<pdfrwt beam="1">  1        1 0.31383422E+00 0.11969429E+04</pdfrwt>
<pdfrwt beam="2">  1       -1 0.12485484E+00 0.11969429E+04</pdfrwt>
<totfact> 0.15476252E+00</totfact>
</mgrwt>
</event>
<event>
 4    5  0.7176259E-008  0.2304262E+04  0.7818608E-02  0.8485368E-01
          1   -1    0    0  501    0  0.00000000000E+00  0.00000000000E+00  0.25306824058E+04  0.25306824058E+04  0.50400000000E-02 0. -1.
         -1   -1    0    0    0  501 -0.00000000000E+00 -0.00000000000E+00 -0.28675371365E+04  0.28675371365E+04  0.50400000000E-02 0.  1.
    8880023    1    1    2    0    0  0.22056596048E+04  0.10430655575E+03  0.12996609275E+04  0.26455137275E+04  0.65864270000E+03 0.  0.
    8880022    1    1    2    0    0 -0.22056596048E+04 -0.10430655575E+03 -0.16365156582E+04  0.27527058147E+04  0.15294330000E+03 0.  0.
<mgrwt>
<rscale>  0 0.22812067E+04</rscale>
<asrwt>0</asrwt>
<pdfrwt beam="1">  1        1 0.38933575E+00 0.23042622E+04</pdfrwt>
<pdfrwt beam="2">  1       -1 0.44115956E+00 0.23042622E+04</pdfrwt>
<totfact> 0.40886598E-03</totfact>
</mgrwt>
</event>
<event>
 4    5  0.7176259E-008  0.8184389E+03  0.7818608E-02  0.9672260E-01
         -1   -1    0    0    0  501 -0.00000000000E+00  0.00000000000E+00  0.10701158544E+04  0.10701158544E+04  0.50400000000E-02 0.  1.
          1   -1    0    0  501    0  0.00000000000E+00 -0.00000000000E+00 -0.10627384387E+04  0.10627384387E+04  0.50400000000E-02 0. -1.
    8880023    1    1    2    0    0 -0.47390575791E+03 -0.10698268918E+03 -0.82174217279E+03  0.11597854836E+04  0.65864270000E+03 0. -1.
    8880022    1    1    2    0    0  0.47390575791E+03  0.10698268918E+03  0.82911958848E+03  0.97306880958E+03  0.15294330000E+03 0.  0.
<mgrwt>
<rscale>  0 0.72692712E+03</rscale>
<asrwt>0</asrwt>
<pdfrwt beam="1">  1        1 0.16349822E+00 0.81843886E+03</pdfrwt>
<pdfrwt beam="2">  1       -1 0.16463321E+00 0.81843886E+03</pdfrwt>
<totfact> 0.37509438E+00</totfact>
</mgrwt>
</event>
<event>
 4    5  0.7176259E-008  0.7462009E+03  0.7818608E-02  0.9842239E-01
          1   -1    0    0  501    0  0.00000000000E+00  0.00000000000E+00  0.12667662577E+04  0.12667662577E+04  0.50400000000E-02 0. -1.
         -1   -1    0    0    0  501 -0.00000000000E+00 -0.00000000000E+00 -0.78592910551E+03  0.78592910553E+03  0.50400000000E-02 0.  1.
    8880023    1    1    2    0    0 -0.34835777874E+03  0.40649255829E+02  0.10973967117E+04  0.13270626410E+04  0.65864270000E+03 0. -1.
    8880022    1    1    2    0    0  0.34835777874E+03 -0.40649255829E+02 -0.61655955957E+03  0.72563272219E+03  0.15294330000E+03 0.  0.
<mgrwt>
<rscale>  0 0.63144188E+03</rscale>
<asrwt>0</asrwt>
<pdfrwt beam="1">  1        1 0.19488711E+00 0.74620085E+03</pdfrwt>
<pdfrwt beam="2">  1       -1 0.12091217E+00 0.74620085E+03</pdfrwt>
<totfact> 0.60313123E+00</totfact>
</mgrwt>
</event>
<event>
 4    5  0.7176259E-008  0.6919426E+03  0.7818608E-02  0.1003243E+00
          1   -1    0    0  501    0  0.00000000000E+00  0.00000000000E+00  0.16985608397E+04  0.16985608398E+04  0.50400000000E-02 0. -1.
         -1   -1    0    0    0  501 -0.00000000000E+00 -0.00000000000E+00 -0.86909866505E+03  0.86909866507E+03  0.50400000000E-02 0.  1.
    8880023    1    1    2    0    0  0.21194584113E+03  0.73020893469E+01  0.16057662613E+04  0.17485050335E+04  0.65864270000E+03 0. -1.
    8880022    1    1    2    0    0 -0.21194584113E+03 -0.73020893469E+01 -0.77630408656E+03  0.81915447134E+03  0.15294330000E+03 0.  0.
<mgrwt>
<rscale>  0 0.54250980E+03</rscale>
<asrwt>0</asrwt>
<pdfrwt beam="1">  1        1 0.26131705E+00 0.69194260E+03</pdfrwt>
<pdfrwt beam="2">  1       -1 0.13370749E+00 0.69194260E+03</pdfrwt>
<totfact> 0.23925667E+00</totfact>
</mgrwt>
</event>
<event>
 4    5  0.7176259E-008  0.1037821E+04  0.7818608E-02  0.9333667E-01
         -1   -1    0    0    0  501 -0.00000000000E+00  0.00000000000E+00  0.10594768922E+04  0.10594768922E+04  0.50400000000E-02 0.  1.
          1   -1    0    0  501    0  0.00000000000E+00 -0.00000000000E+00 -0.10762724123E+04  0.10762724123E+04  0.50400000000E-02 0. -1.
    8880023    1    1    2    0    0  0.28578458065E+02  0.80152744721E+03  0.51779207455E+03  0.11598197341E+04  0.65864270000E+03 0.  0.
    8880022    1    1    2    0    0 -0.28578458065E+02 -0.80152744721E+03 -0.53458759468E+03  0.97592957036E+03  0.15294330000E+03 0.  0.
<mgrwt>
<rscale>  0 0.97741628E+03</rscale>
<asrwt>0</asrwt>
<pdfrwt beam="1">  1        1 0.16558037E+00 0.10378214E+04</pdfrwt>
<pdfrwt beam="2">  1       -1 0.16299645E+00 0.10378214E+04</pdfrwt>
<totfact> 0.36604771E+00</totfact>
</mgrwt>
</event>
<event>
 4    5  0.7176259E-008  0.6925179E+03  0.7818608E-02  0.1002978E+00
         -1   -1    0    0    0  501 -0.00000000000E+00  0.00000000000E+00  0.19550538879E+03  0.19550538886E+03  0.50400000000E-02 0.  1.
          1   -1    0    0  501    0  0.00000000000E+00 -0.00000000000E+00 -0.13618854018E+04  0.13618854018E+04  0.50400000000E-02 0. -1.
    8880023    1    1    2    0    0  0.19358174629E+03 -0.91087327655E+02 -0.10754441334E+04  0.12791251244E+04  0.65864270000E+03 0.  0.
    8880022    1    1    2    0    0 -0.19358174629E+03  0.91087327655E+02 -0.90935879601E+02  0.27826566617E+03  0.15294330000E+03 0.  0.
<mgrwt>
<rscale>  0 0.54363453E+03</rscale>
<asrwt>0</asrwt>
<pdfrwt beam="1">  1        1 0.20952082E+00 0.69251787E+03</pdfrwt>
<pdfrwt beam="2">  1       -1 0.30077753E-01 0.69251787E+03</pdfrwt>
<totfact> 0.85361423E+01</totfact>
</mgrwt>
</event>
<event>
 4    5  0.7176259E-008  0.1058506E+04  0.7818608E-02  0.9308725E-01
          1   -1    0    0  501    0  0.00000000000E+00  0.00000000000E+00  0.14393765297E+04  0.14393765297E+04  0.50400000000E-02 0. -1.
         -1   -1    0    0    0  501 -0.00000000000E+00 -0.00000000000E+00 -0.80640688788E+03  0.80640688789E+03  0.50400000000E-02 0.  1.
    8880023    1    1    2    0    0  0.59240213709E+03  0.57938281869E+03  0.87032704135E+03  0.13703664137E+04  0.65864270000E+03 0. -1.
    8880022    1    1    2    0    0 -0.59240213709E+03 -0.57938281869E+03 -0.23735739952E+03  0.87541700391E+03  0.15294330000E+03 0.  1.
<mgrwt>
<rscale>  0 0.99983547E+03</rscale>
<asrwt>0</asrwt>
<pdfrwt beam="1">  1        1 0.22144254E+00 0.10585060E+04</pdfrwt>
<pdfrwt beam="2">  1       -1 0.12406260E+00 0.10585060E+04</pdfrwt>
<totfact> 0.41019918E+00</totfact>
</mgrwt>
</event>
<event>
 4    5  0.7176259E-008  0.1623285E+04  0.7818608E-02  0.8827154E-01
          1   -1    0    0  501    0  0.00000000000E+00  0.00000000000E+00  0.24154555492E+04  0.24154555492E+04  0.50400000000E-02 0. -1.
         -1   -1    0    0    0  501 -0.00000000000E+00 -0.00000000000E+00 -0.12786545772E+04  0.12786545772E+04  0.50400000000E-02 0.  1.
    8880023    1    1    2    0    0 -0.11691525545E+04  0.91341455727E+03 -0.26791042906E+03  0.16452446789E+04  0.65864270000E+03 0.  0.
    8880022    1    1    2    0    0  0.11691525545E+04 -0.91341455727E+03  0.14047114010E+04  0.20488654476E+04  0.15294330000E+03 0.  0.
<mgrwt>
<rscale>  0 0.15892910E+04</rscale>
<asrwt>0</asrwt>
<pdfrwt beam="1">  1        1 0.37160855E+00 0.16232850E+04</pdfrwt>
<pdfrwt beam="2">  1       -1 0.19671609E+00 0.16232850E+04</pdfrwt>
<totfact> 0.22920509E-01</totfact>
</mgrwt>
</event>
<event>
 4    5  0.7176259E-008  0.1509050E+04  0.7818608E-02  0.8903271E-01
         -1   -1    0    0    0  501 -0.00000000000E+00  0.00000000000E+00  0.10933894946E+04  0.10933894946E+04  0.50400000000E-02 0.  1.
          1   -1    0    0  501    0  0.00000000000E+00 -0.00000000000E+00 -0.31957329600E+04  0.31957329600E+04  0.50400000000E-02 0. -1.
    8880023    1    1    2    0    0 -0.26353612406E+03  0.13319052613E+04 -0.24516556296E+04  0.28788623528E+04  0.65864270000E+03 0.  0.
    8880022    1    1    2    0    0  0.26353612406E+03 -0.13319052613E+04  0.34931216420E+03  0.14102601018E+04  0.15294330000E+03 0.  0.
<mgrwt>
<rscale>  0 0.14720259E+04</rscale>
<asrwt>0</asrwt>
<pdfrwt beam="1">  1        1 0.49165122E+00 0.15090504E+04</pdfrwt>
<pdfrwt beam="2">  1       -1 0.16821377E+00 0.15090504E+04</pdfrwt>
<totfact> 0.10322010E-01</totfact>
</mgrwt>
</event>
<event>
 4    5  0.7176259E-008  0.6813046E+03  0.7818608E-02  0.1008595E+00
          1   -1    0    0  501    0  0.00000000000E+00  0.00000000000E+00  0.34940411368E+03  0.34940411372E+03  0.50400000000E-02 0. -1.
         -1   -1    0    0    0  501 -0.00000000000E+00 -0.00000000000E+00 -0.94995319863E+03  0.94995319864E+03  0.50400000000E-02 0.  1.
    8880023    1    1    2    0    0  0.16231929858E+03 -0.63388997053E+02 -0.28266232052E+02  0.68189068462E+03  0.65864270000E+03 0. -1.
    8880022    1    1    2    0    0 -0.16231929858E+03  0.63388997053E+02 -0.57228285289E+03  0.61746662773E+03  0.15294330000E+03 0.  0.
<mgrwt>
<rscale>  0 0.52036818E+03</rscale>
<asrwt>0</asrwt>
<pdfrwt beam="1">  1        1 0.53754479E-01 0.68130458E+03</pdfrwt>
<pdfrwt beam="2">  1       -1 0.14614664E+00 0.68130458E+03</pdfrwt>
<totfact> 0.27681293E+01</totfact>
</mgrwt>
</event>
<event>
 4    5  0.7176259E-008  0.8826277E+03  0.7818608E-02  0.9554516E-01
          1   -1    0    0  501    0  0.00000000000E+00  0.00000000000E+00  0.36006715620E+04  0.36006715620E+04  0.50400000000E-02 0. -1.
         -1   -1    0    0    0  501 -0.00000000000E+00 -0.00000000000E+00 -0.35585298423E+03  0.35585298427E+03  0.50400000000E-02 0.  1.
    8880023    1    1    2    0    0  0.37423981079E+03 -0.45295255689E+03  0.32308356662E+04  0.33492283833E+04  0.65864270000E+03 0. -1.
    8880022    1    1    2    0    0 -0.37423981079E+03  0.45295255689E+03  0.13982911529E+02  0.60729616301E+03  0.15294330000E+03 0.  0.
<mgrwt>
<rscale>  0 0.80381205E+03</rscale>
<asrwt>0</asrwt>
<pdfrwt beam="1">  1        1 0.55394947E+00 0.88262770E+03</pdfrwt>
<pdfrwt beam="2">  1       -1 0.54746613E-01 0.88262770E+03</pdfrwt>
<totfact> 0.74599748E-01</totfact>
</mgrwt>
</event>
<event>
 4    5  0.7176259E-008  0.6871662E+03  0.7818608E-02  0.1005530E+00
          1   -1    0    0  501    0  0.00000000000E+00  0.00000000000E+00  0.13431964883E+04  0.13431964884E+04  0.50400000000E-02 0. -1.
         -1   -1    0    0    0  501 -0.00000000000E+00 -0.00000000000E+00 -0.73895038937E+03  0.73895038938E+03  0.50400000000E-02 0.  1.
    8880023    1    1    2    0    0  0.16799886405E+03 -0.10081433519E+03  0.12299454927E+04  0.14088872452E+04  0.65864270000E+03 0. -1.
    8880022    1    1    2    0    0 -0.16799886405E+03  0.10081433519E+03 -0.62569939370E+03  0.67325963253E+03  0.15294330000E+03 0.  0.
<mgrwt>
<rscale>  0 0.53290681E+03</rscale>
<asrwt>0</asrwt>
<pdfrwt beam="1">  1        1 0.20664561E+00 0.68716618E+03</pdfrwt>
<pdfrwt beam="2">  1       -1 0.11368468E+00 0.68716618E+03</pdfrwt>
<totfact> 0.62409574E+00</totfact>
</mgrwt>
</event>
<event>
 4    5  0.7176259E-008  0.7799510E+03  0.7818608E-02  0.9755952E-01
          1   -1    0    0  501    0  0.00000000000E+00  0.00000000000E+00  0.92258728969E+03  0.92258728971E+03  0.50400000000E-02 0. -1.
         -1   -1    0    0    0  501 -0.00000000000E+00 -0.00000000000E+00 -0.15010913429E+04  0.15010913429E+04  0.50400000000E-02 0.  1.
    8880023    1    1    2    0    0  0.18941043415E+03 -0.37233997816E+03  0.71359668672E+03  0.10571394466E+04  0.65864270000E+03 0.  0.
    8880022    1    1    2    0    0 -0.18941043415E+03  0.37233997816E+03 -0.12921007399E+04  0.13665391860E+04  0.15294330000E+03 0.  0.
<mgrwt>
<rscale>  0 0.67780941E+03</rscale>
<asrwt>0</asrwt>
<pdfrwt beam="1">  1        1 0.14193651E+00 0.77995101E+03</pdfrwt>
<pdfrwt beam="2">  1       -1 0.23093713E+00 0.77995101E+03</pdfrwt>
<totfact> 0.16890204E+00</totfact>
</mgrwt>
</event>
<event>
 4    5  0.7207099E-008  0.9166856E+03  0.7818608E-02  0.9499760E-01
          1   -1    0    0  501    0  0.00000000000E+00  0.00000000000E+00  0.20807680589E+04  0.20807680589E+04  0.50400000000E-02 0. -1.
         -1   -1    0    0    0  501 -0.00000000000E+00 -0.00000000000E+00 -0.87540673572E+03  0.87540673573E+03  0.50400000000E-02 0.  1.
    8880023    1    1    2    0    0  0.61890989983E+03  0.15314310714E+03  0.18324247619E+04  0.20489248375E+04  0.65864270000E+03 0.  0.
    8880022    1    1    2    0    0 -0.61890989983E+03 -0.15314310714E+03 -0.62706343878E+03  0.90724995709E+03  0.15294330000E+03 0.  0.
<mgrwt>
<rscale>  0 0.84301532E+03</rscale>
<asrwt>0</asrwt>
<pdfrwt beam="1">  1        1 0.32011816E+00 0.91668560E+03</pdfrwt>
<pdfrwt beam="2">  1       -1 0.13467796E+00 0.91668560E+03</pdfrwt>
<totfact> 0.12485594E+00</totfact>
</mgrwt>
</event>
<event>
 4    5  0.7176259E-008  0.1065078E+04  0.7818608E-02  0.9300971E-01
         -1   -1    0    0    0  501 -0.00000000000E+00  0.00000000000E+00  0.46420832596E+03  0.46420832598E+03  0.50400000000E-02 0.  1.
          1   -1    0    0  501    0  0.00000000000E+00 -0.00000000000E+00 -0.23732017607E+04  0.23732017607E+04  0.50400000000E-02 0. -1.
    8880023    1    1    2    0    0  0.67461478551E+03  0.49545515421E+03 -0.16200885818E+04  0.19388342214E+04  0.65864270000E+03 0. -1.
    8880022    1    1    2    0    0 -0.67461478551E+03 -0.49545515421E+03 -0.28890485288E+03  0.89857586530E+03  0.15294330000E+03 0.  0.
<mgrwt>
<rscale>  0 0.10069347E+04</rscale>
<asrwt>0</asrwt>
<pdfrwt beam="1">  1        1 0.36510796E+00 0.10650780E+04</pdfrwt>
<pdfrwt beam="2">  1       -1 0.71416667E-01 0.10650780E+04</pdfrwt>
<totfact> 0.33077778E+00</totfact>
</mgrwt>
</event>
<event>
 4    5  0.7176259E-008  0.1147671E+04  0.7818608E-02  0.9209748E-01
         -1   -1    0    0    0  501 -0.00000000000E+00  0.00000000000E+00  0.81243835751E+03  0.81243835752E+03  0.50400000000E-02 0.  1.
          1   -1    0    0  501    0  0.00000000000E+00 -0.00000000000E+00 -0.18012686342E+04  0.18012686342E+04  0.50400000000E-02 0. -1.
    8880023    1    1    2    0    0 -0.93985768653E+03  0.26592283729E+01 -0.11760615805E+04  0.16432500083E+04  0.65864270000E+03 0. -1.
    8880022    1    1    2    0    0  0.93985768653E+03 -0.26592283729E+01  0.18723130386E+03  0.97045698337E+03  0.15294330000E+03 0.  0.
<mgrwt>
<rscale>  0 0.10953376E+04</rscale>
<asrwt>0</asrwt>
<pdfrwt beam="1">  1        1 0.27711825E+00 0.11476714E+04</pdfrwt>
<pdfrwt beam="2">  1       -1 0.12499052E+00 0.11476714E+04</pdfrwt>
<totfact> 0.22516537E+00</totfact>
</mgrwt>
</event>
<event>
 4    5  0.7176259E-008  0.1379172E+04  0.7818608E-02  0.9000038E-01
          1   -1    0    0  501    0  0.00000000000E+00  0.00000000000E+00  0.11809015800E+04  0.11809015800E+04  0.50400000000E-02 0. -1.
         -1   -1    0    0    0  501 -0.00000000000E+00 -0.00000000000E+00 -0.50248411000E+04  0.50248411001E+04  0.50400000000E-02 0.  1.
    8880023    1    1    2    0    0  0.85829420432E+03  0.85535685296E+03  0.66727969468E+03  0.15321151015E+04  0.65864270000E+03 0.  0.
    8880022    1    1    2    0    0 -0.85829420432E+03 -0.85535685296E+03 -0.45112192147E+04  0.46736275786E+04  0.15294330000E+03 0.  0.
<mgrwt>
<rscale>  0 0.13379004E+04</rscale>
<asrwt>0</asrwt>
<pdfrwt beam="1">  1        1 0.18167717E+00 0.13791717E+04</pdfrwt>
<pdfrwt beam="2">  1       -1 0.77305247E+00 0.13791717E+04</pdfrwt>
<totfact> 0.10667228E-03</totfact>
</mgrwt>
</event>
<event>
 4    5  0.7176259E-008  0.7249693E+03  0.7818608E-02  0.9906117E-01
         -1   -1    0    0    0  501 -0.00000000000E+00  0.00000000000E+00  0.30252222621E+03  0.30252222626E+03  0.50400000000E-02 0.  1.
          1   -1    0    0  501    0  0.00000000000E+00 -0.00000000000E+00 -0.32853031087E+04  0.32853031087E+04  0.50400000000E-02 0. -1.
    8880023    1    1    2    0    0 -0.10246771497E+03  0.28507999911E+03 -0.31336697529E+04  0.32164369362E+04  0.65864270000E+03 0. -1.
    8880022    1    1    2    0    0  0.10246771497E+03 -0.28507999911E+03  0.15088887037E+03  0.37138839874E+03  0.15294330000E+03 0.  0.
<mgrwt>
<rscale>  0 0.59965754E+03</rscale>
<asrwt>0</asrwt>
<pdfrwt beam="1">  1        1 0.50543122E+00 0.72496927E+03</pdfrwt>
<pdfrwt beam="2">  1       -1 0.46541883E-01 0.72496927E+03</pdfrwt>
<totfact> 0.18321797E+00</totfact>
</mgrwt>
</event>
<event>
 4    5  0.7176259E-008  0.6631917E+03  0.7818608E-02  0.1021101E+00
          1   -1    0    0  501    0  0.00000000000E+00  0.00000000000E+00  0.69048822664E+03  0.69048822666E+03  0.50400000000E-02 0. -1.
         -1   -1    0    0    0  501 -0.00000000000E+00 -0.00000000000E+00 -0.35674472281E+03  0.35674472284E+03  0.50400000000E-02 0.  1.
    8880023    1    1    2    0    0 -0.10615230050E+02 -0.76813666655E+02  0.48256741828E+03  0.82017957908E+03  0.65864270000E+03 0. -1.
    8880022    1    1    2    0    0  0.10615230050E+02  0.76813666655E+02 -0.14882391444E+03  0.22705337042E+03  0.15294330000E+03 0.  0.
<mgrwt>
<rscale>  0 0.47291312E+03</rscale>
<asrwt>0</asrwt>
<pdfrwt beam="1">  1        1 0.10622896E+00 0.66319170E+03</pdfrwt>
<pdfrwt beam="2">  1       -1 0.54883804E-01 0.66319170E+03</pdfrwt>
<totfact> 0.95701985E+01</totfact>
</mgrwt>
</event>
<event>
 4    5  0.7176259E-008  0.7221281E+03  0.7818608E-02  0.9915450E-01
          1   -1    0    0  501    0  0.00000000000E+00  0.00000000000E+00  0.45580513212E+03  0.45580513215E+03  0.50400000000E-02 0. -1.
         -1   -1    0    0    0  501 -0.00000000000E+00 -0.00000000000E+00 -0.85114650492E+03  0.85114650493E+03  0.50400000000E-02 0.  1.
    8880023    1    1    2    0    0 -0.18415671251E+03 -0.23182973050E+03  0.79880405770E+02  0.72653272755E+03  0.65864270000E+03 0. -1.
    8880022    1    1    2    0    0  0.18415671251E+03  0.23182973050E+03 -0.47522177857E+03  0.58041890954E+03  0.15294330000E+03 0.  0.
<mgrwt>
<rscale>  0 0.59518320E+03</rscale>
<asrwt>0</asrwt>
<pdfrwt beam="1">  1        1 0.70123867E-01 0.72212805E+03</pdfrwt>
<pdfrwt beam="2">  1       -1 0.13094562E+00 0.72212805E+03</pdfrwt>
<totfact> 0.25741487E+01</totfact>
</mgrwt>
</event>
<event>
 4    5  0.7176259E-008  0.8573987E+03  0.7818608E-02  0.9598208E-01
         -1   -1    0    0    0  501 -0.00000000000E+00  0.00000000000E+00  0.32421649185E+03  0.32421649189E+03  0.50400000000E-02 0.  1.
          1   -1    0    0  501    0  0.00000000000E+00 -0.00000000000E+00 -0.26470371693E+04  0.26470371693E+04  0.50400000000E-02 0. -1.
    8880023    1    1    2    0    0  0.36329491007E+03 -0.41150829079E+03 -0.22361157367E+04  0.23948582545E+04  0.65864270000E+03 0. -1.
    8880022    1    1    2    0    0 -0.36329491007E+03  0.41150829079E+03 -0.86704940752E+02  0.57639540668E+03  0.15294330000E+03 0.  0.
<mgrwt>
<rscale>  0 0.77414928E+03</rscale>
<asrwt>0</asrwt>
<pdfrwt beam="1">  1        1 0.40723647E+00 0.85739867E+03</pdfrwt>
<pdfrwt beam="2">  1       -1 0.49879462E-01 0.85739867E+03</pdfrwt>
<totfact> 0.44959215E+00</totfact>
</mgrwt>
</event>
<event>
 4    5  0.7176259E-008  0.7242218E+03  0.7818608E-02  0.9908551E-01
         -1   -1    0    0    0  501 -0.00000000000E+00  0.00000000000E+00  0.21222255583E+03  0.21222255589E+03  0.50400000000E-02 0.  1.
          1   -1    0    0  501    0  0.00000000000E+00 -0.00000000000E+00 -0.19067315328E+04  0.19067315328E+04  0.50400000000E-02 0. -1.
    8880023    1    1    2    0    0  0.20981100203E+03  0.21602387806E+03 -0.16179337491E+04  0.17726270886E+04  0.65864270000E+03 0. -1.
    8880022    1    1    2    0    0 -0.20981100203E+03 -0.21602387806E+03 -0.76575227877E+02  0.34632700011E+03  0.15294330000E+03 0.  0.
<mgrwt>
<rscale>  0 0.59848631E+03</rscale>
<asrwt>0</asrwt>
<pdfrwt beam="1">  1        1 0.29334330E+00 0.72422177E+03</pdfrwt>
<pdfrwt beam="2">  1       -1 0.32649625E-01 0.72422177E+03</pdfrwt>
<totfact> 0.31485350E+01</totfact>
</mgrwt>
</event>
<event>
 4    5  0.7895594E-008  0.1074022E+04  0.7818608E-02  0.9290546E-01
         -1   -1    0    0    0  501 -0.00000000000E+00  0.00000000000E+00  0.11055176021E+04  0.11055176021E+04  0.50400000000E-02 0.  1.
          1   -1    0    0  501    0  0.00000000000E+00 -0.00000000000E+00 -0.22738154076E+04  0.22738154076E+04  0.50400000000E-02 0. -1.
    8880023    1    1    2    0    0 -0.55641936552E+03  0.64039902814E+03 -0.19431648337E+04  0.22202281871E+04  0.65864270000E+03 0.  0.
    8880022    1    1    2    0    0  0.55641936552E+03 -0.64039902814E+03  0.77486702812E+03  0.11591048226E+04  0.15294330000E+03 0.  0.
<mgrwt>
<rscale>  0 0.10165792E+04</rscale>
<asrwt>0</asrwt>
<pdfrwt beam="1">  1        1 0.34981775E+00 0.10740222E+04</pdfrwt>
<pdfrwt beam="2">  1       -1 0.17007963E+00 0.10740222E+04</pdfrwt>
<totfact> 0.47800700E-01</totfact>
</mgrwt>
</event>
<event>
 4    5  0.7176259E-008  0.7727980E+03  0.7818608E-02  0.9773035E-01
          1   -1    0    0  501    0  0.00000000000E+00  0.00000000000E+00  0.99379833389E+03  0.99379833390E+03  0.50400000000E-02 0. -1.
         -1   -1    0    0    0  501 -0.00000000000E+00 -0.00000000000E+00 -0.99816116086E+03  0.99816116087E+03  0.50400000000E-02 0.  1.
    8880023    1    1    2    0    0  0.13682890158E+03 -0.38037400220E+03  0.77898868513E+03  0.10972876139E+04  0.65864270000E+03 0. -1.
    8880022    1    1    2    0    0 -0.13682890158E+03  0.38037400220E+03 -0.78335151209E+03  0.89467188084E+03  0.15294330000E+03 0.  0.
<mgrwt>
<rscale>  0 0.66829940E+03</rscale>
<asrwt>0</asrwt>
<pdfrwt beam="1">  1        1 0.15289205E+00 0.77279799E+03</pdfrwt>
<pdfrwt beam="2">  1       -1 0.15356326E+00 0.77279799E+03</pdfrwt>
<totfact> 0.51730813E+00</totfact>
</mgrwt>
</event>
<event>
 4    5  0.7176259E-008  0.6886697E+03  0.7818608E-02  0.1004791E+00
          1   -1    0    0  501    0  0.00000000000E+00  0.00000000000E+00  0.19187013678E+04  0.19187013678E+04  0.50400000000E-02 0. -1.
         -1   -1    0    0    0  501 -0.00000000000E+00 -0.00000000000E+00 -0.12371759752E+03  0.12371759762E+03  0.50400000000E-02 0.  1.
    8880023    1    1    2    0    0 -0.17251278622E+03  0.10341717032E+03  0.15213622629E+04  0.16699727883E+04  0.65864270000E+03 0.  0.
    8880022    1    1    2    0    0  0.17251278622E+03 -0.10341717032E+03  0.27362150745E+03  0.37244617715E+03  0.15294330000E+03 0.  0.
<mgrwt>
<rscale>  0 0.53598318E+03</rscale>
<asrwt>0</asrwt>
<pdfrwt beam="1">  1        1 0.29518480E+00 0.68866972E+03</pdfrwt>
<pdfrwt beam="2">  1       -1 0.19033478E-01 0.68866972E+03</pdfrwt>
<totfact> 0.77921405E+01</totfact>
</mgrwt>
</event>
<event>
 4    5  0.7176259E-008  0.8351702E+03  0.7818608E-02  0.9639355E-01
          1   -1    0    0  501    0  0.00000000000E+00  0.00000000000E+00  0.49738201695E+03  0.49738201698E+03  0.50400000000E-02 0. -1.
         -1   -1    0    0    0  501 -0.00000000000E+00 -0.00000000000E+00 -0.11558069642E+04  0.11558069642E+04  0.50400000000E-02 0.  1.
    8880023    1    1    2    0    0 -0.26312480839E+03 -0.44098108542E+03 -0.41688310647E+02  0.83620996406E+03  0.65864270000E+03 0. -1.
    8880022    1    1    2    0    0  0.26312480839E+03  0.44098108542E+03 -0.61673663661E+03  0.81697901714E+03  0.15294330000E+03 0.  0.
<mgrwt>
<rscale>  0 0.74745251E+03</rscale>
<asrwt>0</asrwt>
<pdfrwt beam="1">  1        1 0.76520311E-01 0.83517016E+03</pdfrwt>
<pdfrwt beam="2">  1       -1 0.17781646E+00 0.83517016E+03</pdfrwt>
<totfact> 0.98313044E+00</totfact>
</mgrwt>
</event>
<event>
 4    5  0.7176259E-008  0.7119555E+03  0.7818608E-02  0.9950810E-01
         -1   -1    0    0    0  501 -0.00000000000E+00  0.00000000000E+00  0.39608135607E+03  0.39608135611E+03  0.50400000000E-02 0.  1.
          1   -1    0    0  501    0  0.00000000000E+00 -0.00000000000E+00 -0.25941420942E+04  0.25941420942E+04  0.50400000000E-02 0. -1.
    8880023    1    1    2    0    0 -0.10672169352E+03 -0.24835629255E+03 -0.24742229425E+04  0.25746183685E+04  0.65864270000E+03 0. -1.
    8880022    1    1    2    0    0  0.10672169352E+03  0.24835629255E+03  0.27616220436E+03  0.41560508183E+03  0.15294330000E+03 0.  0.
<mgrwt>
<rscale>  0 0.57860764E+03</rscale>
<asrwt>0</asrwt>
<pdfrwt beam="1">  1        1 0.39909877E+00 0.71195546E+03</pdfrwt>
<pdfrwt beam="2">  1       -1 0.60935595E-01 0.71195546E+03</pdfrwt>
<totfact> 0.34070015E+00</totfact>
</mgrwt>
</event>
<event>
 4    5  0.7176259E-008  0.7768151E+03  0.7818608E-02  0.9763372E-01
          1   -1    0    0  501    0  0.00000000000E+00  0.00000000000E+00  0.85818900341E+03  0.85818900343E+03  0.50400000000E-02 0. -1.
         -1   -1    0    0    0  501 -0.00000000000E+00 -0.00000000000E+00 -0.53079564893E+03  0.53079564895E+03  0.50400000000E-02 0.  1.
    8880023    1    1    2    0    0 -0.12867689931E+03  0.39124647007E+03  0.49234168398E+03  0.91969673524E+03  0.65864270000E+03 0.  0.
    8880022    1    1    2    0    0  0.12867689931E+03 -0.39124647007E+03 -0.16494832949E+03  0.46928791714E+03  0.15294330000E+03 0.  0.
<mgrwt>
<rscale>  0 0.67365796E+03</rscale>
<asrwt>0</asrwt>
<pdfrwt beam="1">  1        1 0.13202908E+00 0.77681513E+03</pdfrwt>
<pdfrwt beam="2">  1       -1 0.81660869E-01 0.77681513E+03</pdfrwt>
<totfact> 0.30104039E+01</totfact>
</mgrwt>
</event>
<event>
 4    5  0.7176259E-008  0.1241088E+04  0.7818608E-02  0.9118181E-01
          1   -1    0    0  501    0  0.00000000000E+00  0.00000000000E+00  0.16125535675E+04  0.16125535675E+04  0.50400000000E-02 0. -1.
         -1   -1    0    0    0  501 -0.00000000000E+00 -0.00000000000E+00 -0.10546941911E+04  0.10546941911E+04  0.50400000000E-02 0.  1.
    8880023    1    1    2    0    0  0.99363091786E+03 -0.34523326730E+03 -0.32783086606E+03  0.12836555974E+04  0.65864270000E+03 0.  1.
    8880022    1    1    2    0    0 -0.99363091786E+03  0.34523326730E+03  0.88569024253E+03  0.13835921612E+04  0.15294330000E+03 0.  0.
<mgrwt>
<rscale>  0 0.11939356E+04</rscale>
<asrwt>0</asrwt>
<pdfrwt beam="1">  1        1 0.24808516E+00 0.12410877E+04</pdfrwt>
<pdfrwt beam="2">  1       -1 0.16226065E+00 0.12410877E+04</pdfrwt>
<totfact> 0.15000953E+00</totfact>
</mgrwt>
</event>
<event>
 4    5  0.7176259E-008  0.8615141E+03  0.7818608E-02  0.9590876E-01
          1   -1    0    0  501    0  0.00000000000E+00  0.00000000000E+00  0.39957899981E+04  0.39957899981E+04  0.50400000000E-02 0. -1.
         -1   -1    0    0    0  501 -0.00000000000E+00 -0.00000000000E+00 -0.29473836197E+03  0.29473836201E+03  0.50400000000E-02 0.  1.
    8880023    1    1    2    0    0  0.13332670041E+03  0.53909207693E+03  0.36050648545E+04  0.37065751156E+04  0.65864270000E+03 0.  0.
    8880022    1    1    2    0    0 -0.13332670041E+03 -0.53909207693E+03  0.95986781601E+02  0.58395324445E+03  0.15294330000E+03 0.  0.
<mgrwt>
<rscale>  0 0.77903030E+03</rscale>
<asrwt>0</asrwt>
<pdfrwt beam="1">  1        1 0.61473688E+00 0.86151406E+03</pdfrwt>
<pdfrwt beam="2">  1       -1 0.45344366E-01 0.86151406E+03</pdfrwt>
<totfact> 0.50583633E-01</totfact>
</mgrwt>
</event>
<event>
 4    5  0.7176259E-008  0.8423029E+03  0.7818608E-02  0.9625853E-01
          1   -1    0    0  501    0  0.00000000000E+00  0.00000000000E+00  0.96962073709E+03  0.96962073710E+03  0.50400000000E-02 0. -1.
         -1   -1    0    0    0  501 -0.00000000000E+00 -0.00000000000E+00 -0.94671345667E+03  0.94671345668E+03  0.50400000000E-02 0.  1.
    8880023    1    1    2    0    0  0.25303287914E+03  0.46004169093E+03  0.66482092367E+03  0.10730615370E+04  0.65864270000E+03 0.  0.
    8880022    1    1    2    0    0 -0.25303287914E+03 -0.46004169093E+03 -0.64191364324E+03  0.84327265681E+03  0.15294330000E+03 0.  0.
<mgrwt>
<rscale>  0 0.75608432E+03</rscale>
<asrwt>0</asrwt>
<pdfrwt beam="1">  1        1 0.14917242E+00 0.84230292E+03</pdfrwt>
<pdfrwt beam="2">  1       -1 0.14564822E+00 0.84230292E+03</pdfrwt>
<totfact> 0.61676623E+00</totfact>
</mgrwt>
</event>
<event>
 4    5  0.7176259E-008  0.1113327E+04  0.7818608E-02  0.9246361E-01
         -1   -1    0    0    0  501 -0.00000000000E+00  0.00000000000E+00  0.16311893026E+04  0.16311893026E+04  0.50400000000E-02 0.  1.
          1   -1    0    0  501    0  0.00000000000E+00 -0.00000000000E+00 -0.11103792223E+04  0.11103792223E+04  0.50400000000E-02 0. -1.
    8880023    1    1    2    0    0 -0.54912745265E+03  0.71003248908E+03 -0.62599196972E+03  0.12772483107E+04  0.65864270000E+03 0.  0.
    8880022    1    1    2    0    0  0.54912745265E+03 -0.71003248908E+03  0.11468020500E+04  0.14643202142E+04  0.15294330000E+03 0.  0.
<mgrwt>
<rscale>  0 0.10587455E+04</rscale>
<asrwt>0</asrwt>
<pdfrwt beam="1">  1        1 0.17082757E+00 0.11133271E+04</pdfrwt>
<pdfrwt beam="2">  1       -1 0.25095220E+00 0.11133271E+04</pdfrwt>
<totfact> 0.84958255E-01</totfact>
</mgrwt>
</event>
<event>
 4    5  0.7176259E-008  0.1395694E+04  0.7818608E-02  0.8987036E-01
          1   -1    0    0  501    0  0.00000000000E+00  0.00000000000E+00  0.18664448940E+04  0.18664448940E+04  0.50400000000E-02 0. -1.
         -1   -1    0    0    0  501 -0.00000000000E+00 -0.00000000000E+00 -0.10419711259E+04  0.10419711259E+04  0.50400000000E-02 0.  1.
    8880023    1    1    2    0    0  0.97955764382E+03  0.74472659281E+03  0.90892820467E+03  0.16655664391E+04  0.65864270000E+03 0.  0.
    8880022    1    1    2    0    0 -0.97955764382E+03 -0.74472659281E+03 -0.84454436537E+02  0.12428495808E+04  0.15294330000E+03 0.  0.
<mgrwt>
<rscale>  0 0.13550209E+04</rscale>
<asrwt>0</asrwt>
<pdfrwt beam="1">  1        1 0.28714537E+00 0.13956938E+04</pdfrwt>
<pdfrwt beam="2">  1       -1 0.16030325E+00 0.13956938E+04</pdfrwt>
<totfact> 0.10241441E+00</totfact>
</mgrwt>
</event>
<event>
 4    5  0.7176259E-008  0.1264331E+04  0.7818608E-02  0.9096991E-01
         -1   -1    0    0    0  501 -0.00000000000E+00  0.00000000000E+00  0.16122929971E+04  0.16122929971E+04  0.50400000000E-02 0.  1.
          1   -1    0    0  501    0  0.00000000000E+00 -0.00000000000E+00 -0.12370386764E+04  0.12370386764E+04  0.50400000000E-02 0. -1.
    8880023    1    1    2    0    0  0.91890631741E+03 -0.56598066606E+03 -0.58829489972E+03  0.13944977697E+04  0.65864270000E+03 0.  0.
    8880022    1    1    2    0    0 -0.91890631741E+03  0.56598066606E+03  0.96354922044E+03  0.14548339038E+04  0.15294330000E+03 0.  0.
<mgrwt>
<rscale>  0 0.12182963E+04</rscale>
<asrwt>0</asrwt>
<pdfrwt beam="1">  1        1 0.19031364E+00 0.12643311E+04</pdfrwt>
<pdfrwt beam="2">  1       -1 0.24804507E+00 0.12643311E+04</pdfrwt>
<totfact> 0.70172847E-01</totfact>
</mgrwt>
</event>
<event>
 4    5  0.7176259E-008  0.1370651E+04  0.7818608E-02  0.9006830E-01
         -1   -1    0    0    0  501 -0.00000000000E+00  0.00000000000E+00  0.12452526570E+04  0.12452526570E+04  0.50400000000E-02 0.  1.
          1   -1    0    0  501    0  0.00000000000E+00 -0.00000000000E+00 -0.14890001622E+04  0.14890001622E+04  0.50400000000E-02 0. -1.
    8880023    1    1    2    0    0 -0.96237906414E+03  0.72020912174E+03 -0.56206534295E+03  0.14814190150E+04  0.65864270000E+03 0.  0.
    8880022    1    1    2    0    0  0.96237906414E+03 -0.72020912174E+03  0.31831783770E+03  0.12528338042E+04  0.15294330000E+03 0.  0.
<mgrwt>
<rscale>  0 0.13290638E+04</rscale>
<asrwt>0</asrwt>
<pdfrwt beam="1">  1        1 0.22907695E+00 0.13706512E+04</pdfrwt>
<pdfrwt beam="2">  1       -1 0.19157733E+00 0.13706512E+04</pdfrwt>
<totfact> 0.11021161E+00</totfact>
</mgrwt>
</event>
<event>
 4    5  0.7176259E-008  0.8051557E+03  0.7818608E-02  0.9699757E-01
          1   -1    0    0  501    0  0.00000000000E+00  0.00000000000E+00  0.38121138741E+04  0.38121138741E+04  0.50400000000E-02 0. -1.
         -1   -1    0    0    0  501 -0.00000000000E+00 -0.00000000000E+00 -0.26696078296E+03  0.26696078301E+03  0.50400000000E-02 0.  1.
    8880023    1    1    2    0    0  0.46216940586E+03  0.29409505374E+02  0.34975746718E+04  0.35890533946E+04  0.65864270000E+03 0. -1.
    8880022    1    1    2    0    0 -0.46216940586E+03 -0.29409505374E+02  0.47578419431E+02  0.49002126253E+03  0.15294330000E+03 0.  0.
<mgrwt>
<rscale>  0 0.71031244E+03</rscale>
<asrwt>0</asrwt>
<pdfrwt beam="1">  1        1 0.58647905E+00 0.80515569E+03</pdfrwt>
<pdfrwt beam="2">  1       -1 0.41070890E-01 0.80515569E+03</pdfrwt>
<totfact> 0.87840611E-01</totfact>
</mgrwt>
</event>
<event>
 4    5  0.7176259E-008  0.9219086E+03  0.7818608E-02  0.9491739E-01
          1   -1    0    0  501    0  0.00000000000E+00  0.00000000000E+00  0.15501453785E+04  0.15501453785E+04  0.50400000000E-02 0. -1.
         -1   -1    0    0    0  501 -0.00000000000E+00 -0.00000000000E+00 -0.62905549552E+03  0.62905549554E+03  0.50400000000E-02 0.  1.
    8880023    1    1    2    0    0 -0.52200820246E+03 -0.37896275819E+03  0.11535477275E+04  0.14766813811E+04  0.65864270000E+03 0. -1.
    8880022    1    1    2    0    0  0.52200820246E+03  0.37896275819E+03 -0.23245784445E+03  0.70251949296E+03  0.15294330000E+03 0.  0.
<mgrwt>
<rscale>  0 0.84895643E+03</rscale>
<asrwt>0</asrwt>
<pdfrwt beam="1">  1        1 0.23848390E+00 0.92190864E+03</pdfrwt>
<pdfrwt beam="2">  1       -1 0.96777769E-01 0.92190864E+03</pdfrwt>
<totfact> 0.63002655E+00</totfact>
</mgrwt>
</event>
<event>
 4    5  0.7176259E-008  0.7229644E+03  0.7818608E-02  0.9912680E-01
         -1   -1    0    0    0  501 -0.00000000000E+00  0.00000000000E+00  0.12620607535E+04  0.12620607535E+04  0.50400000000E-02 0.  1.
          1   -1    0    0  501    0  0.00000000000E+00 -0.00000000000E+00 -0.77005564472E+03  0.77005564474E+03  0.50400000000E-02 0. -1.
    8880023    1    1    2    0    0 -0.22159456977E+03  0.19940689092E+03 -0.56864703100E+03  0.91980264928E+03  0.65864270000E+03 0. -1.
    8880022    1    1    2    0    0  0.22159456977E+03 -0.19940689092E+03  0.10606521398E+04  0.11123137489E+04  0.15294330000E+03 0.  0.
<mgrwt>
<rscale>  0 0.59650663E+03</rscale>
<asrwt>0</asrwt>
<pdfrwt beam="1">  1        1 0.11847010E+00 0.72296436E+03</pdfrwt>
<pdfrwt beam="2">  1       -1 0.19416319E+00 0.72296436E+03</pdfrwt>
<totfact> 0.40458525E+00</totfact>
</mgrwt>
</event>
<event>
 4    5  0.7176259E-008  0.7427391E+03  0.7818608E-02  0.9852039E-01
         -1   -1    0    0    0  501 -0.00000000000E+00  0.00000000000E+00  0.58565367626E+03  0.58565367628E+03  0.50400000000E-02 0.  1.
          1   -1    0    0  501    0  0.00000000000E+00 -0.00000000000E+00 -0.81206491246E+03  0.81206491248E+03  0.50400000000E-02 0. -1.
    8880023    1    1    2    0    0  0.81056587280E+02 -0.33358800382E+03 -0.53177249528E+03  0.91347869140E+03  0.65864270000E+03 0.  0.
    8880022    1    1    2    0    0 -0.81056587280E+02  0.33358800382E+03  0.30536125908E+03  0.48423989736E+03  0.15294330000E+03 0.  0.
<mgrwt>
<rscale>  0 0.62643063E+03</rscale>
<asrwt>0</asrwt>
<pdfrwt beam="1">  1        1 0.12493306E+00 0.74273907E+03</pdfrwt>
<pdfrwt beam="2">  1       -1 0.90100566E-01 0.74273907E+03</pdfrwt>
<totfact> 0.26707390E+01</totfact>
</mgrwt>
</event>
<event>
 4    5  0.7176259E-008  0.1666344E+04  0.7818608E-02  0.8800312E-01
         -1   -1    0    0    0  501 -0.00000000000E+00  0.00000000000E+00  0.13608637863E+04  0.13608637863E+04  0.50400000000E-02 0.  1.
          1   -1    0    0  501    0  0.00000000000E+00 -0.00000000000E+00 -0.25737686433E+04  0.25737686433E+04  0.50400000000E-02 0. -1.
    8880023    1    1    2    0    0 -0.11258009695E+04  0.10370466916E+04  0.39172512406E+03  0.17117688052E+04  0.65864270000E+03 0.  0.
    8880022    1    1    2    0    0  0.11258009695E+04 -0.10370466916E+04 -0.16046299811E+04  0.22228636244E+04  0.15294330000E+03 0.  0.
<mgrwt>
<rscale>  0 0.16333602E+04</rscale>
<asrwt>0</asrwt>
<pdfrwt beam="1">  1        1 0.39596441E+00 0.16663445E+04</pdfrwt>
<pdfrwt beam="2">  1       -1 0.20936366E+00 0.16663445E+04</pdfrwt>
<totfact> 0.14482047E-01</totfact>
</mgrwt>
</event>
<event>
 4    5  0.7176259E-008  0.9575989E+03  0.7818608E-02  0.9439264E-01
          1   -1    0    0  501    0  0.00000000000E+00  0.00000000000E+00  0.17459620979E+04  0.17459620979E+04  0.50400000000E-02 0. -1.
         -1   -1    0    0    0  501 -0.00000000000E+00 -0.00000000000E+00 -0.58212204676E+03  0.58212204678E+03  0.50400000000E-02 0.  1.
    8880023    1    1    2    0    0  0.46191998443E+03  0.51943758341E+03  0.12886360111E+04  0.16054838680E+04  0.65864270000E+03 0. -1.
    8880022    1    1    2    0    0 -0.46191998443E+03 -0.51943758341E+03 -0.12479596006E+03  0.72260027659E+03  0.15294330000E+03 0.  0.
<mgrwt>
<rscale>  0 0.88913648E+03</rscale>
<asrwt>0</asrwt>
<pdfrwt beam="1">  1        1 0.26860956E+00 0.95759891E+03</pdfrwt>
<pdfrwt beam="2">  1       -1 0.89557237E-01 0.95759891E+03</pdfrwt>
<totfact> 0.54886022E+00</totfact>
</mgrwt>
</event>
<event>
 4    5  0.7176259E-008  0.1365030E+04  0.7818608E-02  0.9011343E-01
          1   -1    0    0  501    0  0.00000000000E+00  0.00000000000E+00  0.11354988047E+04  0.11354988047E+04  0.50400000000E-02 0. -1.
         -1   -1    0    0    0  501 -0.00000000000E+00 -0.00000000000E+00 -0.17121759710E+04  0.17121759711E+04  0.50400000000E-02 0.  1.
    8880023    1    1    2    0    0 -0.11458393425E+04  0.34139136810E+03  0.24776727920E+03  0.13873336642E+04  0.65864270000E+03 0.  0.
    8880022    1    1    2    0    0  0.11458393425E+04 -0.34139136810E+03 -0.82444444560E+03  0.14603411115E+04  0.15294330000E+03 0.  0.
<mgrwt>
<rscale>  0 0.13232307E+04</rscale>
<asrwt>0</asrwt>
<pdfrwt beam="1">  1        1 0.17469212E+00 0.13650297E+04</pdfrwt>
<pdfrwt beam="2">  1       -1 0.26341169E+00 0.13650297E+04</pdfrwt>
<totfact> 0.65485301E-01</totfact>
</mgrwt>
</event>
<event>
 4    5  0.7176259E-008  0.9875523E+03  0.7818608E-02  0.9398027E-01
         -1   -1    0    0    0  501 -0.00000000000E+00  0.00000000000E+00  0.10204985932E+04  0.10204985932E+04  0.50400000000E-02 0.  1.
          1   -1    0    0  501    0  0.00000000000E+00 -0.00000000000E+00 -0.97602269168E+03  0.97602269169E+03  0.50400000000E-02 0. -1.
    8880023    1    1    2    0    0 -0.54375558711E+03  0.49576118759E+03 -0.46195523746E+03  0.10902578325E+04  0.65864270000E+03 0.  0.
    8880022    1    1    2    0    0  0.54375558711E+03 -0.49576118759E+03  0.50643113899E+03  0.90626345242E+03  0.15294330000E+03 0.  0.
<mgrwt>
<rscale>  0 0.92238205E+03</rscale>
<asrwt>0</asrwt>
<pdfrwt beam="1">  1        1 0.15015734E+00 0.98755228E+03</pdfrwt>
<pdfrwt beam="2">  1       -1 0.15699978E+00 0.98755228E+03</pdfrwt>
<totfact> 0.48878129E+00</totfact>
</mgrwt>
</event>
<event>
 4    5  0.7176259E-008  0.7408570E+03  0.7818608E-02  0.9857458E-01
         -1   -1    0    0    0  501 -0.00000000000E+00  0.00000000000E+00  0.11575924319E+04  0.11575924319E+04  0.50400000000E-02 0.  1.
          1   -1    0    0  501    0  0.00000000000E+00 -0.00000000000E+00 -0.33267714591E+03  0.33267714595E+03  0.50400000000E-02 0. -1.
    8880023    1    1    2    0    0  0.25215564017E+03  0.22688404132E+03  0.20744247036E+03  0.76935129807E+03  0.65864270000E+03 0. -1.
    8880022    1    1    2    0    0 -0.25215564017E+03 -0.22688404132E+03  0.61747281560E+03  0.72091827976E+03  0.15294330000E+03 0.  0.
<mgrwt>
<rscale>  0 0.62368111E+03</rscale>
<asrwt>0</asrwt>
<pdfrwt beam="1">  1        1 0.51181099E-01 0.74085696E+03</pdfrwt>
<pdfrwt beam="2">  1       -1 0.17809114E+00 0.74085696E+03</pdfrwt>
<totfact> 0.16909509E+01</totfact>
</mgrwt>
</event>
<event>
 4    5  0.7176259E-008  0.1232273E+04  0.7818608E-02  0.9126372E-01
         -1   -1    0    0    0  501 -0.00000000000E+00  0.00000000000E+00  0.15162493098E+04  0.15162493098E+04  0.50400000000E-02 0.  1.
          1   -1    0    0  501    0  0.00000000000E+00 -0.00000000000E+00 -0.16268111577E+04  0.16268111577E+04  0.50400000000E-02 0. -1.
    8880023    1    1    2    0    0  0.72559144575E+03  0.74712967695E+03 -0.11341801214E+04  0.16747717619E+04  0.65864270000E+03 0.  0.
    8880022    1    1    2    0    0 -0.72559144575E+03 -0.74712967695E+03  0.10236182735E+04  0.14682887057E+04  0.15294330000E+03 0.  0.
<mgrwt>
<rscale>  0 0.11846809E+04</rscale>
<asrwt>0</asrwt>
<pdfrwt beam="1">  1        1 0.25027864E+00 0.12322727E+04</pdfrwt>
<pdfrwt beam="2">  1       -1 0.23326912E+00 0.12322727E+04</pdfrwt>
<totfact> 0.46890782E-01</totfact>
</mgrwt>
</event>
<event>
 4    5  0.7176259E-008  0.6608658E+03  0.7818608E-02  0.1023286E+00
         -1   -1    0    0    0  501 -0.00000000000E+00  0.00000000000E+00  0.93258482756E+03  0.93258482757E+03  0.50400000000E-02 0.  1.
          1   -1    0    0  501    0  0.00000000000E+00 -0.00000000000E+00 -0.72201817549E+03  0.72201817551E+03  0.50400000000E-02 0. -1.
    8880023    1    1    2    0    0  0.38256384291E+02 -0.38338535318E+02 -0.56056374795E+03  0.86658831980E+03  0.65864270000E+03 0. -1.
    8880022    1    1    2    0    0 -0.38256384291E+02  0.38338535318E+02  0.77113040002E+03  0.78801468329E+03  0.15294330000E+03 0.  0.
<mgrwt>
<rscale>  0 0.46519078E+03</rscale>
<asrwt>0</asrwt>
<pdfrwt beam="1">  1        1 0.11107972E+00 0.66086580E+03</pdfrwt>
<pdfrwt beam="2">  1       -1 0.14347459E+00 0.66086580E+03</pdfrwt>
<totfact> 0.10651614E+01</totfact>
</mgrwt>
</event>
<event>
 4    5  0.7176259E-008  0.7608779E+03  0.7818608E-02  0.9802840E-01
          1   -1    0    0  501    0  0.00000000000E+00  0.00000000000E+00  0.26124396523E+04  0.26124396523E+04  0.50400000000E-02 0. -1.
         -1   -1    0    0    0  501 -0.00000000000E+00 -0.00000000000E+00 -0.14661496470E+03  0.14661496479E+03  0.50400000000E-02 0.  1.
    8880023    1    1    2    0    0  0.26755616680E+03 -0.27118023549E+03  0.19906899449E+04  0.21311456274E+04  0.65864270000E+03 0.  0.
    8880022    1    1    2    0    0 -0.26755616680E+03  0.27118023549E+03  0.47513474272E+03  0.62790898964E+03  0.15294330000E+03 0.  0.
<mgrwt>
<rscale>  0 0.65210361E+03</rscale>
<asrwt>0</asrwt>
<pdfrwt beam="1">  1        1 0.40191374E+00 0.76087793E+03</pdfrwt>
<pdfrwt beam="2">  1       -1 0.22556152E-01 0.76087793E+03</pdfrwt>
<totfact> 0.19789556E+01</totfact>
</mgrwt>
</event>
<event>
 4    5  0.7176259E-008  0.9758040E+03  0.7818608E-02  0.9413921E-01
          1   -1    0    0  501    0  0.00000000000E+00  0.00000000000E+00  0.23531268230E+04  0.23531268230E+04  0.50400000000E-02 0. -1.
         -1   -1    0    0    0  501 -0.00000000000E+00 -0.00000000000E+00 -0.77613503670E+03  0.77613503672E+03  0.50400000000E-02 0.  1.
    8880023    1    1    2    0    0 -0.58557016744E+03 -0.41891618224E+03  0.20388301282E+04  0.22603145105E+04  0.65864270000E+03 0. -1.
    8880022    1    1    2    0    0  0.58557016744E+03  0.41891618224E+03 -0.46183834183E+03  0.86894734923E+03  0.15294330000E+03 0.  0.
<mgrwt>
<rscale>  0 0.90938815E+03</rscale>
<asrwt>0</asrwt>
<pdfrwt beam="1">  1        1 0.36201951E+00 0.97580397E+03</pdfrwt>
<pdfrwt beam="2">  1       -1 0.11940539E+00 0.97580397E+03</pdfrwt>
<totfact> 0.10938681E+00</totfact>
</mgrwt>
</event>
<event>
 4    5  0.7176259E-008  0.8180724E+03  0.7818608E-02  0.9673001E-01
          1   -1    0    0  501    0  0.00000000000E+00  0.00000000000E+00  0.10732690780E+04  0.10732690780E+04  0.50400000000E-02 0. -1.
         -1   -1    0    0    0  501 -0.00000000000E+00 -0.00000000000E+00 -0.89153593092E+03  0.89153593093E+03  0.50400000000E-02 0.  1.
    8880023    1    1    2    0    0  0.48509326326E+03 -0.10809340225E+02  0.81347393394E+03  0.11536820894E+04  0.65864270000E+03 0. -1.
    8880022    1    1    2    0    0 -0.48509326326E+03  0.10809340225E+02 -0.63174078684E+03  0.81112291958E+03  0.15294330000E+03 0.  0.
<mgrwt>
<rscale>  0 0.72647284E+03</rscale>
<asrwt>0</asrwt>
<pdfrwt beam="1">  1        1 0.16511832E+00 0.81807244E+03</pdfrwt>
<pdfrwt beam="2">  1       -1 0.13715937E+00 0.81807244E+03</pdfrwt>
<totfact> 0.60250294E+00</totfact>
</mgrwt>
</event>
<event>
 4    5  0.7176259E-008  0.9262920E+03  0.7818608E-02  0.9485078E-01
         -1   -1    0    0    0  501 -0.00000000000E+00  0.00000000000E+00  0.10809271435E+04  0.10809271435E+04  0.50400000000E-02 0.  1.
          1   -1    0    0  501    0  0.00000000000E+00 -0.00000000000E+00 -0.16325177338E+04  0.16325177338E+04  0.50400000000E-02 0. -1.
    8880023    1    1    2    0    0  0.63190424709E+03 -0.15780892443E+03 -0.13716335282E+04  0.16551118923E+04  0.65864270000E+03 0. -1.
    8880022    1    1    2    0    0 -0.63190424709E+03  0.15780892443E+03  0.82004293792E+03  0.10583329850E+04  0.15294330000E+03 0.  0.
<mgrwt>
<rscale>  0 0.85392943E+03</rscale>
<asrwt>0</asrwt>
<pdfrwt beam="1">  1        1 0.25115657E+00 0.92629198E+03</pdfrwt>
<pdfrwt beam="2">  1       -1 0.16629648E+00 0.92629198E+03</pdfrwt>
<totfact> 0.14149901E+00</totfact>
</mgrwt>
</event>
<event>
 4    5  0.7176259E-008  0.1615289E+04  0.7818608E-02  0.8832244E-01
         -1   -1    0    0    0  501 -0.00000000000E+00  0.00000000000E+00  0.21479073371E+04  0.21479073371E+04  0.50400000000E-02 0.  1.
          1   -1    0    0  501    0  0.00000000000E+00 -0.00000000000E+00 -0.15658094926E+04  0.15658094926E+04  0.50400000000E-02 0. -1.
    8880023    1    1    2    0    0 -0.14025205144E+04 -0.45638183370E+03 -0.69336667760E+03  0.17578156124E+04  0.65864270000E+03 0.  0.
    8880022    1    1    2    0    0  0.14025205144E+04  0.45638183370E+03  0.12754645221E+04  0.19559012172E+04  0.15294330000E+03 0.  0.
<mgrwt>
<rscale>  0 0.15811002E+04</rscale>
<asrwt>0</asrwt>
<pdfrwt beam="1">  1        1 0.24089377E+00 0.16152889E+04</pdfrwt>
<pdfrwt beam="2">  1       -1 0.33044728E+00 0.16152889E+04</pdfrwt>
<totfact> 0.11488912E-01</totfact>
</mgrwt>
</event>
<event>
 4    5  0.7176259E-008  0.8091739E+03  0.7818608E-02  0.9691300E-01
          1   -1    0    0  501    0  0.00000000000E+00  0.00000000000E+00  0.59342680754E+03  0.59342680756E+03  0.50400000000E-02 0. -1.
         -1   -1    0    0    0  501 -0.00000000000E+00 -0.00000000000E+00 -0.27641014832E+04  0.27641014832E+04  0.50400000000E-02 0.  1.
    8880023    1    1    2    0    0  0.38979522420E+03 -0.26270109055E+03  0.28095523601E+03  0.85656186624E+03  0.65864270000E+03 0. -1.
    8880022    1    1    2    0    0 -0.38979522420E+03  0.26270109055E+03 -0.24516299117E+04  0.25009664245E+04  0.15294330000E+03 0.  0.
<mgrwt>
<rscale>  0 0.71537139E+03</rscale>
<asrwt>0</asrwt>
<pdfrwt beam="1">  1        1 0.91296433E-01 0.80917389E+03</pdfrwt>
<pdfrwt beam="2">  1       -1 0.42524638E+00 0.80917389E+03</pdfrwt>
<totfact> 0.17763418E-01</totfact>
</mgrwt>
</event>
<event>
 4    5  0.7176259E-008  0.6867691E+03  0.7818608E-02  0.1005728E+00
         -1   -1    0    0    0  501 -0.00000000000E+00  0.00000000000E+00  0.22667494694E+03  0.22667494700E+03  0.50400000000E-02 0.  1.
          1   -1    0    0  501    0  0.00000000000E+00 -0.00000000000E+00 -0.24896233406E+04  0.24896233406E+04  0.50400000000E-02 0. -1.
    8880023    1    1    2    0    0  0.14536665170E+03 -0.12926773319E+03 -0.23543748558E+04  0.24524952147E+04  0.65864270000E+03 0. -1.
    8880022    1    1    2    0    0 -0.14536665170E+03  0.12926773319E+03  0.91426462150E+02  0.26380307289E+03  0.15294330000E+03 0.  0.
<mgrwt>
<rscale>  0 0.53208558E+03</rscale>
<asrwt>0</asrwt>
<pdfrwt beam="1">  1        1 0.38301896E+00 0.68676911E+03</pdfrwt>
<pdfrwt beam="2">  1       -1 0.34873071E-01 0.68676911E+03</pdfrwt>
<totfact> 0.11441714E+01</totfact>
</mgrwt>
</event>
<event>
 4    5  0.7176259E-008  0.8950178E+03  0.7818608E-02  0.9534078E-01
          1   -1    0    0  501    0  0.00000000000E+00  0.00000000000E+00  0.16026976701E+04  0.16026976701E+04  0.50400000000E-02 0. -1.
         -1   -1    0    0    0  501 -0.00000000000E+00 -0.00000000000E+00 -0.11443203961E+04  0.11443203961E+04  0.50400000000E-02 0.  1.
    8880023    1    1    2    0    0  0.60585417486E+03  0.13685226569E+02  0.13731688914E+04  0.16391002340E+04  0.65864270000E+03 0.  0.
    8880022    1    1    2    0    0 -0.60585417486E+03 -0.13685226569E+02 -0.91479161743E+03  0.11079178322E+04  0.15294330000E+03 0.  0.
<mgrwt>
<rscale>  0 0.81817382E+03</rscale>
<asrwt>0</asrwt>
<pdfrwt beam="1">  1        1 0.24656887E+00 0.89501775E+03</pdfrwt>
<pdfrwt beam="2">  1       -1 0.17604929E+00 0.89501775E+03</pdfrwt>
<totfact> 0.12644207E+00</totfact>
</mgrwt>
</event>
<event>
 4    5  0.7176259E-008  0.6707619E+03  0.7818608E-02  0.1015122E+00
         -1   -1    0    0    0  501 -0.00000000000E+00  0.00000000000E+00  0.74722177132E+03  0.74722177134E+03  0.50400000000E-02 0.  1.
          1   -1    0    0  501    0  0.00000000000E+00 -0.00000000000E+00 -0.28824578924E+03  0.28824578928E+03  0.50400000000E-02 0. -1.
    8880023    1    1    2    0    0 -0.10121442258E+03 -0.76595819482E+02  0.18282911791E+03  0.69523231478E+03  0.65864270000E+03 0.  0.
    8880022    1    1    2    0    0  0.10121442258E+03  0.76595819482E+02  0.27614686418E+03  0.34023524584E+03  0.15294330000E+03 0. -1.
<mgrwt>
<rscale>  0 0.49488574E+03</rscale>
<asrwt>0</asrwt>
<pdfrwt beam="1">  1        1 0.44345506E-01 0.67076187E+03</pdfrwt>
<pdfrwt beam="2">  1       -1 0.11495720E+00 0.67076187E+03</pdfrwt>
<totfact> 0.65028680E+01</totfact>
</mgrwt>
</event>
<event>
 4    5  0.7176259E-008  0.7127158E+03  0.7818608E-02  0.9948051E-01
          1   -1    0    0  501    0  0.00000000000E+00  0.00000000000E+00  0.89832412094E+03  0.89832412095E+03  0.50400000000E-02 0. -1.
         -1   -1    0    0    0  501 -0.00000000000E+00 -0.00000000000E+00 -0.36805269375E+03  0.36805269378E+03  0.50400000000E-02 0.  1.
    8880023    1    1    2    0    0 -0.24395902864E+03  0.12098596053E+03  0.61651413992E+03  0.94236590626E+03  0.65864270000E+03 0.  0.
    8880022    1    1    2    0    0  0.24395902864E+03 -0.12098596053E+03 -0.86242712728E+02  0.32401090848E+03  0.15294330000E+03 0.  0.
<mgrwt>
<rscale>  0 0.57987991E+03</rscale>
<asrwt>0</asrwt>
<pdfrwt beam="1">  1        1 0.13820371E+00 0.71271580E+03</pdfrwt>
<pdfrwt beam="2">  1       -1 0.56623492E-01 0.71271580E+03</pdfrwt>
<totfact> 0.59125027E+01</totfact>
</mgrwt>
</event>
<event>
 4    5  0.7176259E-008  0.7125290E+03  0.7818608E-02  0.9948727E-01
         -1   -1    0    0    0  501 -0.00000000000E+00  0.00000000000E+00  0.12704130868E+04  0.12704130868E+04  0.50400000000E-02 0.  1.
          1   -1    0    0  501    0  0.00000000000E+00 -0.00000000000E+00 -0.10360483056E+04  0.10360483057E+04  0.50400000000E-02 0. -1.
    8880023    1    1    2    0    0 -0.27136491514E+03  0.15760939482E+02 -0.88974320164E+03  0.11398861766E+04  0.65864270000E+03 0. -1.
    8880022    1    1    2    0    0  0.27136491514E+03 -0.15760939482E+02  0.11241079828E+04  0.11665752159E+04  0.15294330000E+03 0.  0.
<mgrwt>
<rscale>  0 0.57956783E+03</rscale>
<asrwt>0</asrwt>
<pdfrwt beam="1">  1        1 0.15939205E+00 0.71252897E+03</pdfrwt>
<pdfrwt beam="2">  1       -1 0.19544817E+00 0.71252897E+03</pdfrwt>
<totfact> 0.24098438E+00</totfact>
</mgrwt>
</event>
<event>
 4    5  0.7176259E-008  0.6876486E+03  0.7818608E-02  0.1005291E+00
          1   -1    0    0  501    0  0.00000000000E+00  0.00000000000E+00  0.63556871683E+03  0.63556871685E+03  0.50400000000E-02 0. -1.
         -1   -1    0    0    0  501 -0.00000000000E+00 -0.00000000000E+00 -0.10492788580E+04  0.10492788580E+04  0.50400000000E-02 0.  1.
    8880023    1    1    2    0    0 -0.19758055604E+03 -0.35161645479E+01  0.42588856364E+03  0.80885209676E+03  0.65864270000E+03 0. -1.
    8880022    1    1    2    0    0  0.19758055604E+03  0.35161645479E+01 -0.83959870476E+03  0.87599547806E+03  0.15294330000E+03 0.  0.
<mgrwt>
<rscale>  0 0.53389963E+03</rscale>
<asrwt>0</asrwt>
<pdfrwt beam="1">  1        1 0.97779803E-01 0.68764864E+03</pdfrwt>
<pdfrwt beam="2">  1       -1 0.16142752E+00 0.68764864E+03</pdfrwt>
<totfact> 0.93336214E+00</totfact>
</mgrwt>
</event>
<event>
 4    5  0.7176259E-008  0.6948045E+03  0.7818608E-02  0.1001948E+00
          1   -1    0    0  501    0  0.00000000000E+00  0.00000000000E+00  0.53905588438E+03  0.53905588440E+03  0.50400000000E-02 0. -1.
         -1   -1    0    0    0  501 -0.00000000000E+00 -0.00000000000E+00 -0.96499230122E+03  0.96499230123E+03  0.50400000000E-02 0.  1.
    8880023    1    1    2    0    0 -0.16856721424E+02 -0.22058774840E+03  0.27962708099E+03  0.74896235853E+03  0.65864270000E+03 0.  0.
    8880022    1    1    2    0    0  0.16856721424E+02  0.22058774840E+03 -0.70556349783E+03  0.75508582710E+03  0.15294330000E+03 0.  0.
<mgrwt>
<rscale>  0 0.54804390E+03</rscale>
<asrwt>0</asrwt>
<pdfrwt beam="1">  1        1 0.82931675E-01 0.69480451E+03</pdfrwt>
<pdfrwt beam="2">  1       -1 0.14846035E+00 0.69480451E+03</pdfrwt>
<totfact> 0.14814419E+01</totfact>
</mgrwt>
</event>
<event>
 4    5  0.7176259E-008  0.7320254E+03  0.7818608E-02  0.9883817E-01
          1   -1    0    0  501    0  0.00000000000E+00  0.00000000000E+00  0.40341515809E+03  0.40341515812E+03  0.50400000000E-02 0. -1.
         -1   -1    0    0    0  501 -0.00000000000E+00 -0.00000000000E+00 -0.13891055773E+04  0.13891055773E+04  0.50400000000E-02 0.  1.
    8880023    1    1    2    0    0 -0.19507380985E+03 -0.25297664966E+03  0.13775860500E+02  0.73215500897E+03  0.65864270000E+03 0. -1.
    8880022    1    1    2    0    0  0.19507380985E+03  0.25297664966E+03 -0.99946627974E+03  0.10603657265E+04  0.15294330000E+03 0.  0.
<mgrwt>
<rscale>  0 0.61052051E+03</rscale>
<asrwt>0</asrwt>
<pdfrwt beam="1">  1        1 0.62063871E-01 0.73202540E+03</pdfrwt>
<pdfrwt beam="2">  1       -1 0.21370855E+00 0.73202540E+03</pdfrwt>
<totfact> 0.74601572E+00</totfact>
</mgrwt>
</event>
<event>
 4    5  0.7176259E-008  0.7932729E+03  0.7818608E-02  0.9725535E-01
         -1   -1    0    0    0  501 -0.00000000000E+00  0.00000000000E+00  0.59269477999E+03  0.59269478002E+03  0.50400000000E-02 0.  1.
          1   -1    0    0  501    0  0.00000000000E+00 -0.00000000000E+00 -0.23639941486E+04  0.23639941486E+04  0.50400000000E-02 0. -1.
    8880023    1    1    2    0    0  0.42502707516E+03 -0.12175259905E+03 -0.21897582815E+04  0.23290176572E+04  0.65864270000E+03 0. -1.
    8880022    1    1    2    0    0 -0.42502707516E+03  0.12175259905E+03  0.41845891297E+03  0.62767127133E+03  0.15294330000E+03 0.  0.
<mgrwt>
<rscale>  0 0.69516613E+03</rscale>
<asrwt>0</asrwt>
<pdfrwt beam="1">  1        1 0.36369140E+00 0.79327291E+03</pdfrwt>
<pdfrwt beam="2">  1       -1 0.91183814E-01 0.79327291E+03</pdfrwt>
<totfact> 0.20769090E+00</totfact>
</mgrwt>
</event>
<event>
 4    5  0.8405662E-008  0.8802171E+03  0.7818608E-02  0.9558566E-01
          1   -1    0    0  501    0  0.00000000000E+00  0.00000000000E+00  0.22892123509E+04  0.22892123509E+04  0.50400000000E-02 0. -1.
         -1   -1    0    0    0  501 -0.00000000000E+00 -0.00000000000E+00 -0.13564499492E+04  0.13564499492E+04  0.50400000000E-02 0.  1.
    8880023    1    1    2    0    0 -0.64183536065E+02 -0.58038989577E+03  0.21300851812E+04  0.23047874182E+04  0.65864270000E+03 0.  0.
    8880022    1    1    2    0    0  0.64183536065E+02  0.58038989577E+03 -0.11973227796E+04  0.13408748819E+04  0.15294330000E+03 0.  0.
<mgrwt>
<rscale>  0 0.80100316E+03</rscale>
<asrwt>0</asrwt>
<pdfrwt beam="1">  1        1 0.35218651E+00 0.88021711E+03</pdfrwt>
<pdfrwt beam="2">  1       -1 0.20868461E+00 0.88021711E+03</pdfrwt>
<totfact> 0.25882710E-01</totfact>
</mgrwt>
</event>
<event>
 4    5  0.7176259E-008  0.1083317E+04  0.7818608E-02  0.9279861E-01
          1   -1    0    0  501    0  0.00000000000E+00  0.00000000000E+00  0.12531988518E+04  0.12531988518E+04  0.50400000000E-02 0. -1.
         -1   -1    0    0    0  501 -0.00000000000E+00 -0.00000000000E+00 -0.77080377885E+03  0.77080377887E+03  0.50400000000E-02 0.  1.
    8880023    1    1    2    0    0 -0.47691381014E+03 -0.71576491623E+03  0.36175891917E+03  0.11421234257E+04  0.65864270000E+03 0.  0.
    8880022    1    1    2    0    0  0.47691381014E+03  0.71576491623E+03  0.12063615377E+03  0.88187920500E+03  0.15294330000E+03 0.  0.
<mgrwt>
<rscale>  0 0.10265818E+04</rscale>
<asrwt>0</asrwt>
<pdfrwt beam="1">  1        1 0.19279982E+00 0.10833173E+04</pdfrwt>
<pdfrwt beam="2">  1       -1 0.11858520E+00 0.10833173E+04</pdfrwt>
<totfact> 0.61953606E+00</totfact>
</mgrwt>
</event>
<event>
 4    5  0.7176259E-008  0.6818922E+03  0.7818608E-02  0.1008273E+00
         -1   -1    0    0    0  501 -0.00000000000E+00  0.00000000000E+00  0.68120297521E+03  0.68120297523E+03  0.50400000000E-02 0.  1.
          1   -1    0    0  501    0  0.00000000000E+00 -0.00000000000E+00 -0.43093249926E+03  0.43093249929E+03  0.50400000000E-02 0. -1.
    8880023    1    1    2    0    0 -0.14946726773E+03 -0.93948503381E+02 -0.10198282546E+03  0.68947624206E+03  0.65864270000E+03 0. -1.
    8880022    1    1    2    0    0  0.14946726773E+03  0.93948503381E+02  0.35225330141E+03  0.42265923246E+03  0.15294330000E+03 0.  0.
<mgrwt>
<rscale>  0 0.52166841E+03</rscale>
<asrwt>0</asrwt>
<pdfrwt beam="1">  1        1 0.66297308E-01 0.68189221E+03</pdfrwt>
<pdfrwt beam="2">  1       -1 0.10480046E+00 0.68189221E+03</pdfrwt>
<totfact> 0.47696848E+01</totfact>
</mgrwt>
</event>
<event>
 4    5  0.7176259E-008  0.1351165E+04  0.7818608E-02  0.9022589E-01
         -1   -1    0    0    0  501 -0.00000000000E+00  0.00000000000E+00  0.93776037732E+03  0.93776037733E+03  0.50400000000E-02 0.  1.
          1   -1    0    0  501    0  0.00000000000E+00 -0.00000000000E+00 -0.34989575394E+04  0.34989575395E+04  0.50400000000E-02 0. -1.
    8880023    1    1    2    0    0 -0.91607164766E+03 -0.74340351324E+03 -0.29003900753E+04  0.31996732399E+04  0.65864270000E+03 0.  0.
    8880022    1    1    2    0    0  0.91607164766E+03  0.74340351324E+03  0.33919291319E+03  0.12370446768E+04  0.15294330000E+03 0.  0.
<mgrwt>
<rscale>  0 0.13088339E+04</rscale>
<asrwt>0</asrwt>
<pdfrwt beam="1">  1        1 0.53830116E+00 0.13511648E+04</pdfrwt>
<pdfrwt beam="2">  1       -1 0.14427083E+00 0.13511648E+04</pdfrwt>
<totfact> 0.94745856E-02</totfact>
</mgrwt>
</event>
<event>
 4    5  0.7176259E-008  0.6587982E+03  0.7818608E-02  0.1025423E+00
          1   -1    0    0  501    0  0.00000000000E+00  0.00000000000E+00  0.21502659955E+04  0.21502659955E+04  0.50400000000E-02 0. -1.
         -1   -1    0    0    0  501 -0.00000000000E+00 -0.00000000000E+00 -0.58163302651E+03  0.58163302653E+03  0.50400000000E-02 0.  1.
    8880023    1    1    2    0    0  0.56588701425E+01  0.13148222152E+02  0.20884318945E+04  0.21898773671E+04  0.65864270000E+03 0. -1.
    8880022    1    1    2    0    0 -0.56588701425E+01 -0.13148222152E+02 -0.51979892548E+03  0.54202165501E+03  0.15294330000E+03 0.  0.
<mgrwt>
<rscale>  0 0.45779430E+03</rscale>
<asrwt>0</asrwt>
<pdfrwt beam="1">  1        1 0.33081015E+00 0.65879823E+03</pdfrwt>
<pdfrwt beam="2">  1       -1 0.89482004E-01 0.65879823E+03</pdfrwt>
<totfact> 0.30973804E+00</totfact>
</mgrwt>
</event>
<event>
 4    5  0.7176259E-008  0.9514172E+03  0.7818608E-02  0.9448078E-01
         -1   -1    0    0    0  501 -0.00000000000E+00  0.00000000000E+00  0.66943631482E+03  0.66943631483E+03  0.50400000000E-02 0.  1.
          1   -1    0    0  501    0  0.00000000000E+00 -0.00000000000E+00 -0.33409206644E+04  0.33409206644E+04  0.50400000000E-02 0. -1.
    8880023    1    1    2    0    0  0.26376471869E+03  0.63388696509E+03 -0.30615936582E+04  0.32060178486E+04  0.65864270000E+03 0. -1.
    8880022    1    1    2    0    0 -0.26376471869E+03 -0.63388696509E+03  0.39010930864E+03  0.80433913062E+03  0.15294330000E+03 0.  0.
<mgrwt>
<rscale>  0 0.88222498E+03</rscale>
<asrwt>0</asrwt>
<pdfrwt beam="1">  1        1 0.51398778E+00 0.95141722E+03</pdfrwt>
<pdfrwt beam="2">  1       -1 0.10299020E+00 0.95141722E+03</pdfrwt>
<totfact> 0.30933520E-01</totfact>
</mgrwt>
</event>
<event>
 4    5  0.7650086E-008  0.6759304E+03  0.7818608E-02  0.1011726E+00
          1   -1    0    0  501    0  0.00000000000E+00  0.00000000000E+00  0.17999975436E+04  0.17999975436E+04  0.50400000000E-02 0. -1.
         -1   -1    0    0    0  501 -0.00000000000E+00 -0.00000000000E+00 -0.88030014860E+03  0.88030014862E+03  0.50400000000E-02 0.  1.
    8880023    1    1    2    0    0 -0.13664582899E+03 -0.66329879846E+02  0.17218068058E+04  0.18497298772E+04  0.65864270000E+03 0. -1.
    8880022    1    1    2    0    0  0.13664582899E+03  0.66329879846E+02 -0.80210941081E+03  0.83056781510E+03  0.15294330000E+03 0.  0.
<mgrwt>
<rscale>  0 0.50794344E+03</rscale>
<asrwt>0</asrwt>
<pdfrwt beam="1">  1        1 0.27692270E+00 0.67593043E+03</pdfrwt>
<pdfrwt beam="2">  1       -1 0.13543079E+00 0.67593043E+03</pdfrwt>
<totfact> 0.19872182E+00</totfact>
</mgrwt>
</event>
<event>
 4    5  0.7176259E-008  0.7913409E+03  0.7818608E-02  0.9729841E-01
          1   -1    0    0  501    0  0.00000000000E+00  0.00000000000E+00  0.90213514285E+03  0.90213514286E+03  0.50400000000E-02 0. -1.
         -1   -1    0    0    0  501 -0.00000000000E+00 -0.00000000000E+00 -0.10682507346E+04  0.10682507346E+04  0.50400000000E-02 0.  1.
    8880023    1    1    2    0    0 -0.43290045944E+03 -0.70763024073E+02  0.65481368438E+03  0.10271326014E+04  0.65864270000E+03 0. -1.
    8880022    1    1    2    0    0  0.43290045944E+03  0.70763024073E+02 -0.82092927609E+03  0.94325327602E+03  0.15294330000E+03 0.  0.
<mgrwt>
<rscale>  0 0.69267515E+03</rscale>
<asrwt>0</asrwt>
<pdfrwt beam="1">  1        1 0.13879002E+00 0.79134090E+03</pdfrwt>
<pdfrwt beam="2">  1       -1 0.16434627E+00 0.79134090E+03</pdfrwt>
<totfact> 0.50574743E+00</totfact>
</mgrwt>
</event>
<event>
 4    5  0.7176259E-008  0.8483519E+03  0.7818608E-02  0.9614629E-01
         -1   -1    0    0    0  501 -0.00000000000E+00  0.00000000000E+00  0.10123981394E+04  0.10123981394E+04  0.50400000000E-02 0.  1.
          1   -1    0    0  501    0  0.00000000000E+00 -0.00000000000E+00 -0.13441296323E+04  0.13441296323E+04  0.50400000000E-02 0. -1.
    8880023    1    1    2    0    0  0.53167282550E+03 -0.56698395745E+02 -0.11118095418E+04  0.13985068341E+04  0.65864270000E+03 0. -1.
    8880022    1    1    2    0    0 -0.53167282550E+03  0.56698395745E+02  0.78007804897E+03  0.95802093764E+03  0.15294330000E+03 0.  0.
<mgrwt>
<rscale>  0 0.76335475E+03</rscale>
<asrwt>0</asrwt>
<pdfrwt beam="1">  1        1 0.20678917E+00 0.84835188E+03</pdfrwt>
<pdfrwt beam="2">  1       -1 0.15575356E+00 0.84835188E+03</pdfrwt>
<totfact> 0.27193840E+00</totfact>
</mgrwt>
</event>
<event>
 4    5  0.7176259E-008  0.1235194E+04  0.7818608E-02  0.9123648E-01
          1   -1    0    0  501    0  0.00000000000E+00  0.00000000000E+00  0.27135225670E+04  0.27135225670E+04  0.50400000000E-02 0. -1.
         -1   -1    0    0    0  501 -0.00000000000E+00 -0.00000000000E+00 -0.82012511631E+03  0.82012511632E+03  0.50400000000E-02 0.  1.
    8880023    1    1    2    0    0 -0.88436346415E+03 -0.55659331421E+03  0.21199520872E+04  0.24535488404E+04  0.65864270000E+03 0.  0.
    8880022    1    1    2    0    0  0.88436346415E+03  0.55659331421E+03 -0.22655463648E+03  0.10800988429E+04  0.15294330000E+03 0.  0.
<mgrwt>
<rscale>  0 0.11877493E+04</rscale>
<asrwt>0</asrwt>
<pdfrwt beam="1">  1        1 0.41746500E+00 0.12351943E+04</pdfrwt>
<pdfrwt beam="2">  1       -1 0.12617310E+00 0.12351943E+04</pdfrwt>
<totfact> 0.51729397E-01</totfact>
</mgrwt>
</event>
<event>
 4    5  0.7781582E-008  0.9866238E+03  0.7818608E-02  0.9399271E-01
         -1   -1    0    0    0  501 -0.00000000000E+00  0.00000000000E+00  0.14614619077E+04  0.14614619077E+04  0.50400000000E-02 0.  1.
          1   -1    0    0  501    0  0.00000000000E+00 -0.00000000000E+00 -0.13589464606E+04  0.13589464606E+04  0.50400000000E-02 0. -1.
    8880023    1    1    2    0    0  0.37582338956E+03 -0.63116805506E+03 -0.10527784659E+04  0.14428336835E+04  0.65864270000E+03 0. -1.
    8880022    1    1    2    0    0 -0.37582338956E+03  0.63116805506E+03  0.11552939129E+04  0.13775746848E+04  0.15294330000E+03 0.  0.
<mgrwt>
<rscale>  0 0.92135716E+03</rscale>
<asrwt>0</asrwt>
<pdfrwt beam="1">  1        1 0.20906869E+00 0.98662381E+03</pdfrwt>
<pdfrwt beam="2">  1       -1 0.22484029E+00 0.98662381E+03</pdfrwt>
<totfact> 0.84722560E-01</totfact>
</mgrwt>
</event>
<event>
 4    5  0.7176259E-008  0.1144974E+04  0.7818608E-02  0.9212561E-01
         -1   -1    0    0    0  501 -0.00000000000E+00  0.00000000000E+00  0.70520378121E+03  0.70520378123E+03  0.50400000000E-02 0.  1.
          1   -1    0    0  501    0  0.00000000000E+00 -0.00000000000E+00 -0.24918594186E+04  0.24918594186E+04  0.50400000000E-02 0. -1.
    8880023    1    1    2    0    0  0.91814900754E+03 -0.18481763303E+03 -0.19232906796E+04  0.22383056990E+04  0.65864270000E+03 0.  0.
    8880022    1    1    2    0    0 -0.91814900754E+03  0.18481763303E+03  0.13663504230E+03  0.95875750079E+03  0.15294330000E+03 0.  0.
<mgrwt>
<rscale>  0 0.10924712E+04</rscale>
<asrwt>0</asrwt>
<pdfrwt beam="1">  1        1 0.38336298E+00 0.11449740E+04</pdfrwt>
<pdfrwt beam="2">  1       -1 0.10849289E+00 0.11449740E+04</pdfrwt>
<totfact> 0.10786906E+00</totfact>
</mgrwt>
</event>
<event>
 4    5  0.7176259E-008  0.6623933E+03  0.7818608E-02  0.1021828E+00
          1   -1    0    0  501    0  0.00000000000E+00  0.00000000000E+00  0.52333322781E+03  0.52333322783E+03  0.50400000000E-02 0. -1.
         -1   -1    0    0    0  501 -0.00000000000E+00 -0.00000000000E+00 -0.82416511113E+03  0.82416511115E+03  0.50400000000E-02 0.  1.
    8880023    1    1    2    0    0 -0.28465636550E+02 -0.64376690082E+02  0.29735098923E+03  0.72607332119E+03  0.65864270000E+03 0. -1.
    8880022    1    1    2    0    0  0.28465636550E+02  0.64376690082E+02 -0.59818287256E+03  0.62142501778E+03  0.15294330000E+03 0.  0.
<mgrwt>
<rscale>  0 0.47032601E+03</rscale>
<asrwt>0</asrwt>
<pdfrwt beam="1">  1        1 0.80512804E-01 0.66239328E+03</pdfrwt>
<pdfrwt beam="2">  1       -1 0.12679463E+00 0.66239328E+03</pdfrwt>
<totfact> 0.23259031E+01</totfact>
</mgrwt>
</event>
<event>
 4    5  0.7176259E-008  0.1033855E+04  0.7818608E-02  0.9338546E-01
          1   -1    0    0  501    0  0.00000000000E+00  0.00000000000E+00  0.10032100751E+04  0.10032100751E+04  0.50400000000E-02 0. -1.
         -1   -1    0    0    0  501 -0.00000000000E+00 -0.00000000000E+00 -0.16066508220E+04  0.16066508220E+04  0.50400000000E-02 0.  1.
    8880023    1    1    2    0    0  0.62172785904E+03 -0.49849885144E+03  0.57199904294E+03  0.11815412591E+04  0.65864270000E+03 0. -1.
    8880022    1    1    2    0    0 -0.62172785904E+03  0.49849885144E+03 -0.11754397898E+04  0.14283196379E+04  0.15294330000E+03 0.  0.
<mgrwt>
<rscale>  0 0.97310390E+03</rscale>
<asrwt>0</asrwt>
<pdfrwt beam="1">  1        1 0.15434001E+00 0.10338553E+04</pdfrwt>
<pdfrwt beam="2">  1       -1 0.24717705E+00 0.10338553E+04</pdfrwt>
<totfact> 0.10978371E+00</totfact>
</mgrwt>
</event>
<event>
 4    5  0.7176259E-008  0.9878414E+03  0.7818608E-02  0.9397641E-01
         -1   -1    0    0    0  501 -0.00000000000E+00  0.00000000000E+00  0.61763884943E+03  0.61763884945E+03  0.50400000000E-02 0.  1.
          1   -1    0    0  501    0  0.00000000000E+00 -0.00000000000E+00 -0.24071862415E+04  0.24071862415E+04  0.50400000000E-02 0. -1.
    8880023    1    1    2    0    0 -0.70991375274E+03  0.19504570512E+03 -0.20113639323E+04  0.22408514984E+04  0.65864270000E+03 0.  0.
    8880022    1    1    2    0    0  0.70991375274E+03 -0.19504570512E+03  0.22181654018E+03  0.78397359262E+03  0.15294330000E+03 0.  0.
<mgrwt>
<rscale>  0 0.92270110E+03</rscale>
<asrwt>0</asrwt>
<pdfrwt beam="1">  1        1 0.37033634E+00 0.98784137E+03</pdfrwt>
<pdfrwt beam="2">  1       -1 0.95021363E-01 0.98784137E+03</pdfrwt>
<totfact> 0.17129781E+00</totfact>
</mgrwt>
</event>
<event>
 4    5  0.7176259E-008  0.1009468E+04  0.7818608E-02  0.9369274E-01
         -1   -1    0    0    0  501 -0.00000000000E+00  0.00000000000E+00  0.10311832103E+04  0.10311832103E+04  0.50400000000E-02 0.  1.
          1   -1    0    0  501    0  0.00000000000E+00 -0.00000000000E+00 -0.83275315056E+03  0.83275315057E+03  0.50400000000E-02 0. -1.
    8880023    1    1    2    0    0  0.70141199033E+03  0.30534803290E+03 -0.12938597158E+03  0.10177264550E+04  0.65864270000E+03 0. -1.
    8880022    1    1    2    0    0 -0.70141199033E+03 -0.30534803290E+03  0.32781603134E+03  0.84620990587E+03  0.15294330000E+03 0.  0.
<mgrwt>
<rscale>  0 0.94648064E+03</rscale>
<asrwt>0</asrwt>
<pdfrwt beam="1">  1        1 0.12811587E+00 0.10094684E+04</pdfrwt>
<pdfrwt beam="2">  1       -1 0.15864357E+00 0.10094684E+04</pdfrwt>
<totfact> 0.62083745E+00</totfact>
</mgrwt>
</event>
<event>
 4    5  0.7176259E-008  0.8481227E+03  0.7818608E-02  0.9615050E-01
          1   -1    0    0  501    0  0.00000000000E+00  0.00000000000E+00  0.99206305592E+03  0.99206305593E+03  0.50400000000E-02 0. -1.
         -1   -1    0    0    0  501 -0.00000000000E+00 -0.00000000000E+00 -0.12120901274E+04  0.12120901274E+04  0.50400000000E-02 0.  1.
    8880023    1    1    2    0    0 -0.37821568824E+03 -0.37743183887E+03  0.71972892001E+03  0.11123496862E+04  0.65864270000E+03 0.  0.
    8880022    1    1    2    0    0  0.37821568824E+03  0.37743183887E+03 -0.93975599150E+03  0.10918034972E+04  0.15294330000E+03 0.  0.
<mgrwt>
<rscale>  0 0.76308008E+03</rscale>
<asrwt>0</asrwt>
<pdfrwt beam="1">  1        1 0.15262509E+00 0.84812270E+03</pdfrwt>
<pdfrwt beam="2">  1       -1 0.18647540E+00 0.84812270E+03</pdfrwt>
<totfact> 0.29422424E+00</totfact>
</mgrwt>
</event>
<event>
 4    5  0.7176259E-008  0.1366892E+04  0.7818608E-02  0.9009845E-01
         -1   -1    0    0    0  501 -0.00000000000E+00  0.00000000000E+00  0.27616642991E+04  0.27616642991E+04  0.50400000000E-02 0.  1.
          1   -1    0    0  501    0  0.00000000000E+00 -0.00000000000E+00 -0.15813318931E+04  0.15813318931E+04  0.50400000000E-02 0. -1.
    8880023    1    1    2    0    0 -0.83787896070E+03  0.85588671567E+03 -0.11054053951E+04  0.17579290420E+04  0.65864270000E+03 0. -1.
    8880022    1    1    2    0    0  0.83787896070E+03 -0.85588671567E+03  0.22857378011E+04  0.25850671503E+04  0.15294330000E+03 0.  0.
<mgrwt>
<rscale>  0 0.13251632E+04</rscale>
<asrwt>0</asrwt>
<pdfrwt beam="1">  1        1 0.24328183E+00 0.13668919E+04</pdfrwt>
<pdfrwt beam="2">  1       -1 0.42487142E+00 0.13668919E+04</pdfrwt>
<totfact> 0.26749731E-02</totfact>
</mgrwt>
</event>
<event>
 4    5  0.7176259E-008  0.1052057E+04  0.7818608E-02  0.9316413E-01
          1   -1    0    0  501    0  0.00000000000E+00  0.00000000000E+00  0.15868008226E+04  0.15868008226E+04  0.50400000000E-02 0. -1.
         -1   -1    0    0    0  501 -0.00000000000E+00 -0.00000000000E+00 -0.93875931008E+03  0.93875931009E+03  0.50400000000E-02 0.  1.
    8880023    1    1    2    0    0  0.25318226784E+03  0.78032810953E+03  0.11444736122E+04  0.15545556518E+04  0.65864270000E+03 0.  0.
    8880022    1    1    2    0    0 -0.25318226784E+03 -0.78032810953E+03 -0.49643209970E+03  0.97100448088E+03  0.15294330000E+03 0.  0.
<mgrwt>
<rscale>  0 0.99285792E+03</rscale>
<asrwt>0</asrwt>
<pdfrwt beam="1">  1        1 0.24412320E+00 0.10520568E+04</pdfrwt>
<pdfrwt beam="2">  1       -1 0.14442451E+00 0.10520568E+04</pdfrwt>
<totfact> 0.21984880E+00</totfact>
</mgrwt>
</event>
<event>
 4    5  0.7176259E-008  0.7427047E+03  0.7818608E-02  0.9852137E-01
          1   -1    0    0  501    0  0.00000000000E+00  0.00000000000E+00  0.26320152646E+04  0.26320152646E+04  0.50400000000E-02 0. -1.
         -1   -1    0    0    0  501 -0.00000000000E+00 -0.00000000000E+00 -0.36602897153E+03  0.36602897156E+03  0.50400000000E-02 0.  1.
    8880023    1    1    2    0    0 -0.12092125802E+03  0.32121355346E+03  0.24638643154E+04  0.25733708766E+04  0.65864270000E+03 0. -1.
    8880022    1    1    2    0    0  0.12092125802E+03 -0.32121355346E+03 -0.19787802235E+03  0.42467335955E+03  0.15294330000E+03 0.  0.
<mgrwt>
<rscale>  0 0.62638061E+03</rscale>
<asrwt>0</asrwt>
<pdfrwt beam="1">  1        1 0.40492544E+00 0.74270472E+03</pdfrwt>
<pdfrwt beam="2">  1       -1 0.56312148E-01 0.74270472E+03</pdfrwt>
<totfact> 0.37223881E+00</totfact>
</mgrwt>
</event>
<event>
 4    5  0.7176259E-008  0.8845360E+03  0.7818608E-02  0.9551327E-01
          1   -1    0    0  501    0  0.00000000000E+00  0.00000000000E+00  0.78521770477E+03  0.78521770478E+03  0.50400000000E-02 0. -1.
         -1   -1    0    0    0  501 -0.00000000000E+00 -0.00000000000E+00 -0.19408090208E+04  0.19408090209E+04  0.50400000000E-02 0.  1.
    8880023    1    1    2    0    0  0.45973937329E+03 -0.37045028150E+03  0.46153656623E+03  0.99770732715E+03  0.65864270000E+03 0.  0.
    8880022    1    1    2    0    0 -0.45973937329E+03  0.37045028150E+03 -0.16171278823E+04  0.17283193985E+04  0.15294330000E+03 0.  0.
<mgrwt>
<rscale>  0 0.80603214E+03</rscale>
<asrwt>0</asrwt>
<pdfrwt beam="1">  1        1 0.12080272E+00 0.88453598E+03</pdfrwt>
<pdfrwt beam="2">  1       -1 0.29858600E+00 0.88453598E+03</pdfrwt>
<totfact> 0.79309856E-01</totfact>
</mgrwt>
</event>
<event>
 4    5  0.7176259E-008  0.8465129E+03  0.7818608E-02  0.9618020E-01
          1   -1    0    0  501    0  0.00000000000E+00  0.00000000000E+00  0.36808981457E+04  0.36808981457E+04  0.50400000000E-02 0. -1.
         -1   -1    0    0    0  501 -0.00000000000E+00 -0.00000000000E+00 -0.15497567432E+03  0.15497567440E+03  0.50400000000E-02 0.  1.
    8880023    1    1    2    0    0  0.11482496858E+03  0.51921964602E+03  0.27871255810E+04  0.29128427738E+04  0.65864270000E+03 0.  0.
    8880022    1    1    2    0    0 -0.11482496858E+03 -0.51921964602E+03  0.73879689035E+03  0.92303104630E+03  0.15294330000E+03 0.  0.
<mgrwt>
<rscale>  0 0.76114902E+03</rscale>
<asrwt>0</asrwt>
<pdfrwt beam="1">  1        1 0.56629199E+00 0.84651286E+03</pdfrwt>
<pdfrwt beam="2">  1       -1 0.23842413E-01 0.84651286E+03</pdfrwt>
<totfact> 0.29002739E+00</totfact>
</mgrwt>
</event>
<event>
 4    5  0.7176259E-008  0.1265906E+04  0.7818608E-02  0.9095576E-01
          1   -1    0    0  501    0  0.00000000000E+00  0.00000000000E+00  0.53191983173E+03  0.53191983176E+03  0.50400000000E-02 0. -1.
         -1   -1    0    0    0  501 -0.00000000000E+00 -0.00000000000E+00 -0.46797399425E+04  0.46797399425E+04  0.50400000000E-02 0.  1.
    8880023    1    1    2    0    0 -0.67059890338E+03 -0.84794089782E+03 -0.43017306811E+03  0.13369987772E+04  0.65864270000E+03 0.  0.
    8880022    1    1    2    0    0  0.67059890338E+03  0.84794089782E+03 -0.37176470426E+04  0.38746609970E+04  0.15294330000E+03 0.  0.
<mgrwt>
<rscale>  0 0.12199443E+04</rscale>
<asrwt>0</asrwt>
<pdfrwt beam="1">  1        1 0.81833823E-01 0.12659056E+04</pdfrwt>
<pdfrwt beam="2">  1       -1 0.71995996E+00 0.12659056E+04</pdfrwt>
<totfact> 0.67506417E-03</totfact>
</mgrwt>
</event>
<event>
 4    5  0.7176259E-008  0.8635762E+03  0.7818608E-02  0.9587233E-01
          1   -1    0    0  501    0  0.00000000000E+00  0.00000000000E+00  0.26367466391E+04  0.26367466391E+04  0.50400000000E-02 0. -1.
         -1   -1    0    0    0  501 -0.00000000000E+00 -0.00000000000E+00 -0.60014331690E+03  0.60014331692E+03  0.50400000000E-02 0.  1.
    8880023    1    1    2    0    0 -0.53959141524E+03  0.14420404042E+03  0.24017521218E+04  0.25522886125E+04  0.65864270000E+03 0. -1.
    8880022    1    1    2    0    0  0.53959141524E+03 -0.14420404042E+03 -0.36514879960E+03  0.68460134351E+03  0.15294330000E+03 0.  0.
<mgrwt>
<rscale>  0 0.78146953E+03</rscale>
<asrwt>0</asrwt>
<pdfrwt beam="1">  1        1 0.40565334E+00 0.86357623E+03</pdfrwt>
<pdfrwt beam="2">  1       -1 0.92329739E-01 0.86357623E+03</pdfrwt>
<totfact> 0.12969798E+00</totfact>
</mgrwt>
</event>
<event>
 4    5  0.7176259E-008  0.8294212E+03  0.7818608E-02  0.9650460E-01
          1   -1    0    0  501    0  0.00000000000E+00  0.00000000000E+00  0.16782014142E+04  0.16782014142E+04  0.50400000000E-02 0. -1.
         -1   -1    0    0    0  501 -0.00000000000E+00 -0.00000000000E+00 -0.34481187239E+03  0.34481187242E+03  0.50400000000E-02 0.  1.
    8880023    1    1    2    0    0  0.49607122969E+03 -0.89681141017E+02  0.12341180805E+04  0.14869388067E+04  0.65864270000E+03 0. -1.
    8880022    1    1    2    0    0 -0.49607122969E+03  0.89681141017E+02  0.99271461309E+02  0.53607447993E+03  0.15294330000E+03 0.  0.
<mgrwt>
<rscale>  0 0.74044592E+03</rscale>
<asrwt>0</asrwt>
<pdfrwt beam="1">  1        1 0.25818484E+00 0.82942123E+03</pdfrwt>
<pdfrwt beam="2">  1       -1 0.53047980E-01 0.82942123E+03</pdfrwt>
<totfact> 0.18145392E+01</totfact>
</mgrwt>
</event>
<event>
 4    5  0.8378695E-008  0.7836016E+03  0.7818608E-02  0.9747444E-01
         -1   -1    0    0    0  501 -0.00000000000E+00  0.00000000000E+00  0.23869286424E+04  0.23869286424E+04  0.50400000000E-02 0.  1.
          1   -1    0    0  501    0  0.00000000000E+00 -0.00000000000E+00 -0.31383662589E+04  0.31383662589E+04  0.50400000000E-02 0. -1.
    8880023    1    1    2    0    0  0.21067198931E+03 -0.36856274970E+03 -0.30673360523E+04  0.31658461509E+04  0.65864270000E+03 0.  0.
    8880022    1    1    2    0    0 -0.21067198931E+03  0.36856274970E+03  0.23158984358E+04  0.23594487504E+04  0.15294330000E+03 0.  0.
<mgrwt>
<rscale>  0 0.68260916E+03</rscale>
<asrwt>0</asrwt>
<pdfrwt beam="1">  1        1 0.48282558E+00 0.78360155E+03</pdfrwt>
<pdfrwt beam="2">  1       -1 0.36721979E+00 0.78360155E+03</pdfrwt>
<totfact> 0.63229315E-03</totfact>
</mgrwt>
</event>
<event>
 4    5  0.1121650E-007  0.8347672E+03  0.7818608E-02  0.9640127E-01
          1   -1    0    0  501    0  0.00000000000E+00  0.00000000000E+00  0.23463064171E+04  0.23463064172E+04  0.50400000000E-02 0. -1.
         -1   -1    0    0    0  501 -0.00000000000E+00 -0.00000000000E+00 -0.23501991365E+04  0.23501991365E+04  0.50400000000E-02 0.  1.
    8880023    1    1    2    0    0 -0.46012656664E+03 -0.22651629531E+03  0.22395733389E+04  0.23900889180E+04  0.65864270000E+03 0. -1.
    8880022    1    1    2    0    0  0.46012656664E+03  0.22651629531E+03 -0.22434660583E+04  0.23064166356E+04  0.15294330000E+03 0.  0.
<mgrwt>
<rscale>  0 0.74696289E+03</rscale>
<asrwt>0</asrwt>
<pdfrwt beam="1">  1        1 0.36097022E+00 0.83476721E+03</pdfrwt>
<pdfrwt beam="2">  1       -1 0.36156910E+00 0.83476721E+03</pdfrwt>
<totfact> 0.24320442E-02</totfact>
</mgrwt>
</event>
<event>
 4    5  0.7176259E-008  0.8503812E+03  0.7818608E-02  0.9610908E-01
          1   -1    0    0  501    0  0.00000000000E+00  0.00000000000E+00  0.73922665082E+03  0.73922665084E+03  0.50400000000E-02 0. -1.
         -1   -1    0    0    0  501 -0.00000000000E+00 -0.00000000000E+00 -0.18682853032E+04  0.18682853032E+04  0.50400000000E-02 0.  1.
    8880023    1    1    2    0    0  0.53378926242E+03 -0.66385550129E+02  0.42876220478E+03  0.95235773344E+03  0.65864270000E+03 0.  0.
    8880022    1    1    2    0    0 -0.53378926242E+03  0.66385550129E+02 -0.15578208572E+04  0.16551542206E+04  0.15294330000E+03 0.  0.
<mgrwt>
<rscale>  0 0.76578417E+03</rscale>
<asrwt>0</asrwt>
<pdfrwt beam="1">  1        1 0.11372718E+00 0.85038122E+03</pdfrwt>
<pdfrwt beam="2">  1       -1 0.28742851E+00 0.85038122E+03</pdfrwt>
<totfact> 0.10338127E+00</totfact>
</mgrwt>
</event>
<event>
 4    5  0.7176259E-008  0.1022016E+04  0.7818608E-02  0.9353304E-01
         -1   -1    0    0    0  501 -0.00000000000E+00  0.00000000000E+00  0.67808880205E+03  0.67808880207E+03  0.50400000000E-02 0.  1.
          1   -1    0    0  501    0  0.00000000000E+00 -0.00000000000E+00 -0.36124478419E+04  0.36124478419E+04  0.50400000000E-02 0. -1.
    8880023    1    1    2    0    0  0.77145668275E+03  0.12474589398E+03 -0.32702950449E+04  0.34262730245E+04  0.65864270000E+03 0. -1.
    8880022    1    1    2    0    0 -0.77145668275E+03 -0.12474589398E+03  0.33593600506E+03  0.86426361947E+03  0.15294330000E+03 0.  0.
<mgrwt>
<rscale>  0 0.96020274E+03</rscale>
<asrwt>0</asrwt>
<pdfrwt beam="1">  1        1 0.55576119E+00 0.10220162E+04</pdfrwt>
<pdfrwt beam="2">  1       -1 0.10432136E+00 0.10220162E+04</pdfrwt>
<totfact> 0.18239166E-01</totfact>
</mgrwt>
</event>
<event>
 4    5  0.7176259E-008  0.6923073E+03  0.7818608E-02  0.1003075E+00
         -1   -1    0    0    0  501 -0.00000000000E+00  0.00000000000E+00  0.11539769825E+03  0.11539769836E+03  0.50400000000E-02 0.  1.
          1   -1    0    0  501    0  0.00000000000E+00 -0.00000000000E+00 -0.20045546933E+04  0.20045546933E+04  0.50400000000E-02 0. -1.
    8880023    1    1    2    0    0  0.17147698869E+03  0.12678642034E+03 -0.14791737584E+04  0.16331700364E+04  0.65864270000E+03 0. -1.
    8880022    1    1    2    0    0 -0.17147698869E+03 -0.12678642034E+03 -0.40998323659E+03  0.48678235520E+03  0.15294330000E+03 0.  1.
<mgrwt>
<rscale>  0 0.54322352E+03</rscale>
<asrwt>0</asrwt>
<pdfrwt beam="1">  1        1 0.30839300E+00 0.69230727E+03</pdfrwt>
<pdfrwt beam="2">  1       -1 0.17753494E-01 0.69230727E+03</pdfrwt>
<totfact> 0.76584115E+01</totfact>
</mgrwt>
</event>
<event>
 4    5  0.7176259E-008  0.8793519E+03  0.7818608E-02  0.9560026E-01
          1   -1    0    0  501    0  0.00000000000E+00  0.00000000000E+00  0.20534067133E+04  0.20534067133E+04  0.50400000000E-02 0. -1.
         -1   -1    0    0    0  501 -0.00000000000E+00 -0.00000000000E+00 -0.37020197685E+03  0.37020197689E+03  0.50400000000E-02 0.  1.
    8880023    1    1    2    0    0  0.41244313799E+02 -0.58116125461E+03  0.15859831325E+04  0.18134503578E+04  0.65864270000E+03 0. -1.
    8880022    1    1    2    0    0 -0.41244313799E+02  0.58116125461E+03  0.97221603894E+02  0.61015833237E+03  0.15294330000E+03 0.  0.
<mgrwt>
<rscale>  0 0.79999373E+03</rscale>
<asrwt>0</asrwt>
<pdfrwt beam="1">  1        1 0.31590871E+00 0.87935187E+03</pdfrwt>
<pdfrwt beam="2">  1       -1 0.56954152E-01 0.87935187E+03</pdfrwt>
<totfact> 0.87912562E+00</totfact>
</mgrwt>
</event>
<event>
 4    5  0.7176259E-008  0.9599647E+03  0.7818608E-02  0.9435920E-01
         -1   -1    0    0    0  501 -0.00000000000E+00  0.00000000000E+00  0.26352682987E+03  0.26352682992E+03  0.50400000000E-02 0.  1.
          1   -1    0    0  501    0  0.00000000000E+00 -0.00000000000E+00 -0.29047910040E+04  0.29047910040E+04  0.50400000000E-02 0. -1.
    8880023    1    1    2    0    0  0.20470989194E+03  0.66769439904E+03 -0.19518230966E+04  0.21751196650E+04  0.65864270000E+03 0.  0.
    8880022    1    1    2    0    0 -0.20470989194E+03 -0.66769439904E+03 -0.68944107751E+03  0.99319816892E+03  0.15294330000E+03 0.  0.
<mgrwt>
<rscale>  0 0.89177669E+03</rscale>
<asrwt>0</asrwt>
<pdfrwt beam="1">  1        1 0.44689090E+00 0.95996466E+03</pdfrwt>
<pdfrwt beam="2">  1       -1 0.40542591E-01 0.95996466E+03</pdfrwt>
<totfact> 0.42936574E+00</totfact>
</mgrwt>
</event>
<event>
 4    5  0.7176259E-008  0.1846234E+04  0.7818608E-02  0.8697384E-01
          1   -1    0    0  501    0  0.00000000000E+00  0.00000000000E+00  0.37594946101E+04  0.37594946101E+04  0.50400000000E-02 0. -1.
         -1   -1    0    0    0  501 -0.00000000000E+00 -0.00000000000E+00 -0.14405737870E+04  0.14405737870E+04  0.50400000000E-02 0.  1.
    8880023    1    1    2    0    0  0.17295030548E+03  0.17160583667E+04 -0.48112441166E+03  0.19078938733E+04  0.65864270000E+03 0.  0.
    8880022    1    1    2    0    0 -0.17295030548E+03 -0.17160583667E+04  0.28000452347E+04  0.32921745238E+04  0.15294330000E+03 0.  0.
<mgrwt>
<rscale>  0 0.18168615E+04</rscale>
<asrwt>0</asrwt>
<pdfrwt beam="1">  1        1 0.57838379E+00 0.18462336E+04</pdfrwt>
<pdfrwt beam="2">  1       -1 0.22162673E+00 0.18462336E+04</pdfrwt>
<totfact> 0.15024375E-02</totfact>
</mgrwt>
</event>
<event>
 4    5  0.7176259E-008  0.1081038E+04  0.7818608E-02  0.9282468E-01
          1   -1    0    0  501    0  0.00000000000E+00  0.00000000000E+00  0.79073352021E+03  0.79073352023E+03  0.50400000000E-02 0. -1.
         -1   -1    0    0    0  501 -0.00000000000E+00 -0.00000000000E+00 -0.15639483593E+04  0.15639483593E+04  0.50400000000E-02 0.  1.
    8880023    1    1    2    0    0 -0.85285992692E+03  0.86383166872E+02  0.14327586404E+03  0.10904908463E+04  0.65864270000E+03 0.  0.
    8880022    1    1    2    0    0  0.85285992692E+03 -0.86383166872E+02 -0.91649070311E+03  0.12641910332E+04  0.15294330000E+03 0.  0.
<mgrwt>
<rscale>  0 0.10241304E+04</rscale>
<asrwt>0</asrwt>
<pdfrwt beam="1">  1        1 0.12165131E+00 0.10810376E+04</pdfrwt>
<pdfrwt beam="2">  1       -1 0.24060744E+00 0.10810376E+04</pdfrwt>
<totfact> 0.18040445E+00</totfact>
</mgrwt>
</event>
<event>
 4    5  0.7176259E-008  0.9492452E+03  0.7818608E-02  0.9451201E-01
         -1   -1    0    0    0  501 -0.00000000000E+00  0.00000000000E+00  0.80107206536E+03  0.80107206538E+03  0.50400000000E-02 0.  1.
          1   -1    0    0  501    0  0.00000000000E+00 -0.00000000000E+00 -0.19646379412E+04  0.19646379412E+04  0.50400000000E-02 0. -1.
    8880023    1    1    2    0    0 -0.10535527608E+03 -0.67539362784E+03 -0.16564882992E+04  0.19091935414E+04  0.65864270000E+03 0. -1.
    8880022    1    1    2    0    0  0.10535527608E+03  0.67539362784E+03  0.49292242337E+03  0.85651646522E+03  0.15294330000E+03 0.  0.
<mgrwt>
<rscale>  0 0.87979211E+03</rscale>
<asrwt>0</asrwt>
<pdfrwt beam="1">  1        1 0.30225199E+00 0.94924522E+03</pdfrwt>
<pdfrwt beam="2">  1       -1 0.12324186E+00 0.94924522E+03</pdfrwt>
<totfact> 0.18588920E+00</totfact>
</mgrwt>
</event>
<event>
 4    5  0.7176259E-008  0.1229521E+04  0.7818608E-02  0.9128947E-01
          1   -1    0    0  501    0  0.00000000000E+00  0.00000000000E+00  0.29694679408E+04  0.29694679408E+04  0.50400000000E-02 0. -1.
         -1   -1    0    0    0  501 -0.00000000000E+00 -0.00000000000E+00 -0.66397624685E+03  0.66397624687E+03  0.50400000000E-02 0.  1.
    8880023    1    1    2    0    0  0.99491642406E+03  0.29673596088E+03  0.22721518550E+04  0.25834850841E+04  0.65864270000E+03 0.  0.
    8880022    1    1    2    0    0 -0.99491642406E+03 -0.29673596088E+03  0.33339838967E+02  0.10499591036E+04  0.15294330000E+03 0.  0.
<mgrwt>
<rscale>  0 0.11817897E+04</rscale>
<asrwt>0</asrwt>
<pdfrwt beam="1">  1        1 0.45684122E+00 0.12295207E+04</pdfrwt>
<pdfrwt beam="2">  1       -1 0.10215019E+00 0.12295207E+04</pdfrwt>
<totfact> 0.56607793E-01</totfact>
</mgrwt>
</event>
<event>
 4    5  0.7176259E-008  0.1229817E+04  0.7818608E-02  0.9128669E-01
          1   -1    0    0  501    0  0.00000000000E+00  0.00000000000E+00  0.14171508371E+04  0.14171508371E+04  0.50400000000E-02 0. -1.
         -1   -1    0    0    0  501 -0.00000000000E+00 -0.00000000000E+00 -0.10580896747E+04  0.10580896747E+04  0.50400000000E-02 0.  1.
    8880023    1    1    2    0    0 -0.10303949697E+04 -0.13009833359E+03  0.64296528842E+03  0.13877513965E+04  0.65864270000E+03 0. -1.
    8880022    1    1    2    0    0  0.10303949697E+04  0.13009833359E+03 -0.28390412599E+03  0.10874891153E+04  0.15294330000E+03 0.  0.
<mgrwt>
<rscale>  0 0.11821010E+04</rscale>
<asrwt>0</asrwt>
<pdfrwt beam="1">  1        1 0.21802320E+00 0.12298169E+04</pdfrwt>
<pdfrwt beam="2">  1       -1 0.16278303E+00 0.12298169E+04</pdfrwt>
<totfact> 0.20332768E+00</totfact>
</mgrwt>
</event>
<event>
 4    5  0.7176259E-008  0.1336491E+04  0.7818608E-02  0.9034671E-01
         -1   -1    0    0    0  501 -0.00000000000E+00  0.00000000000E+00  0.25203999710E+04  0.25203999710E+04  0.50400000000E-02 0.  1.
          1   -1    0    0  501    0  0.00000000000E+00 -0.00000000000E+00 -0.22209780313E+04  0.22209780313E+04  0.50400000000E-02 0. -1.
    8880023    1    1    2    0    0  0.73770054119E+03 -0.89899753092E+03 -0.18562072970E+04  0.22872941186E+04  0.65864270000E+03 0. -1.
    8880022    1    1    2    0    0 -0.73770054119E+03  0.89899753092E+03  0.21556292368E+04  0.24540838838E+04  0.15294330000E+03 0.  0.
<mgrwt>
<rscale>  0 0.12935810E+04</rscale>
<asrwt>0</asrwt>
<pdfrwt beam="1">  1        1 0.34168893E+00 0.13364912E+04</pdfrwt>
<pdfrwt beam="2">  1       -1 0.38775384E+00 0.13364912E+04</pdfrwt>
<totfact> 0.17715533E-02</totfact>
</mgrwt>
</event>
<event>
 4    5  0.7176259E-008  0.8948079E+03  0.7818608E-02  0.9534419E-01
          1   -1    0    0  501    0  0.00000000000E+00  0.00000000000E+00  0.15228034549E+04  0.15228034549E+04  0.50400000000E-02 0. -1.
         -1   -1    0    0    0  501 -0.00000000000E+00 -0.00000000000E+00 -0.92170212345E+03  0.92170212347E+03  0.50400000000E-02 0.  1.
    8880023    1    1    2    0    0 -0.14440723840E+03 -0.58823246838E+03  0.12542352783E+04  0.15407099749E+04  0.65864270000E+03 0. -1.
    8880022    1    1    2    0    0  0.14440723840E+03  0.58823246838E+03 -0.65313394679E+03  0.90379560346E+03  0.15294330000E+03 0.  0.
<mgrwt>
<rscale>  0 0.81793153E+03</rscale>
<asrwt>0</asrwt>
<pdfrwt beam="1">  1        1 0.23427745E+00 0.89480785E+03</pdfrwt>
<pdfrwt beam="2">  1       -1 0.14180033E+00 0.89480785E+03</pdfrwt>
<totfact> 0.26099909E+00</totfact>
</mgrwt>
</event>
<event>
 4    5  0.7176259E-008  0.1581410E+04  0.7818608E-02  0.8854190E-01
         -1   -1    0    0    0  501 -0.00000000000E+00  0.00000000000E+00  0.24744281222E+04  0.24744281222E+04  0.50400000000E-02 0.  1.
          1   -1    0    0  501    0  0.00000000000E+00 -0.00000000000E+00 -0.95700106341E+03  0.95700106342E+03  0.50400000000E-02 0. -1.
    8880023    1    1    2    0    0  0.14088609171E+04  0.28663523908E+03  0.48255375478E+03  0.16533956504E+04  0.65864270000E+03 0.  0.
    8880022    1    1    2    0    0 -0.14088609171E+04 -0.28663523908E+03  0.10348733040E+04  0.17780335353E+04  0.15294330000E+03 0.  0.
<mgrwt>
<rscale>  0 0.15463692E+04</rscale>
<asrwt>0</asrwt>
<pdfrwt beam="1">  1        1 0.14723094E+00 0.15814105E+04</pdfrwt>
<pdfrwt beam="2">  1       -1 0.38068124E+00 0.15814105E+04</pdfrwt>
<totfact> 0.14967357E-01</totfact>
</mgrwt>
</event>
<event>
 4    5  0.7176259E-008  0.9788105E+03  0.7818608E-02  0.9409820E-01
         -1   -1    0    0    0  501 -0.00000000000E+00  0.00000000000E+00  0.50257520167E+03  0.50257520170E+03  0.50400000000E-02 0.  1.
          1   -1    0    0  501    0  0.00000000000E+00 -0.00000000000E+00 -0.17801921030E+04  0.17801921030E+04  0.50400000000E-02 0. -1.
    8880023    1    1    2    0    0 -0.10687350875E+03  0.71612703909E+03 -0.11849744074E+04  0.15369562243E+04  0.65864270000E+03 0.  0.
    8880022    1    1    2    0    0  0.10687350875E+03 -0.71612703909E+03 -0.92642493970E+02  0.74581108043E+03  0.15294330000E+03 0.  0.
<mgrwt>
<rscale>  0 0.91271885E+03</rscale>
<asrwt>0</asrwt>
<pdfrwt beam="1">  1        1 0.27387571E+00 0.97881055E+03</pdfrwt>
<pdfrwt beam="2">  1       -1 0.77319263E-01 0.97881055E+03</pdfrwt>
<totfact> 0.71267196E+00</totfact>
</mgrwt>
</event>
<event>
 4    5  0.7176259E-008  0.8761851E+03  0.7818608E-02  0.9565397E-01
          1   -1    0    0  501    0  0.00000000000E+00  0.00000000000E+00  0.15585121582E+04  0.15585121582E+04  0.50400000000E-02 0. -1.
         -1   -1    0    0    0  501 -0.00000000000E+00 -0.00000000000E+00 -0.61968060807E+03  0.61968060809E+03  0.50400000000E-02 0.  1.
    8880023    1    1    2    0    0  0.44131189926E+02 -0.57614452713E+03  0.12325120067E+04  0.15122123300E+04  0.65864270000E+03 0. -1.
    8880022    1    1    2    0    0 -0.44131189926E+02  0.57614452713E+03 -0.29368045651E+03  0.66598043636E+03  0.15294330000E+03 0.  0.
<mgrwt>
<rscale>  0 0.79629363E+03</rscale>
<asrwt>0</asrwt>
<pdfrwt beam="1">  1        1 0.23977110E+00 0.87618507E+03</pdfrwt>
<pdfrwt beam="2">  1       -1 0.95335479E-01 0.87618507E+03</pdfrwt>
<totfact> 0.64707023E+00</totfact>
</mgrwt>
</event>
<event>
 4    5  0.7176259E-008  0.1280530E+04  0.7818608E-02  0.9082559E-01
          1   -1    0    0  501    0  0.00000000000E+00  0.00000000000E+00  0.12815416467E+04  0.12815416467E+04  0.50400000000E-02 0. -1.
         -1   -1    0    0    0  501 -0.00000000000E+00 -0.00000000000E+00 -0.17550825613E+04  0.17550825613E+04  0.50400000000E-02 0.  1.
    8880023    1    1    2    0    0 -0.10682435233E+04  0.25456256581E+03  0.66881625048E+03  0.14446701035E+04  0.65864270000E+03 0.  0.
    8880022    1    1    2    0    0  0.10682435233E+04 -0.25456256581E+03 -0.11423571651E+04  0.15919541044E+04  0.15294330000E+03 0.  0.
<mgrwt>
<rscale>  0 0.12352395E+04</rscale>
<asrwt>0</asrwt>
<pdfrwt beam="1">  1        1 0.19716025E+00 0.12805298E+04</pdfrwt>
<pdfrwt beam="2">  1       -1 0.27001270E+00 0.12805298E+04</pdfrwt>
<totfact> 0.46819809E-01</totfact>
</mgrwt>
</event>
<event>
 4    5  0.7176259E-008  0.8471392E+03  0.7818608E-02  0.9616863E-01
         -1   -1    0    0    0  501 -0.00000000000E+00  0.00000000000E+00  0.13598397491E+04  0.13598397492E+04  0.50400000000E-02 0.  1.
          1   -1    0    0  501    0  0.00000000000E+00 -0.00000000000E+00 -0.19135829068E+04  0.19135829068E+04  0.50400000000E-02 0. -1.
    8880023    1    1    2    0    0  0.10990396235E+03 -0.52130189178E+03 -0.17559363867E+04  0.19496044070E+04  0.65864270000E+03 0.  0.
    8880022    1    1    2    0    0 -0.10990396235E+03  0.52130189178E+03  0.12021932291E+04  0.13238182490E+04  0.15294330000E+03 0.  0.
<mgrwt>
<rscale>  0 0.76190066E+03</rscale>
<asrwt>0</asrwt>
<pdfrwt beam="1">  1        1 0.29439737E+00 0.84713916E+03</pdfrwt>
<pdfrwt beam="2">  1       -1 0.20920612E+00 0.84713916E+03</pdfrwt>
<totfact> 0.46245157E-01</totfact>
</mgrwt>
</event>
<event>
 4    5  0.7176259E-008  0.7742067E+03  0.7818608E-02  0.9769626E-01
         -1   -1    0    0    0  501 -0.00000000000E+00  0.00000000000E+00  0.17676087499E+03  0.17676087506E+03  0.50400000000E-02 0.  1.
          1   -1    0    0  501    0  0.00000000000E+00 -0.00000000000E+00 -0.26079511310E+04  0.26079511310E+04  0.50400000000E-02 0. -1.
    8880023    1    1    2    0    0  0.40658828848E+03 -0.16485960747E+02 -0.21001263067E+04  0.22382865173E+04  0.65864270000E+03 0. -1.
    8880022    1    1    2    0    0 -0.40658828848E+03  0.16485960747E+02 -0.33106394936E+03  0.54642548880E+03  0.15294330000E+03 0.  0.
<mgrwt>
<rscale>  0 0.67018384E+03</rscale>
<asrwt>0</asrwt>
<pdfrwt beam="1">  1        1 0.40122322E+00 0.77420671E+03</pdfrwt>
<pdfrwt beam="2">  1       -1 0.27193983E-01 0.77420671E+03</pdfrwt>
<totfact> 0.14463429E+01</totfact>
</mgrwt>
</event>
<event>
 4    5  0.7176259E-008  0.7033760E+03  0.7818608E-02  0.9983474E-01
         -1   -1    0    0    0  501 -0.00000000000E+00  0.00000000000E+00  0.70209858071E+03  0.70209858073E+03  0.50400000000E-02 0.  1.
          1   -1    0    0  501    0  0.00000000000E+00 -0.00000000000E+00 -0.13329046397E+04  0.13329046397E+04  0.50400000000E-02 0. -1.
    8880023    1    1    2    0    0  0.40192655252E+02 -0.24354083919E+03 -0.12028903604E+04  0.13934428640E+04  0.65864270000E+03 0. -1.
    8880022    1    1    2    0    0 -0.40192655252E+02  0.24354083919E+03  0.57208430146E+03  0.64156035638E+03  0.15294330000E+03 0.  0.
<mgrwt>
<rscale>  0 0.56380834E+03</rscale>
<asrwt>0</asrwt>
<pdfrwt beam="1">  1        1 0.20506225E+00 0.70337600E+03</pdfrwt>
<pdfrwt beam="2">  1       -1 0.10801517E+00 0.70337600E+03</pdfrwt>
<totfact> 0.71395491E+00</totfact>
</mgrwt>
</event>
<event>
 4    5  0.7176259E-008  0.7761369E+03  0.7818608E-02  0.9764991E-01
          1   -1    0    0  501    0  0.00000000000E+00  0.00000000000E+00  0.14820355477E+04  0.14820355477E+04  0.50400000000E-02 0. -1.
         -1   -1    0    0    0  501 -0.00000000000E+00 -0.00000000000E+00 -0.41113509773E+03  0.41113509777E+03  0.50400000000E-02 0.  1.
    8880023    1    1    2    0    0  0.40512193769E+03 -0.66742136530E+02  0.12064469397E+04  0.14345392019E+04  0.65864270000E+03 0. -1.
    8880022    1    1    2    0    0 -0.40512193769E+03  0.66742136530E+02 -0.13554648969E+03  0.45863144362E+03  0.15294330000E+03 0.  0.
<mgrwt>
<rscale>  0 0.67275651E+03</rscale>
<asrwt>0</asrwt>
<pdfrwt beam="1">  1        1 0.22800547E+00 0.77613691E+03</pdfrwt>
<pdfrwt beam="2">  1       -1 0.63251554E-01 0.77613691E+03</pdfrwt>
<totfact> 0.17605807E+01</totfact>
</mgrwt>
</event>
<event>
 4    5  0.7176259E-008  0.1185673E+04  0.7818608E-02  0.9171176E-01
          1   -1    0    0  501    0  0.00000000000E+00  0.00000000000E+00  0.10252738280E+04  0.10252738280E+04  0.50400000000E-02 0. -1.
         -1   -1    0    0    0  501 -0.00000000000E+00 -0.00000000000E+00 -0.17571002564E+04  0.17571002564E+04  0.50400000000E-02 0.  1.
    8880023    1    1    2    0    0 -0.47185964541E+03 -0.86565576784E+03  0.42060911442E+03  0.12580674333E+04  0.65864270000E+03 0. -1.
    8880022    1    1    2    0    0  0.47185964541E+03  0.86565576784E+03 -0.11524355428E+04  0.15243066511E+04  0.15294330000E+03 0.  0.
<mgrwt>
<rscale>  0 0.11355956E+04</rscale>
<asrwt>0</asrwt>
<pdfrwt beam="1">  1        1 0.15773444E+00 0.11856735E+04</pdfrwt>
<pdfrwt beam="2">  1       -1 0.27032312E+00 0.11856735E+04</pdfrwt>
<totfact> 0.73235436E-01</totfact>
</mgrwt>
</event>
<event>
 4    5  0.7176259E-008  0.6727707E+03  0.7818608E-02  0.1013750E+00
          1   -1    0    0  501    0  0.00000000000E+00  0.00000000000E+00  0.44673420026E+03  0.44673420028E+03  0.50400000000E-02 0. -1.
         -1   -1    0    0    0  501 -0.00000000000E+00 -0.00000000000E+00 -0.13827299303E+04  0.13827299303E+04  0.50400000000E-02 0.  1.
    8880023    1    1    2    0    0  0.65421414207E+02 -0.12054145657E+03  0.17861733871E+03  0.69607798711E+03  0.65864270000E+03 0.  0.
    8880022    1    1    2    0    0 -0.65421414207E+02  0.12054145657E+03 -0.11146130687E+04  0.11333861434E+04  0.15294330000E+03 0.  0.
<mgrwt>
<rscale>  0 0.50011139E+03</rscale>
<asrwt>0</asrwt>
<pdfrwt beam="1">  1        1 0.68728339E-01 0.67277070E+03</pdfrwt>
<pdfrwt beam="2">  1       -1 0.21272768E+00 0.67277070E+03</pdfrwt>
<totfact> 0.66660458E+00</totfact>
</mgrwt>
</event>
<event>
 4    5  0.7176259E-008  0.1039245E+04  0.7818608E-02  0.9331924E-01
         -1   -1    0    0    0  501 -0.00000000000E+00  0.00000000000E+00  0.70316817383E+03  0.70316817385E+03  0.50400000000E-02 0.  1.
          1   -1    0    0  501    0  0.00000000000E+00 -0.00000000000E+00 -0.15884965143E+04  0.15884965143E+04  0.50400000000E-02 0. -1.
    8880023    1    1    2    0    0  0.49041533037E+03  0.63695506240E+03 -0.10271292400E+04  0.14611720055E+04  0.65864270000E+03 0.  0.
    8880022    1    1    2    0    0 -0.49041533037E+03 -0.63695506240E+03  0.14180089954E+03  0.83049268263E+03  0.15294330000E+03 0.  0.
<mgrwt>
<rscale>  0 0.97896259E+03</rscale>
<asrwt>0</asrwt>
<pdfrwt beam="1">  1        1 0.24438408E+00 0.10392445E+04</pdfrwt>
<pdfrwt beam="2">  1       -1 0.10817972E+00 0.10392445E+04</pdfrwt>
<totfact> 0.45180208E+00</totfact>
</mgrwt>
</event>
<event>
 4    5  0.7176259E-008  0.2007316E+04  0.7818608E-02  0.8615773E-01
          1   -1    0    0  501    0  0.00000000000E+00  0.00000000000E+00  0.12869268558E+04  0.12869268558E+04  0.50400000000E-02 0. -1.
         -1   -1    0    0    0  501 -0.00000000000E+00 -0.00000000000E+00 -0.37451978333E+04  0.37451978333E+04  0.50400000000E-02 0.  1.
    8880023    1    1    2    0    0  0.10690598610E+04 -0.15660840592E+04 -0.11046302902E+03  0.20103533406E+04  0.65864270000E+03 0.  0.
    8880022    1    1    2    0    0 -0.10690598610E+04  0.15660840592E+04 -0.23478079485E+04  0.30217713486E+04  0.15294330000E+03 0.  0.
<mgrwt>
<rscale>  0 0.19805414E+04</rscale>
<asrwt>0</asrwt>
<pdfrwt beam="1">  1        1 0.19798875E+00 0.20073162E+04</pdfrwt>
<pdfrwt beam="2">  1       -1 0.57618428E+00 0.20073162E+04</pdfrwt>
<totfact> 0.44950353E-03</totfact>
</mgrwt>
</event>
<event>
 4    5  0.7176259E-008  0.1254185E+04  0.7818608E-02  0.9106170E-01
         -1   -1    0    0    0  501 -0.00000000000E+00  0.00000000000E+00  0.19898703456E+04  0.19898703456E+04  0.50400000000E-02 0.  1.
          1   -1    0    0  501    0  0.00000000000E+00 -0.00000000000E+00 -0.20511381157E+04  0.20511381157E+04  0.50400000000E-02 0. -1.
    8880023    1    1    2    0    0  0.33786594787E+03  0.10124309500E+04 -0.16797158749E+04  0.20962884949E+04  0.65864270000E+03 0.  0.
    8880022    1    1    2    0    0 -0.33786594787E+03 -0.10124309500E+04  0.16184481047E+04  0.19447199664E+04  0.15294330000E+03 0.  0.
<mgrwt>
<rscale>  0 0.12076698E+04</rscale>
<asrwt>0</asrwt>
<pdfrwt beam="1">  1        1 0.31555971E+00 0.12541850E+04</pdfrwt>
<pdfrwt beam="2">  1       -1 0.30613390E+00 0.12541850E+04</pdfrwt>
<totfact> 0.81050455E-02</totfact>
</mgrwt>
</event>
<event>
 4    5  0.7176259E-008  0.1004258E+04  0.7818608E-02  0.9376008E-01
         -1   -1    0    0    0  501 -0.00000000000E+00  0.00000000000E+00  0.89400151595E+03  0.89400151597E+03  0.50400000000E-02 0.  1.
          1   -1    0    0  501    0  0.00000000000E+00 -0.00000000000E+00 -0.30965850205E+04  0.30965850205E+04  0.50400000000E-02 0. -1.
    8880023    1    1    2    0    0 -0.75163089946E+03  0.98870422645E+02 -0.28247840000E+04  0.29979891966E+04  0.65864270000E+03 0. -1.
    8880022    1    1    2    0    0  0.75163089946E+03 -0.98870422645E+02  0.62220049553E+03  0.99259733989E+03  0.15294330000E+03 0.  0.
<mgrwt>
<rscale>  0 0.94076733E+03</rscale>
<asrwt>0</asrwt>
<pdfrwt beam="1">  1        1 0.47639769E+00 0.10042582E+04</pdfrwt>
<pdfrwt beam="2">  1       -1 0.13753870E+00 0.10042582E+04</pdfrwt>
<totfact> 0.22930627E-01</totfact>
</mgrwt>
</event>
<event>
 4    5  0.7176259E-008  0.9472318E+03  0.7818608E-02  0.9454108E-01
         -1   -1    0    0    0  501 -0.00000000000E+00  0.00000000000E+00  0.63877329528E+03  0.63877329530E+03  0.50400000000E-02 0.  1.
          1   -1    0    0  501    0  0.00000000000E+00 -0.00000000000E+00 -0.11621421802E+04  0.11621421802E+04  0.50400000000E-02 0. -1.
    8880023    1    1    2    0    0  0.67966404983E+03  0.38661834483E+02 -0.56325333991E+03  0.11020446857E+04  0.65864270000E+03 0. -1.
    8880022    1    1    2    0    0 -0.67966404983E+03 -0.38661834483E+02  0.39884455008E+02  0.69887078981E+03  0.15294330000E+03 0.  0.
<mgrwt>
<rscale>  0 0.87753478E+03</rscale>
<asrwt>0</asrwt>
<pdfrwt beam="1">  1        1 0.17879110E+00 0.94723184E+03</pdfrwt>
<pdfrwt beam="2">  1       -1 0.98272815E-01 0.94723184E+03</pdfrwt>
<totfact> 0.11400870E+01</totfact>
</mgrwt>
</event>
<event>
 4    5  0.7176259E-008  0.6816780E+03  0.7818608E-02  0.1008390E+00
         -1   -1    0    0    0  501 -0.00000000000E+00  0.00000000000E+00  0.32555448757E+03  0.32555448761E+03  0.50400000000E-02 0.  1.
          1   -1    0    0  501    0  0.00000000000E+00 -0.00000000000E+00 -0.11404520022E+04  0.11404520022E+04  0.50400000000E-02 0. -1.
    8880023    1    1    2    0    0  0.12678247773E+03  0.12165875582E+03 -0.97041533504E+03  0.11859134784E+04  0.65864270000E+03 0. -1.
    8880022    1    1    2    0    0 -0.12678247773E+03 -0.12165875582E+03  0.15551782045E+03  0.28009301137E+03  0.15294330000E+03 0.  0.
<mgrwt>
<rscale>  0 0.52119558E+03</rscale>
<asrwt>0</asrwt>
<pdfrwt beam="1">  1        1 0.17545415E+00 0.68167797E+03</pdfrwt>
<pdfrwt beam="2">  1       -1 0.50085306E-01 0.68167797E+03</pdfrwt>
<totfact> 0.48858422E+01</totfact>
</mgrwt>
</event>
<event>
 4    5  0.7176259E-008  0.7613474E+03  0.7818608E-02  0.9801632E-01
         -1   -1    0    0    0  501 -0.00000000000E+00  0.00000000000E+00  0.53901142456E+03  0.53901142458E+03  0.50400000000E-02 0.  1.
          1   -1    0    0  501    0  0.00000000000E+00 -0.00000000000E+00 -0.17236898735E+04  0.17236898735E+04  0.50400000000E-02 0. -1.
    8880023    1    1    2    0    0  0.17523289225E+03 -0.33931270975E+03 -0.15407713389E+04  0.17186117091E+04  0.65864270000E+03 0. -1.
    8880022    1    1    2    0    0 -0.17523289225E+03  0.33931270975E+03  0.35609288999E+03  0.54408958898E+03  0.15294330000E+03 0.  0.
<mgrwt>
<rscale>  0 0.65275056E+03</rscale>
<asrwt>0</asrwt>
<pdfrwt beam="1">  1        1 0.26518306E+00 0.76134742E+03</pdfrwt>
<pdfrwt beam="2">  1       -1 0.82924835E-01 0.76134742E+03</pdfrwt>
<totfact> 0.69088731E+00</totfact>
</mgrwt>
</event>
<event>
 4    5  0.7176259E-008  0.7933855E+03  0.7818608E-02  0.9725285E-01
         -1   -1    0    0    0  501 -0.00000000000E+00  0.00000000000E+00  0.33281112132E+03  0.33281112136E+03  0.50400000000E-02 0.  1.
          1   -1    0    0  501    0  0.00000000000E+00 -0.00000000000E+00 -0.28245556228E+04  0.28245556228E+04  0.50400000000E-02 0. -1.
    8880023    1    1    2    0    0  0.16428333459E+03 -0.41068393236E+03 -0.25638723402E+04  0.26838222537E+04  0.65864270000E+03 0. -1.
    8880022    1    1    2    0    0 -0.16428333459E+03  0.41068393236E+03  0.72127838724E+02  0.47354449047E+03  0.15294330000E+03 0.  0.
<mgrwt>
<rscale>  0 0.69531100E+03</rscale>
<asrwt>0</asrwt>
<pdfrwt beam="1">  1        1 0.43454700E+00 0.79338548E+03</pdfrwt>
<pdfrwt beam="2">  1       -1 0.51201713E-01 0.79338548E+03</pdfrwt>
<totfact> 0.32514180E+00</totfact>
</mgrwt>
</event>
<event>
 4    5  0.7176259E-008  0.7203534E+03  0.7818608E-02  0.9921392E-01
          1   -1    0    0  501    0  0.00000000000E+00  0.00000000000E+00  0.39884435873E+04  0.39884435873E+04  0.50400000000E-02 0. -1.
         -1   -1    0    0    0  501 -0.00000000000E+00 -0.00000000000E+00 -0.23741260537E+03  0.23741260543E+03  0.50400000000E-02 0.  1.
    8880023    1    1    2    0    0 -0.28291839403E+03 -0.71106034219E+02  0.38216866395E+04  0.38889841685E+04  0.65864270000E+03 0. -1.
    8880022    1    1    2    0    0  0.28291839403E+03  0.71106034219E+02 -0.70655657559E+02  0.33687202428E+03  0.15294330000E+03 0.  0.
<mgrwt>
<rscale>  0 0.59235657E+03</rscale>
<asrwt>0</asrwt>
<pdfrwt beam="1">  1        1 0.61360674E+00 0.72035345E+03</pdfrwt>
<pdfrwt beam="2">  1       -1 0.36525014E-01 0.72035345E+03</pdfrwt>
<totfact> 0.78694440E-01</totfact>
</mgrwt>
</event>
<event>
 4    5  0.7176259E-008  0.7868917E+03  0.7818608E-02  0.9739890E-01
         -1   -1    0    0    0  501 -0.00000000000E+00  0.00000000000E+00  0.73344737035E+03  0.73344737037E+03  0.50400000000E-02 0.  1.
          1   -1    0    0  501    0  0.00000000000E+00 -0.00000000000E+00 -0.93821462782E+03  0.93821462783E+03  0.50400000000E-02 0. -1.
    8880023    1    1    2    0    0  0.37057126870E+03 -0.21923808384E+03 -0.65972881960E+03  0.10268596420E+04  0.65864270000E+03 0.  0.
    8880022    1    1    2    0    0 -0.37057126870E+03  0.21923808384E+03  0.45496156214E+03  0.64480235625E+03  0.15294330000E+03 0.  0.
<mgrwt>
<rscale>  0 0.68690609E+03</rscale>
<asrwt>0</asrwt>
<pdfrwt beam="1">  1        1 0.14434071E+00 0.78689174E+03</pdfrwt>
<pdfrwt beam="2">  1       -1 0.11283806E+00 0.78689174E+03</pdfrwt>
<totfact> 0.12485928E+01</totfact>
</mgrwt>
</event>
<event>
 4    5  0.7176259E-008  0.1851511E+04  0.7818608E-02  0.8694565E-01
          1   -1    0    0  501    0  0.00000000000E+00  0.00000000000E+00  0.18094906351E+04  0.18094906351E+04  0.50400000000E-02 0. -1.
         -1   -1    0    0    0  501 -0.00000000000E+00 -0.00000000000E+00 -0.20298133585E+04  0.20298133585E+04  0.50400000000E-02 0.  1.
    8880023    1    1    2    0    0 -0.12394302006E+04  0.12075169393E+04 -0.78733495983E+03  0.20119619594E+04  0.65864270000E+03 0.  0.
    8880022    1    1    2    0    0  0.12394302006E+04 -0.12075169393E+04  0.56701223647E+03  0.18273420342E+04  0.15294330000E+03 0.  0.
<mgrwt>
<rscale>  0 0.18222329E+04</rscale>
<asrwt>0</asrwt>
<pdfrwt beam="1">  1        1 0.27838318E+00 0.18515114E+04</pdfrwt>
<pdfrwt beam="2">  1       -1 0.31227898E+00 0.18515114E+04</pdfrwt>
<totfact> 0.10004072E-01</totfact>
</mgrwt>
</event>
<event>
 4    5  0.7176259E-008  0.8237126E+03  0.7818608E-02  0.9661692E-01
          1   -1    0    0  501    0  0.00000000000E+00  0.00000000000E+00  0.14608272849E+04  0.14608272849E+04  0.50400000000E-02 0. -1.
         -1   -1    0    0    0  501 -0.00000000000E+00 -0.00000000000E+00 -0.39217724279E+03  0.39217724283E+03  0.50400000000E-02 0.  1.
    8880023    1    1    2    0    0 -0.37543156870E+03  0.32209229114E+03  0.10504770796E+04  0.13349174536E+04  0.65864270000E+03 0.  0.
    8880022    1    1    2    0    0  0.37543156870E+03 -0.32209229114E+03  0.18172962440E+02  0.51808707412E+03  0.15294330000E+03 0.  1.
<mgrwt>
<rscale>  0 0.73344179E+03</rscale>
<asrwt>0</asrwt>
<pdfrwt beam="1">  1        1 0.22474266E+00 0.82371264E+03</pdfrwt>
<pdfrwt beam="2">  1       -1 0.60334959E-01 0.82371264E+03</pdfrwt>
<totfact> 0.19880265E+01</totfact>
</mgrwt>
</event>
<event>
 4    5  0.7176259E-008  0.8757612E+03  0.7818608E-02  0.9566120E-01
          1   -1    0    0  501    0  0.00000000000E+00  0.00000000000E+00  0.23771301407E+04  0.23771301407E+04  0.50400000000E-02 0. -1.
         -1   -1    0    0    0  501 -0.00000000000E+00 -0.00000000000E+00 -0.58190779341E+03  0.58190779344E+03  0.50400000000E-02 0.  1.
    8880023    1    1    2    0    0  0.47018615517E+03 -0.33477235542E+03  0.21096494479E+04  0.22842019503E+04  0.65864270000E+03 0.  0.
    8880022    1    1    2    0    0 -0.47018615517E+03  0.33477235542E+03 -0.31442710061E+03  0.67483598384E+03  0.15294330000E+03 0.  0.
<mgrwt>
<rscale>  0 0.79579774E+03</rscale>
<asrwt>0</asrwt>
<pdfrwt beam="1">  1        1 0.36571234E+00 0.87576124E+03</pdfrwt>
<pdfrwt beam="2">  1       -1 0.89524274E-01 0.87576124E+03</pdfrwt>
<totfact> 0.20875867E+00</totfact>
</mgrwt>
</event>
<event>
 4    5  0.7176259E-008  0.1032783E+04  0.7818608E-02  0.9339871E-01
         -1   -1    0    0    0  501 -0.00000000000E+00  0.00000000000E+00  0.58586309276E+03  0.58586309278E+03  0.50400000000E-02 0.  1.
          1   -1    0    0  501    0  0.00000000000E+00 -0.00000000000E+00 -0.23804359925E+04  0.23804359926E+04  0.50400000000E-02 0. -1.
    8880023    1    1    2    0    0 -0.57526197610E+03 -0.54945740375E+03 -0.18868253654E+04  0.21509881323E+04  0.65864270000E+03 0. -1.
    8880022    1    1    2    0    0  0.57526197610E+03  0.54945740375E+03  0.92252465598E+02  0.81531095301E+03  0.15294330000E+03 0.  0.
<mgrwt>
<rscale>  0 0.97193674E+03</rscale>
<asrwt>0</asrwt>
<pdfrwt beam="1">  1        1 0.36622092E+00 0.10327826E+04</pdfrwt>
<pdfrwt beam="2">  1       -1 0.90132784E-01 0.10327826E+04</pdfrwt>
<totfact> 0.19966066E+00</totfact>
</mgrwt>
</event>
<event>
 4    5  0.7176259E-008  0.8442619E+03  0.7818608E-02  0.9622196E-01
          1   -1    0    0  501    0  0.00000000000E+00  0.00000000000E+00  0.96505167690E+03  0.96505167691E+03  0.50400000000E-02 0. -1.
         -1   -1    0    0    0  501 -0.00000000000E+00 -0.00000000000E+00 -0.76732196657E+03  0.76732196659E+03  0.50400000000E-02 0.  1.
    8880023    1    1    2    0    0  0.26177228568E+03 -0.45874084724E+03  0.61297916939E+03  0.10433223677E+04  0.65864270000E+03 0. -1.
    8880022    1    1    2    0    0 -0.26177228568E+03  0.45874084724E+03 -0.41524945907E+03  0.68905127585E+03  0.15294330000E+03 0.  0.
<mgrwt>
<rscale>  0 0.75844369E+03</rscale>
<asrwt>0</asrwt>
<pdfrwt beam="1">  1        1 0.14846949E+00 0.84426187E+03</pdfrwt>
<pdfrwt beam="2">  1       -1 0.11804953E+00 0.84426187E+03</pdfrwt>
<totfact> 0.10593030E+01</totfact>
</mgrwt>
</event>
<event>
 4    5  0.7176259E-008  0.7630594E+03  0.7818608E-02  0.9797250E-01
          1   -1    0    0  501    0  0.00000000000E+00  0.00000000000E+00  0.33872067311E+03  0.33872067315E+03  0.50400000000E-02 0. -1.
         -1   -1    0    0    0  501 -0.00000000000E+00 -0.00000000000E+00 -0.11509216534E+04  0.11509216534E+04  0.50400000000E-02 0.  1.
    8880023    1    1    2    0    0 -0.29365101792E+03  0.24943638185E+03 -0.27501217459E+03  0.81110500636E+03  0.65864270000E+03 0.  1.
    8880022    1    1    2    0    0  0.29365101792E+03 -0.24943638185E+03 -0.53718880572E+03  0.67853732021E+03  0.15294330000E+03 0.  0.
<mgrwt>
<rscale>  0 0.65510306E+03</rscale>
<asrwt>0</asrwt>
<pdfrwt beam="1">  1        1 0.52110873E-01 0.76305939E+03</pdfrwt>
<pdfrwt beam="2">  1       -1 0.17706487E+00 0.76305939E+03</pdfrwt>
<totfact> 0.16759703E+01</totfact>
</mgrwt>
</event>
<event>
 4    5  0.7176259E-008  0.7722063E+03  0.7818608E-02  0.9774474E-01
         -1   -1    0    0    0  501 -0.00000000000E+00  0.00000000000E+00  0.32314741642E+04  0.32314741642E+04  0.50400000000E-02 0.  1.
          1   -1    0    0  501    0  0.00000000000E+00 -0.00000000000E+00 -0.39396900484E+03  0.39396900487E+03  0.50400000000E-02 0. -1.
    8880023    1    1    2    0    0 -0.34885653887E+03  0.20196884348E+03  0.17224885345E+02  0.77239834372E+03  0.65864270000E+03 0. -1.
    8880022    1    1    2    0    0  0.34885653887E+03 -0.20196884348E+03  0.28202802740E+04  0.28530448253E+04  0.15294330000E+03 0.  0.
<mgrwt>
<rscale>  0 0.66750608E+03</rscale>
<asrwt>0</asrwt>
<pdfrwt beam="1">  1        1 0.60610618E-01 0.77220626E+03</pdfrwt>
<pdfrwt beam="2">  1       -1 0.49714986E+00 0.77220626E+03</pdfrwt>
<totfact> 0.10111876E-01</totfact>
</mgrwt>
</event>
<event>
 4    5  0.7176259E-008  0.8294437E+03  0.7818608E-02  0.9650416E-01
         -1   -1    0    0    0  501 -0.00000000000E+00  0.00000000000E+00  0.36824382710E+03  0.36824382713E+03  0.50400000000E-02 0.  1.
          1   -1    0    0  501    0  0.00000000000E+00 -0.00000000000E+00 -0.17331011749E+04  0.17331011749E+04  0.50400000000E-02 0. -1.
    8880023    1    1    2    0    0  0.36349321260E+03  0.34934117871E+03 -0.13374819600E+04  0.15737962938E+04  0.65864270000E+03 0. -1.
    8880022    1    1    2    0    0 -0.36349321260E+03 -0.34934117871E+03 -0.27375387853E+02  0.52754870830E+03  0.15294330000E+03 0.  0.
<mgrwt>
<rscale>  0 0.74047335E+03</rscale>
<asrwt>0</asrwt>
<pdfrwt beam="1">  1        1 0.26663094E+00 0.82944366E+03</pdfrwt>
<pdfrwt beam="2">  1       -1 0.56652898E-01 0.82944366E+03</pdfrwt>
<totfact> 0.14672526E+01</totfact>
</mgrwt>
</event>
<event>
 4    5  0.7176259E-008  0.9126915E+03  0.7818608E-02  0.9505957E-01
          1   -1    0    0  501    0  0.00000000000E+00  0.00000000000E+00  0.11719091379E+04  0.11719091379E+04  0.50400000000E-02 0. -1.
         -1   -1    0    0    0  501 -0.00000000000E+00 -0.00000000000E+00 -0.99588046376E+03  0.99588046377E+03  0.50400000000E-02 0.  1.
    8880023    1    1    2    0    0  0.30324517365E+03  0.55429042264E+03 -0.64717778243E+03  0.11188587026E+04  0.65864270000E+03 0.  0.
    8880022    1    1    2    0    0 -0.30324517365E+03 -0.55429042264E+03  0.82320645656E+03  0.10489308991E+04  0.15294330000E+03 0.  0.
<mgrwt>
<rscale>  0 0.83846035E+03</rscale>
<asrwt>0</asrwt>
<pdfrwt beam="1">  1        1 0.18029371E+00 0.91269147E+03</pdfrwt>
<pdfrwt beam="2">  1       -1 0.15321238E+00 0.91269147E+03</pdfrwt>
<totfact> 0.37453977E+00</totfact>
</mgrwt>
</event>
<event>
 4    5  0.7176259E-008  0.7937934E+03  0.7818608E-02  0.9724380E-01
          1   -1    0    0  501    0  0.00000000000E+00  0.00000000000E+00  0.59668455050E+03  0.59668455053E+03  0.50400000000E-02 0. -1.
         -1   -1    0    0    0  501 -0.00000000000E+00 -0.00000000000E+00 -0.88387510650E+03  0.88387510651E+03  0.50400000000E-02 0.  1.
    8880023    1    1    2    0    0 -0.14440429992E+02  0.44281961107E+03  0.18518303597E+03  0.81510778247E+03  0.65864270000E+03 0. -1.
    8880022    1    1    2    0    0  0.14440429992E+02 -0.44281961107E+03 -0.47237359197E+03  0.66545187457E+03  0.15294330000E+03 0.  0.
<mgrwt>
<rscale>  0 0.69583576E+03</rscale>
<asrwt>0</asrwt>
<pdfrwt beam="1">  1        1 0.91797623E-01 0.79379339E+03</pdfrwt>
<pdfrwt beam="2">  1       -1 0.13598079E+00 0.79379339E+03</pdfrwt>
<totfact> 0.15962412E+01</totfact>
</mgrwt>
</event>
<event>
 4    5  0.7176259E-008  0.9431544E+03  0.7818608E-02  0.9460033E-01
          1   -1    0    0  501    0  0.00000000000E+00  0.00000000000E+00  0.35161998782E+04  0.35161998782E+04  0.50400000000E-02 0. -1.
         -1   -1    0    0    0  501 -0.00000000000E+00 -0.00000000000E+00 -0.54716627912E+03  0.54716627915E+03  0.50400000000E-02 0.  1.
    8880023    1    1    2    0    0  0.66737737598E+03 -0.10167364606E+03  0.31980903258E+04  0.33342648411E+04  0.65864270000E+03 0.  0.
    8880022    1    1    2    0    0 -0.66737737598E+03  0.10167364606E+03 -0.22905672674E+03  0.72910131625E+03  0.15294330000E+03 0.  0.
<mgrwt>
<rscale>  0 0.87295699E+03</rscale>
<asrwt>0</asrwt>
<pdfrwt beam="1">  1        1 0.54095383E+00 0.94315444E+03</pdfrwt>
<pdfrwt beam="2">  1       -1 0.84179427E-01 0.94315444E+03</pdfrwt>
<totfact> 0.35678803E-01</totfact>
</mgrwt>
</event>
<event>
 4    5  0.7176259E-008  0.1498925E+04  0.7818608E-02  0.8910396E-01
         -1   -1    0    0    0  501 -0.00000000000E+00  0.00000000000E+00  0.16529320320E+04  0.16529320320E+04  0.50400000000E-02 0.  1.
          1   -1    0    0  501    0  0.00000000000E+00 -0.00000000000E+00 -0.15208268343E+04  0.15208268343E+04  0.50400000000E-02 0. -1.
    8880023    1    1    2    0    0 -0.46899306960E+03 -0.12621450380E+04 -0.62210064875E+03  0.16228937180E+04  0.65864270000E+03 0.  0.
    8880022    1    1    2    0    0  0.46899306960E+03  0.12621450380E+04  0.75420584650E+03  0.15508651483E+04  0.15294330000E+03 0.  0.
<mgrwt>
<rscale>  0 0.14616031E+04</rscale>
<asrwt>0</asrwt>
<pdfrwt beam="1">  1        1 0.23397336E+00 0.14989245E+04</pdfrwt>
<pdfrwt beam="2">  1       -1 0.25429724E+00 0.14989245E+04</pdfrwt>
<totfact> 0.39109627E-01</totfact>
</mgrwt>
</event>
<event>
 4    5  0.8053841E-008  0.8969910E+03  0.7818608E-02  0.9530879E-01
          1   -1    0    0  501    0  0.00000000000E+00  0.00000000000E+00  0.25357874063E+04  0.25357874063E+04  0.50400000000E-02 0. -1.
         -1   -1    0    0    0  501 -0.00000000000E+00 -0.00000000000E+00 -0.14249411818E+04  0.14249411818E+04  0.50400000000E-02 0.  1.
    8880023    1    1    2    0    0 -0.59151406385E+03  0.14454690898E+03  0.23807385454E+04  0.25441126005E+04  0.65864270000E+03 0.  0.
    8880022    1    1    2    0    0  0.59151406385E+03 -0.14454690898E+03 -0.12698923208E+04  0.14166159875E+04  0.15294330000E+03 0.  0.
<mgrwt>
<rscale>  0 0.82045000E+03</rscale>
<asrwt>0</asrwt>
<pdfrwt beam="1">  1        1 0.39012114E+00 0.89699103E+03</pdfrwt>
<pdfrwt beam="2">  1       -1 0.21922172E+00 0.89699103E+03</pdfrwt>
<totfact> 0.14881542E-01</totfact>
</mgrwt>
</event>
<event>
 4    5  0.7176259E-008  0.8989141E+03  0.7818608E-02  0.9527777E-01
          1   -1    0    0  501    0  0.00000000000E+00  0.00000000000E+00  0.96226374721E+03  0.96226374723E+03  0.50400000000E-02 0. -1.
         -1   -1    0    0    0  501 -0.00000000000E+00 -0.00000000000E+00 -0.82714168019E+03  0.82714168020E+03  0.50400000000E-02 0.  1.
    8880023    1    1    2    0    0 -0.30731984600E+03 -0.52895259140E+03  0.53179360674E+03  0.10444381160E+04  0.65864270000E+03 0. -1.
    8880022    1    1    2    0    0  0.30731984600E+03  0.52895259140E+03 -0.39667153971E+03  0.74496731145E+03  0.15294330000E+03 0.  0.
<mgrwt>
<rscale>  0 0.82266545E+03</rscale>
<asrwt>0</asrwt>
<pdfrwt beam="1">  1        1 0.14804058E+00 0.89891409E+03</pdfrwt>
<pdfrwt beam="2">  1       -1 0.12725257E+00 0.89891409E+03</pdfrwt>
<totfact> 0.87900302E+00</totfact>
</mgrwt>
</event>
<event>
 4    5  0.7176259E-008  0.7724126E+03  0.7818608E-02  0.9773971E-01
          1   -1    0    0  501    0  0.00000000000E+00  0.00000000000E+00  0.10601540103E+04  0.10601540103E+04  0.50400000000E-02 0. -1.
         -1   -1    0    0    0  501 -0.00000000000E+00 -0.00000000000E+00 -0.54360089044E+03  0.54360089047E+03  0.50400000000E-02 0.  1.
    8880023    1    1    2    0    0 -0.39575566682E+03 -0.78666968450E+02  0.78036075502E+03  0.10979909626E+04  0.65864270000E+03 0. -1.
    8880022    1    1    2    0    0  0.39575566682E+03  0.78666968450E+02 -0.26380763517E+03  0.50576393816E+03  0.15294330000E+03 0.  0.
<mgrwt>
<rscale>  0 0.66778285E+03</rscale>
<asrwt>0</asrwt>
<pdfrwt beam="1">  1        1 0.16310062E+00 0.77241261E+03</pdfrwt>
<pdfrwt beam="2">  1       -1 0.83630907E-01 0.77241261E+03</pdfrwt>
<totfact> 0.19797142E+01</totfact>
</mgrwt>
</event>
<event>
 4    5  0.7176259E-008  0.1189939E+04  0.7818608E-02  0.9166964E-01
          1   -1    0    0  501    0  0.00000000000E+00  0.00000000000E+00  0.71399541599E+03  0.71399541600E+03  0.50400000000E-02 0. -1.
         -1   -1    0    0    0  501 -0.00000000000E+00 -0.00000000000E+00 -0.25845058812E+04  0.25845058812E+04  0.50400000000E-02 0.  1.
    8880023    1    1    2    0    0 -0.86564815672E+03  0.48249233919E+03 -0.15771873750E+02  0.11900439264E+04  0.65864270000E+03 0.  0.
    8880022    1    1    2    0    0  0.86564815672E+03 -0.48249233919E+03 -0.18547385914E+04  0.21084573707E+04  0.15294330000E+03 0.  0.
<mgrwt>
<rscale>  0 0.11401012E+04</rscale>
<asrwt>0</asrwt>
<pdfrwt beam="1">  1        1 0.10984545E+00 0.11899394E+04</pdfrwt>
<pdfrwt beam="2">  1       -1 0.39761629E+00 0.11899394E+04</pdfrwt>
<totfact> 0.19551056E-01</totfact>
</mgrwt>
</event>
<event>
 4    5  0.7176259E-008  0.9703956E+03  0.7818608E-02  0.9421357E-01
         -1   -1    0    0    0  501 -0.00000000000E+00  0.00000000000E+00  0.48676065820E+03  0.48676065822E+03  0.50400000000E-02 0.  1.
          1   -1    0    0  501    0  0.00000000000E+00 -0.00000000000E+00 -0.23240893464E+04  0.23240893464E+04  0.50400000000E-02 0. -1.
    8880023    1    1    2    0    0 -0.23063570182E+03 -0.67428819099E+03 -0.18419875384E+04  0.20819667840E+04  0.65864270000E+03 0.  0.
    8880022    1    1    2    0    0  0.23063570182E+03  0.67428819099E+03  0.46588502458E+01  0.72888322066E+03  0.15294330000E+03 0.  0.
<mgrwt>
<rscale>  0 0.90338709E+03</rscale>
<asrwt>0</asrwt>
<pdfrwt beam="1">  1        1 0.35755220E+00 0.97039559E+03</pdfrwt>
<pdfrwt beam="2">  1       -1 0.74886256E-01 0.97039559E+03</pdfrwt>
<totfact> 0.32787902E+00</totfact>
</mgrwt>
</event>
<event>
 4    5  0.7176259E-008  0.9410976E+03  0.7818608E-02  0.9463040E-01
         -1   -1    0    0    0  501 -0.00000000000E+00  0.00000000000E+00  0.48723741797E+03  0.48723741800E+03  0.50400000000E-02 0.  1.
          1   -1    0    0  501    0  0.00000000000E+00 -0.00000000000E+00 -0.18042743837E+04  0.18042743837E+04  0.50400000000E-02 0. -1.
    8880023    1    1    2    0    0  0.63950697569E+03  0.20708781494E+03 -0.12962060737E+04  0.16018161339E+04  0.65864270000E+03 0. -1.
    8880022    1    1    2    0    0 -0.63950697569E+03 -0.20708781494E+03 -0.20830891976E+02  0.68969566776E+03  0.15294330000E+03 0.  0.
<mgrwt>
<rscale>  0 0.87064446E+03</rscale>
<asrwt>0</asrwt>
<pdfrwt beam="1">  1        1 0.27758067E+00 0.94109763E+03</pdfrwt>
<pdfrwt beam="2">  1       -1 0.74959604E-01 0.94109763E+03</pdfrwt>
<totfact> 0.73618045E+00</totfact>
</mgrwt>
</event>
<event>
 4    5  0.7453847E-008  0.7651800E+03  0.7818608E-02  0.9791877E-01
          1   -1    0    0  501    0  0.00000000000E+00  0.00000000000E+00  0.15635072294E+04  0.15635072295E+04  0.50400000000E-02 0. -1.
         -1   -1    0    0    0  501 -0.00000000000E+00 -0.00000000000E+00 -0.11335011781E+04  0.11335011781E+04  0.50400000000E-02 0.  1.
    8880023    1    1    2    0    0  0.12444666131E+03  0.36905724077E+03  0.14250935856E+04  0.16175265539E+04  0.65864270000E+03 0. -1.
    8880022    1    1    2    0    0 -0.12444666131E+03 -0.36905724077E+03 -0.99508753427E+03  0.10794818536E+04  0.15294330000E+03 0.  0.
<mgrwt>
<rscale>  0 0.65800297E+03</rscale>
<asrwt>0</asrwt>
<pdfrwt beam="1">  1        1 0.24053957E+00 0.76517999E+03</pdfrwt>
<pdfrwt beam="2">  1       -1 0.17438480E+00 0.76517999E+03</pdfrwt>
<totfact> 0.14152100E+00</totfact>
</mgrwt>
</event>
<event>
 4    5  0.7176259E-008  0.1155698E+04  0.7818608E-02  0.9201438E-01
          1   -1    0    0  501    0  0.00000000000E+00  0.00000000000E+00  0.24077208625E+04  0.24077208625E+04  0.50400000000E-02 0. -1.
         -1   -1    0    0    0  501 -0.00000000000E+00 -0.00000000000E+00 -0.54452638211E+03  0.54452638213E+03  0.50400000000E-02 0.  1.
    8880023    1    1    2    0    0 -0.19949394428E+03 -0.92845595415E+03  0.44454112724E+03  0.12382468706E+04  0.65864270000E+03 0.  1.
    8880022    1    1    2    0    0  0.19949394428E+03  0.92845595415E+03  0.14186533532E+04  0.17140003740E+04  0.15294330000E+03 0.  0.
<mgrwt>
<rscale>  0 0.11038599E+04</rscale>
<asrwt>0</asrwt>
<pdfrwt beam="1">  1        1 0.37041860E+00 0.11556983E+04</pdfrwt>
<pdfrwt beam="2">  1       -1 0.83773288E-01 0.11556983E+04</pdfrwt>
<totfact> 0.22088318E+00</totfact>
</mgrwt>
</event>
<event>
 4    5  0.7176259E-008  0.1298438E+04  0.7818608E-02  0.9066910E-01
          1   -1    0    0  501    0  0.00000000000E+00  0.00000000000E+00  0.25523912098E+04  0.25523912098E+04  0.50400000000E-02 0. -1.
         -1   -1    0    0    0  501 -0.00000000000E+00 -0.00000000000E+00 -0.18691240237E+04  0.18691240237E+04  0.50400000000E-02 0.  1.
    8880023    1    1    2    0    0 -0.94074396851E+03  0.60591452448E+03  0.21854865318E+04  0.25421040915E+04  0.65864270000E+03 0.  0.
    8880022    1    1    2    0    0  0.94074396851E+03 -0.60591452448E+03 -0.15022193456E+04  0.18794111420E+04  0.15294330000E+03 0.  0.
<mgrwt>
<rscale>  0 0.12539408E+04</rscale>
<asrwt>0</asrwt>
<pdfrwt beam="1">  1        1 0.39267557E+00 0.12984382E+04</pdfrwt>
<pdfrwt beam="2">  1       -1 0.28755754E+00 0.12984382E+04</pdfrwt>
<totfact> 0.48188708E-02</totfact>
</mgrwt>
</event>
<event>
 4    5  0.7176259E-008  0.7540694E+03  0.7818608E-02  0.9820710E-01
          1   -1    0    0  501    0  0.00000000000E+00  0.00000000000E+00  0.11530174019E+04  0.11530174019E+04  0.50400000000E-02 0. -1.
         -1   -1    0    0    0  501 -0.00000000000E+00 -0.00000000000E+00 -0.44984393253E+03  0.44984393256E+03  0.50400000000E-02 0.  1.
    8880023    1    1    2    0    0  0.34753803312E+03  0.11843917572E+03  0.88740414708E+03  0.11645200081E+04  0.65864270000E+03 0.  0.
    8880022    1    1    2    0    0 -0.34753803312E+03 -0.11843917572E+03 -0.18423067767E+03  0.43834132639E+03  0.15294330000E+03 0.  0.
<mgrwt>
<rscale>  0 0.64262862E+03</rscale>
<asrwt>0</asrwt>
<pdfrwt beam="1">  1        1 0.17738729E+00 0.75406945E+03</pdfrwt>
<pdfrwt beam="2">  1       -1 0.69206759E-01 0.75406945E+03</pdfrwt>
<totfact> 0.25149042E+01</totfact>
</mgrwt>
</event>
<event>
 4    5  0.7176259E-008  0.7587622E+03  0.7818608E-02  0.9808323E-01
          1   -1    0    0  501    0  0.00000000000E+00  0.00000000000E+00  0.11274885339E+04  0.11274885339E+04  0.50400000000E-02 0. -1.
         -1   -1    0    0    0  501 -0.00000000000E+00 -0.00000000000E+00 -0.32950822020E+03  0.32950822024E+03  0.50400000000E-02 0.  1.
    8880023    1    1    2    0    0  0.30911067725E+03 -0.21531489968E+03  0.71391715511E+03  0.10418242786E+04  0.65864270000E+03 0. -1.
    8880022    1    1    2    0    0 -0.30911067725E+03  0.21531489968E+03  0.84063158582E+02  0.41517247556E+03  0.15294330000E+03 0.  0.
<mgrwt>
<rscale>  0 0.64917816E+03</rscale>
<asrwt>0</asrwt>
<pdfrwt beam="1">  1        1 0.17345978E+00 0.75876223E+03</pdfrwt>
<pdfrwt beam="2">  1       -1 0.50693571E-01 0.75876223E+03</pdfrwt>
<totfact> 0.48416990E+01</totfact>
</mgrwt>
</event>
<event>
 4    5  0.7176259E-008  0.8410669E+03  0.7818608E-02  0.9628172E-01
         -1   -1    0    0    0  501 -0.00000000000E+00  0.00000000000E+00  0.29664696148E+03  0.29664696152E+03  0.50400000000E-02 0.  1.
          1   -1    0    0  501    0  0.00000000000E+00 -0.00000000000E+00 -0.18325867561E+04  0.18325867561E+04  0.50400000000E-02 0. -1.
    8880023    1    1    2    0    0 -0.51749220581E+03 -0.76060415807E+02 -0.12689879255E+04  0.15224072817E+04  0.65864270000E+03 0.  0.
    8880022    1    1    2    0    0  0.51749220581E+03  0.76060415807E+02 -0.26695186910E+03  0.60682643594E+03  0.15294330000E+03 0.  0.
<mgrwt>
<rscale>  0 0.75459324E+03</rscale>
<asrwt>0</asrwt>
<pdfrwt beam="1">  1        1 0.28193642E+00 0.84106693E+03</pdfrwt>
<pdfrwt beam="2">  1       -1 0.45637995E-01 0.84106693E+03</pdfrwt>
<totfact> 0.18960617E+01</totfact>
</mgrwt>
</event>
<event>
 4    5  0.7176259E-008  0.9508197E+03  0.7818608E-02  0.9448936E-01
         -1   -1    0    0    0  501 -0.00000000000E+00  0.00000000000E+00  0.31998943493E+03  0.31998943497E+03  0.50400000000E-02 0.  1.
          1   -1    0    0  501    0  0.00000000000E+00 -0.00000000000E+00 -0.32995778450E+04  0.32995778450E+04  0.50400000000E-02 0. -1.
    8880023    1    1    2    0    0 -0.36128042934E+03 -0.58285870534E+03 -0.27014975297E+04  0.28639390581E+04  0.65864270000E+03 0.  0.
    8880022    1    1    2    0    0  0.36128042934E+03  0.58285870534E+03 -0.27809088039E+03  0.75562822193E+03  0.15294330000E+03 0.  0.
<mgrwt>
<rscale>  0 0.88155589E+03</rscale>
<asrwt>0</asrwt>
<pdfrwt beam="1">  1        1 0.50762734E+00 0.95081966E+03</pdfrwt>
<pdfrwt beam="2">  1       -1 0.49229146E-01 0.95081966E+03</pdfrwt>
<totfact> 0.15407907E+00</totfact>
</mgrwt>
</event>
<event>
 4    5  0.7176259E-008  0.7514778E+03  0.7818608E-02  0.9827692E-01
          1   -1    0    0  501    0  0.00000000000E+00  0.00000000000E+00  0.15525122450E+04  0.15525122451E+04  0.50400000000E-02 0. -1.
         -1   -1    0    0    0  501 -0.00000000000E+00 -0.00000000000E+00 -0.42404111918E+03  0.42404111921E+03  0.50400000000E-02 0.  1.
    8880023    1    1    2    0    0 -0.26570146663E+03 -0.24558394912E+03  0.13355861151E+04  0.15324846565E+04  0.65864270000E+03 0. -1.
    8880022    1    1    2    0    0  0.26570146663E+03  0.24558394912E+03 -0.20711498921E+03  0.44406870775E+03  0.15294330000E+03 0.  0.
<mgrwt>
<rscale>  0 0.63897375E+03</rscale>
<asrwt>0</asrwt>
<pdfrwt beam="1">  1        1 0.23884803E+00 0.75147785E+03</pdfrwt>
<pdfrwt beam="2">  1       -1 0.65237097E-01 0.75147785E+03</pdfrwt>
<totfact> 0.14859565E+01</totfact>
</mgrwt>
</event>
<event>
 4    5  0.7176259E-008  0.7641098E+03  0.7818608E-02  0.9794582E-01
          1   -1    0    0  501    0  0.00000000000E+00  0.00000000000E+00  0.13937254215E+04  0.13937254215E+04  0.50400000000E-02 0. -1.
         -1   -1    0    0    0  501 -0.00000000000E+00 -0.00000000000E+00 -0.48923241032E+03  0.48923241035E+03  0.50400000000E-02 0.  1.
    8880023    1    1    2    0    0 -0.58028301025E+02 -0.38299638873E+03  0.11638986632E+04  0.13923088098E+04  0.65864270000E+03 0. -1.
    8880022    1    1    2    0    0  0.58028301025E+02  0.38299638873E+03 -0.25940565201E+03  0.49064902202E+03  0.15294330000E+03 0.  0.
<mgrwt>
<rscale>  0 0.65654135E+03</rscale>
<asrwt>0</asrwt>
<pdfrwt beam="1">  1        1 0.21441929E+00 0.76410976E+03</pdfrwt>
<pdfrwt beam="2">  1       -1 0.75266525E-01 0.76410976E+03</pdfrwt>
<totfact> 0.14231106E+01</totfact>
</mgrwt>
</event>
<event>
 4    5  0.7176259E-008  0.8717885E+03  0.7818608E-02  0.9572928E-01
         -1   -1    0    0    0  501 -0.00000000000E+00  0.00000000000E+00  0.58846351404E+03  0.58846351406E+03  0.50400000000E-02 0.  1.
          1   -1    0    0  501    0  0.00000000000E+00 -0.00000000000E+00 -0.17528909781E+04  0.17528909781E+04  0.50400000000E-02 0. -1.
    8880023    1    1    2    0    0  0.53358292307E+03  0.20370125391E+03 -0.14444402885E+04  0.16871345204E+04  0.65864270000E+03 0.  0.
    8880022    1    1    2    0    0 -0.53358292307E+03 -0.20370125391E+03  0.28001282442E+03  0.65421997179E+03  0.15294330000E+03 0.  0.
<mgrwt>
<rscale>  0 0.79114163E+03</rscale>
<asrwt>0</asrwt>
<pdfrwt beam="1">  1        1 0.26967553E+00 0.87178847E+03</pdfrwt>
<pdfrwt beam="2">  1       -1 0.90532849E-01 0.87178847E+03</pdfrwt>
<totfact> 0.53634848E+00</totfact>
</mgrwt>
</event>
<event>
 4    5  0.7176259E-008  0.1019605E+04  0.7818608E-02  0.9356346E-01
          1   -1    0    0  501    0  0.00000000000E+00  0.00000000000E+00  0.12295752863E+04  0.12295752863E+04  0.50400000000E-02 0. -1.
         -1   -1    0    0    0  501 -0.00000000000E+00 -0.00000000000E+00 -0.69274460569E+03  0.69274460571E+03  0.50400000000E-02 0.  1.
    8880023    1    1    2    0    0 -0.69395863056E+03  0.35242909189E+03  0.48039337608E+03  0.11271081793E+04  0.65864270000E+03 0.  0.
    8880022    1    1    2    0    0  0.69395863056E+03 -0.35242909189E+03  0.56437304535E+02  0.79521171275E+03  0.15294330000E+03 0.  0.
<mgrwt>
<rscale>  0 0.95757023E+03</rscale>
<asrwt>0</asrwt>
<pdfrwt beam="1">  1        1 0.18916543E+00 0.10196053E+04</pdfrwt>
<pdfrwt beam="2">  1       -1 0.10657609E+00 0.10196053E+04</pdfrwt>
<totfact> 0.83724045E+00</totfact>
</mgrwt>
</event>
<event>
 4    5  0.7176259E-008  0.1009003E+04  0.7818608E-02  0.9369873E-01
          1   -1    0    0  501    0  0.00000000000E+00  0.00000000000E+00  0.48881679261E+03  0.48881679264E+03  0.50400000000E-02 0. -1.
         -1   -1    0    0    0  501 -0.00000000000E+00 -0.00000000000E+00 -0.25677812800E+04  0.25677812800E+04  0.50400000000E-02 0.  1.
    8880023    1    1    2    0    0  0.74349092824E+03  0.17747491376E+03 -0.20402385739E+04  0.22761062695E+04  0.65864270000E+03 0.  1.
    8880022    1    1    2    0    0 -0.74349092824E+03 -0.17747491376E+03 -0.38725913493E+02  0.78049180314E+03  0.15294330000E+03 0.  0.
<mgrwt>
<rscale>  0 0.94597029E+03</rscale>
<asrwt>0</asrwt>
<pdfrwt beam="1">  1        1 0.75202585E-01 0.10090026E+04</pdfrwt>
<pdfrwt beam="2">  1       -1 0.39504327E+00 0.10090026E+04</pdfrwt>
<totfact> 0.36222524E-01</totfact>
</mgrwt>
</event>
<event>
 4    5  0.7176259E-008  0.7665784E+03  0.7818608E-02  0.9788365E-01
         -1   -1    0    0    0  501 -0.00000000000E+00  0.00000000000E+00  0.49900034354E+03  0.49900034356E+03  0.50400000000E-02 0.  1.
          1   -1    0    0  501    0  0.00000000000E+00 -0.00000000000E+00 -0.15275548248E+04  0.15275548248E+04  0.50400000000E-02 0. -1.
    8880023    1    1    2    0    0  0.38539608228E+03  0.72815273296E+02 -0.13116563177E+04  0.15192381993E+04  0.65864270000E+03 0. -1.
    8880022    1    1    2    0    0 -0.38539608228E+03 -0.72815273296E+02  0.28310183644E+03  0.50731696904E+03  0.15294330000E+03 0.  0.
<mgrwt>
<rscale>  0 0.65990694E+03</rscale>
<asrwt>0</asrwt>
<pdfrwt beam="1">  1        1 0.23500843E+00 0.76657838E+03</pdfrwt>
<pdfrwt beam="2">  1       -1 0.76769284E-01 0.76657838E+03</pdfrwt>
<totfact> 0.11039259E+01</totfact>
</mgrwt>
</event>
<event>
 4    5  0.7176259E-008  0.7116183E+03  0.7818608E-02  0.9952040E-01
         -1   -1    0    0    0  501 -0.00000000000E+00  0.00000000000E+00  0.46520640475E+03  0.46520640478E+03  0.50400000000E-02 0.  1.
          1   -1    0    0  501    0  0.00000000000E+00 -0.00000000000E+00 -0.20668473240E+04  0.20668473240E+04  0.50400000000E-02 0. -1.
    8880023    1    1    2    0    0  0.26215028400E+03  0.62189954177E+02 -0.19441029682E+04  0.20702504484E+04  0.65864270000E+03 0. -1.
    8880022    1    1    2    0    0 -0.26215028400E+03 -0.62189954177E+02  0.34246204895E+03  0.46180328040E+03  0.15294330000E+03 0.  0.
<mgrwt>
<rscale>  0 0.57804154E+03</rscale>
<asrwt>0</asrwt>
<pdfrwt beam="1">  1        1 0.31797651E+00 0.71161827E+03</pdfrwt>
<pdfrwt beam="2">  1       -1 0.71570217E-01 0.71161827E+03</pdfrwt>
<totfact> 0.55951409E+00</totfact>
</mgrwt>
</event>
<event>
 4    5  0.7176259E-008  0.7065319E+03  0.7818608E-02  0.9971112E-01
          1   -1    0    0  501    0  0.00000000000E+00  0.00000000000E+00  0.41565905120E+04  0.41565905120E+04  0.50400000000E-02 0. -1.
         -1   -1    0    0    0  501 -0.00000000000E+00 -0.00000000000E+00 -0.68966086291E+03  0.68966086292E+03  0.50400000000E-02 0.  1.
    8880023    1    1    2    0    0  0.86800108800E+02 -0.24050532530E+03  0.40926660611E+04  0.41532039156E+04  0.65864270000E+03 0. -1.
    8880022    1    1    2    0    0 -0.86800108800E+02  0.24050532530E+03 -0.62573641208E+03  0.69304745928E+03  0.15294330000E+03 0.  0.
<mgrwt>
<rscale>  0 0.56935261E+03</rscale>
<asrwt>0</asrwt>
<pdfrwt beam="1">  1        1 0.63947545E+00 0.70653187E+03</pdfrwt>
<pdfrwt beam="2">  1       -1 0.10610167E+00 0.70653187E+03</pdfrwt>
<totfact> 0.65982486E-02</totfact>
</mgrwt>
</event>
<event>
 4    5  0.9068925E-008  0.8853894E+03  0.7818608E-02  0.9549905E-01
          1   -1    0    0  501    0  0.00000000000E+00  0.00000000000E+00  0.17780414147E+04  0.17780414148E+04  0.50400000000E-02 0. -1.
         -1   -1    0    0    0  501 -0.00000000000E+00 -0.00000000000E+00 -0.13305557448E+04  0.13305557448E+04  0.50400000000E-02 0.  1.
    8880023    1    1    2    0    0  0.17016403666E+03  0.56669951081E+03  0.15860136423E+04  0.18164122921E+04  0.65864270000E+03 0.  0.
    8880022    1    1    2    0    0 -0.17016403666E+03 -0.56669951081E+03 -0.11385279724E+04  0.12921848675E+04  0.15294330000E+03 0.  0.
<mgrwt>
<rscale>  0 0.80702398E+03</rscale>
<asrwt>0</asrwt>
<pdfrwt beam="1">  1        1 0.27354483E+00 0.88538937E+03</pdfrwt>
<pdfrwt beam="2">  1       -1 0.20470088E+00 0.88538937E+03</pdfrwt>
<totfact> 0.60727261E-01</totfact>
</mgrwt>
</event>
<event>
 4    5  0.7176259E-008  0.1245882E+04  0.7818608E-02  0.9113763E-01
         -1   -1    0    0    0  501 -0.00000000000E+00  0.00000000000E+00  0.93867385941E+03  0.93867385942E+03  0.50400000000E-02 0.  1.
          1   -1    0    0  501    0  0.00000000000E+00 -0.00000000000E+00 -0.16889167046E+04  0.16889167046E+04  0.50400000000E-02 0. -1.
    8880023    1    1    2    0    0  0.10145707250E+04 -0.29842406785E+03 -0.91584398151E+03  0.15462829900E+04  0.65864270000E+03 0. -1.
    8880022    1    1    2    0    0 -0.10145707250E+04  0.29842406785E+03  0.16560113631E+03  0.10813075741E+04  0.15294330000E+03 0.  0.
<mgrwt>
<rscale>  0 0.11989648E+04</rscale>
<asrwt>0</asrwt>
<pdfrwt beam="1">  1        1 0.25983334E+00 0.12458816E+04</pdfrwt>
<pdfrwt beam="2">  1       -1 0.14441136E+00 0.12458816E+04</pdfrwt>
<totfact> 0.18291621E+00</totfact>
</mgrwt>
</event>
<event>
 4    5  0.7176259E-008  0.8147818E+03  0.7818608E-02  0.9679701E-01
          1   -1    0    0  501    0  0.00000000000E+00  0.00000000000E+00  0.10214557508E+04  0.10214557509E+04  0.50400000000E-02 0. -1.
         -1   -1    0    0    0  501 -0.00000000000E+00 -0.00000000000E+00 -0.12579457764E+04  0.12579457764E+04  0.50400000000E-02 0.  1.
    8880023    1    1    2    0    0 -0.55725914908E+01 -0.47961241910E+03  0.79076226591E+03  0.11354181141E+04  0.65864270000E+03 0. -1.
    8880022    1    1    2    0    0  0.55725914908E+01  0.47961241910E+03 -0.10272522915E+04  0.11439834132E+04  0.15294330000E+03 0.  0.
<mgrwt>
<rscale>  0 0.72238327E+03</rscale>
<asrwt>0</asrwt>
<pdfrwt beam="1">  1        1 0.15714704E+00 0.81478177E+03</pdfrwt>
<pdfrwt beam="2">  1       -1 0.19353012E+00 0.81478177E+03</pdfrwt>
<totfact> 0.25052023E+00</totfact>
</mgrwt>
</event>
<event>
 4    5  0.8124975E-008  0.8391496E+03  0.7818608E-02  0.9631786E-01
         -1   -1    0    0    0  501 -0.00000000000E+00  0.00000000000E+00  0.21243414604E+04  0.21243414604E+04  0.50400000000E-02 0.  1.
          1   -1    0    0  501    0  0.00000000000E+00 -0.00000000000E+00 -0.15771161709E+04  0.15771161709E+04  0.50400000000E-02 0. -1.
    8880023    1    1    2    0    0 -0.12185298276E+03 -0.50548368602E+03 -0.14263104002E+04  0.16548514949E+04  0.65864270000E+03 0.  0.
    8880022    1    1    2    0    0  0.12185298276E+03  0.50548368602E+03  0.19735356897E+04  0.20466061364E+04  0.15294330000E+03 0.  0.
<mgrwt>
<rscale>  0 0.75227642E+03</rscale>
<asrwt>0</asrwt>
<pdfrwt beam="1">  1        1 0.24263326E+00 0.83914964E+03</pdfrwt>
<pdfrwt beam="2">  1       -1 0.32682176E+00 0.83914964E+03</pdfrwt>
<totfact> 0.13504319E-01</totfact>
</mgrwt>
</event>
<event>
 4    5  0.8774458E-008  0.8445109E+03  0.7818608E-02  0.9621732E-01
         -1   -1    0    0    0  501 -0.00000000000E+00  0.00000000000E+00  0.90418440521E+03  0.90418440522E+03  0.50400000000E-02 0.  1.
          1   -1    0    0  501    0  0.00000000000E+00 -0.00000000000E+00 -0.20968283343E+04  0.20968283343E+04  0.50400000000E-02 0. -1.
    8880023    1    1    2    0    0  0.14659654532E+03 -0.50783652814E+03 -0.19150020772E+04  0.20929480758E+04  0.65864270000E+03 0. -1.
    8880022    1    1    2    0    0 -0.14659654532E+03  0.50783652814E+03  0.72235814804E+03  0.90806466370E+03  0.15294330000E+03 0.  0.
<mgrwt>
<rscale>  0 0.75874331E+03</rscale>
<asrwt>0</asrwt>
<pdfrwt beam="1">  1        1 0.32258897E+00 0.84451092E+03</pdfrwt>
<pdfrwt beam="2">  1       -1 0.13910529E+00 0.84451092E+03</pdfrwt>
<totfact> 0.11347784E+00</totfact>
</mgrwt>
</event>
<event>
 4    5  0.7176259E-008  0.7085078E+03  0.7818608E-02  0.9963584E-01
          1   -1    0    0  501    0  0.00000000000E+00  0.00000000000E+00  0.77489997686E+03  0.77489997687E+03  0.50400000000E-02 0. -1.
         -1   -1    0    0    0  501 -0.00000000000E+00 -0.00000000000E+00 -0.76649057095E+03  0.76649057097E+03  0.50400000000E-02 0.  1.
    8880023    1    1    2    0    0 -0.25918788647E+03 -0.31540401553E+02  0.56610270825E+03  0.90689340055E+03  0.65864270000E+03 0.  0.
    8880022    1    1    2    0    0  0.25918788647E+03  0.31540401553E+02 -0.55769330234E+03  0.63449714729E+03  0.15294330000E+03 0.  0.
<mgrwt>
<rscale>  0 0.57276249E+03</rscale>
<asrwt>0</asrwt>
<pdfrwt beam="1">  1        1 0.11921538E+00 0.70850784E+03</pdfrwt>
<pdfrwt beam="2">  1       -1 0.11792163E+00 0.70850784E+03</pdfrwt>
<totfact> 0.15541417E+01</totfact>
</mgrwt>
</event>
<event>
 4    5  0.7176259E-008  0.1160812E+04  0.7818608E-02  0.9196190E-01
          1   -1    0    0  501    0  0.00000000000E+00  0.00000000000E+00  0.14397596737E+04  0.14397596737E+04  0.50400000000E-02 0. -1.
         -1   -1    0    0    0  501 -0.00000000000E+00 -0.00000000000E+00 -0.81053616160E+03  0.81053616162E+03  0.50400000000E-02 0.  1.
    8880023    1    1    2    0    0  0.88256335621E+03 -0.36709231661E+03  0.53354073587E+03  0.12775565622E+04  0.65864270000E+03 0.  0.
    8880022    1    1    2    0    0 -0.88256335621E+03  0.36709231661E+03  0.95682776178E+02  0.97273927304E+03  0.15294330000E+03 0.  0.
<mgrwt>
<rscale>  0 0.11092841E+04</rscale>
<asrwt>0</asrwt>
<pdfrwt beam="1">  1        1 0.22150148E+00 0.11608122E+04</pdfrwt>
<pdfrwt beam="2">  1       -1 0.12469787E+00 0.11608122E+04</pdfrwt>
<totfact> 0.40018386E+00</totfact>
</mgrwt>
</event>
<event>
 4    5  0.7176259E-008  0.1820400E+04  0.7818608E-02  0.8711335E-01
          1   -1    0    0  501    0  0.00000000000E+00  0.00000000000E+00  0.21225602462E+04  0.21225602462E+04  0.50400000000E-02 0. -1.
         -1   -1    0    0    0  501 -0.00000000000E+00 -0.00000000000E+00 -0.23699542131E+04  0.23699542131E+04  0.50400000000E-02 0.  1.
    8880023    1    1    2    0    0  0.95344523634E+02 -0.16943894707E+04  0.12629048475E+04  0.22155778290E+04  0.65864270000E+03 0.  0.
    8880022    1    1    2    0    0 -0.95344523634E+02  0.16943894707E+04 -0.15102988144E+04  0.22769366303E+04  0.15294330000E+03 0.  0.
<mgrwt>
<rscale>  0 0.17905613E+04</rscale>
<asrwt>0</asrwt>
<pdfrwt beam="1">  1        1 0.32654773E+00 0.18204001E+04</pdfrwt>
<pdfrwt beam="2">  1       -1 0.36460834E+00 0.18204001E+04</pdfrwt>
<totfact> 0.27665140E-02</totfact>
</mgrwt>
</event>
<event>
 4    5  0.7176259E-008  0.1093685E+04  0.7818608E-02  0.9268119E-01
          1   -1    0    0  501    0  0.00000000000E+00  0.00000000000E+00  0.21564829880E+04  0.21564829880E+04  0.50400000000E-02 0. -1.
         -1   -1    0    0    0  501 -0.00000000000E+00 -0.00000000000E+00 -0.69243380951E+03  0.69243380952E+03  0.50400000000E-02 0.  1.
    8880023    1    1    2    0    0  0.33588224513E+03 -0.80592838538E+03  0.16142585324E+04  0.19498662161E+04  0.65864270000E+03 0. -1.
    8880022    1    1    2    0    0 -0.33588224513E+03  0.80592838538E+03 -0.15020935392E+03  0.89905058143E+03  0.15294330000E+03 0.  0.
<mgrwt>
<rscale>  0 0.10377157E+04</rscale>
<asrwt>0</asrwt>
<pdfrwt beam="1">  1        1 0.33176661E+00 0.10936854E+04</pdfrwt>
<pdfrwt beam="2">  1       -1 0.10652828E+00 0.10936854E+04</pdfrwt>
<totfact> 0.19200001E+00</totfact>
</mgrwt>
</event>
<event>
 4    5  0.7176259E-008  0.8445452E+03  0.7818608E-02  0.9621669E-01
          1   -1    0    0  501    0  0.00000000000E+00  0.00000000000E+00  0.42642166436E+04  0.42642166436E+04  0.50400000000E-02 0. -1.
         -1   -1    0    0    0  501 -0.00000000000E+00 -0.00000000000E+00 -0.30838629597E+03  0.30838629602E+03  0.50400000000E-02 0.  1.
    8880023    1    1    2    0    0 -0.43452558087E+03 -0.30105478174E+03  0.39321108225E+04  0.40217847019E+04  0.65864270000E+03 0.  0.
    8880022    1    1    2    0    0  0.43452558087E+03  0.30105478174E+03  0.23719525088E+02  0.55081823764E+03  0.15294330000E+03 0.  0.
<mgrwt>
<rscale>  0 0.75878460E+03</rscale>
<asrwt>0</asrwt>
<pdfrwt beam="1">  1        1 0.65603332E+00 0.84454524E+03</pdfrwt>
<pdfrwt beam="2">  1       -1 0.47444046E-01 0.84454524E+03</pdfrwt>
<totfact> 0.26820556E-01</totfact>
</mgrwt>
</event>
<event>
 4    5  0.7176259E-008  0.7841889E+03  0.7818608E-02  0.9746088E-01
         -1   -1    0    0    0  501 -0.00000000000E+00  0.00000000000E+00  0.68057716822E+03  0.68057716824E+03  0.50400000000E-02 0.  1.
          1   -1    0    0  501    0  0.00000000000E+00 -0.00000000000E+00 -0.78374569120E+03  0.78374569122E+03  0.50400000000E-02 0. -1.
    8880023    1    1    2    0    0  0.26419723053E+03  0.33367924447E+03 -0.44112369187E+03  0.89974570441E+03  0.65864270000E+03 0.  0.
    8880022    1    1    2    0    0 -0.26419723053E+03 -0.33367924447E+03  0.33795516889E+03  0.56457715505E+03  0.15294330000E+03 0.  0.
<mgrwt>
<rscale>  0 0.68337819E+03</rscale>
<asrwt>0</asrwt>
<pdfrwt beam="1">  1        1 0.12057626E+00 0.78418889E+03</pdfrwt>
<pdfrwt beam="2">  1       -1 0.10470418E+00 0.78418889E+03</pdfrwt>
<totfact> 0.20040422E+01</totfact>
</mgrwt>
</event>
<event>
 4    5  0.7176259E-008  0.1545410E+04  0.7818608E-02  0.8878219E-01
          1   -1    0    0  501    0  0.00000000000E+00  0.00000000000E+00  0.22321708307E+04  0.22321708307E+04  0.50400000000E-02 0. -1.
         -1   -1    0    0    0  501 -0.00000000000E+00 -0.00000000000E+00 -0.11497129924E+04  0.11497129924E+04  0.50400000000E-02 0.  1.
    8880023    1    1    2    0    0 -0.59601037425E+03 -0.12646158036E+04 -0.94088522304E+02  0.15482714081E+04  0.65864270000E+03 0.  0.
    8880022    1    1    2    0    0  0.59601037425E+03  0.12646158036E+04  0.11765463606E+04  0.18336124150E+04  0.15294330000E+03 0.  0.
<mgrwt>
<rscale>  0 0.15094112E+04</rscale>
<asrwt>0</asrwt>
<pdfrwt beam="1">  1        1 0.34341089E+00 0.15454099E+04</pdfrwt>
<pdfrwt beam="2">  1       -1 0.17687892E+00 0.15454099E+04</pdfrwt>
<totfact> 0.42772648E-01</totfact>
</mgrwt>
</event>
<event>
 4    5  0.7176259E-008  0.1214421E+04  0.7818608E-02  0.9143230E-01
          1   -1    0    0  501    0  0.00000000000E+00  0.00000000000E+00  0.18640801373E+04  0.18640801373E+04  0.50400000000E-02 0. -1.
         -1   -1    0    0    0  501 -0.00000000000E+00 -0.00000000000E+00 -0.79725872412E+03  0.79725872413E+03  0.50400000000E-02 0.  1.
    8880023    1    1    2    0    0  0.96577790222E+03 -0.32905957109E+03  0.10864200038E+04  0.16294556725E+04  0.65864270000E+03 0.  0.
    8880022    1    1    2    0    0 -0.96577790222E+03  0.32905957109E+03 -0.19598590661E+02  0.10318831889E+04  0.15294330000E+03 0.  0.
<mgrwt>
<rscale>  0 0.11659096E+04</rscale>
<asrwt>0</asrwt>
<pdfrwt beam="1">  1        1 0.28678156E+00 0.12144206E+04</pdfrwt>
<pdfrwt beam="2">  1       -1 0.12265519E+00 0.12144206E+04</pdfrwt>
<totfact> 0.21229593E+00</totfact>
</mgrwt>
</event>
<event>
 4    5  0.7176259E-008  0.6619873E+03  0.7818608E-02  0.1022207E+00
         -1   -1    0    0    0  501 -0.00000000000E+00  0.00000000000E+00  0.19881751670E+03  0.19881751676E+03  0.50400000000E-02 0.  1.
          1   -1    0    0  501    0  0.00000000000E+00 -0.00000000000E+00 -0.86364649883E+03  0.86364649884E+03  0.50400000000E-02 0. -1.
    8880023    1    1    2    0    0  0.61235533640E+02 -0.25830194516E+02 -0.53278327846E+03  0.84975597532E+03  0.65864270000E+03 0.  1.
    8880022    1    1    2    0    0 -0.61235533640E+02  0.25830194516E+02 -0.13204570367E+03  0.21270804028E+03  0.15294330000E+03 0. -1.
<mgrwt>
<rscale>  0 0.46898583E+03</rscale>
<asrwt>0</asrwt>
<pdfrwt beam="1">  1        1 0.13286869E+00 0.66198731E+03</pdfrwt>
<pdfrwt beam="2">  1       -1 0.30587311E-01 0.66198731E+03</pdfrwt>
<totfact> 0.19602979E+02</totfact>
</mgrwt>
</event>
<event>
 4    5  0.7176259E-008  0.9151089E+03  0.7818608E-02  0.9502200E-01
          1   -1    0    0  501    0  0.00000000000E+00  0.00000000000E+00  0.11413744290E+04  0.11413744291E+04  0.50400000000E-02 0. -1.
         -1   -1    0    0    0  501 -0.00000000000E+00 -0.00000000000E+00 -0.15010904580E+04  0.15010904580E+04  0.50400000000E-02 0.  1.
    8880023    1    1    2    0    0  0.37772916439E+03 -0.51081778363E+03  0.86187450660E+03  0.12570807457E+04  0.65864270000E+03 0.  0.
    8880022    1    1    2    0    0 -0.37772916439E+03  0.51081778363E+03 -0.12215905355E+04  0.13853841414E+04  0.15294330000E+03 0.  0.
<mgrwt>
<rscale>  0 0.84121849E+03</rscale>
<asrwt>0</asrwt>
<pdfrwt beam="1">  1        1 0.17559606E+00 0.91510892E+03</pdfrwt>
<pdfrwt beam="2">  1       -1 0.23093700E+00 0.91510892E+03</pdfrwt>
<totfact> 0.11205956E+00</totfact>
</mgrwt>
</event>
<event>
 4    5  0.7176259E-008  0.9916010E+03  0.7818608E-02  0.9392630E-01
          1   -1    0    0  501    0  0.00000000000E+00  0.00000000000E+00  0.11421699552E+04  0.11421699552E+04  0.50400000000E-02 0. -1.
         -1   -1    0    0    0  501 -0.00000000000E+00 -0.00000000000E+00 -0.84939921181E+03  0.84939921183E+03  0.50400000000E-02 0.  1.
    8880023    1    1    2    0    0  0.41030124975E+03 -0.61734530181E+03  0.61731113079E+03  0.11680520432E+04  0.65864270000E+03 0.  0.
    8880022    1    1    2    0    0 -0.41030124975E+03  0.61734530181E+03 -0.32454038737E+03  0.82351712384E+03  0.15294330000E+03 0.  0.
<mgrwt>
<rscale>  0 0.92684734E+03</rscale>
<asrwt>0</asrwt>
<pdfrwt beam="1">  1        1 0.17571845E+00 0.99160100E+03</pdfrwt>
<pdfrwt beam="2">  1       -1 0.13067680E+00 0.99160100E+03</pdfrwt>
<totfact> 0.59242132E+00</totfact>
</mgrwt>
</event>
<event>
 4    5  0.7176259E-008  0.6820147E+03  0.7818608E-02  0.1008206E+00
         -1   -1    0    0    0  501 -0.00000000000E+00  0.00000000000E+00  0.52645817082E+03  0.52645817084E+03  0.50400000000E-02 0.  1.
          1   -1    0    0  501    0  0.00000000000E+00 -0.00000000000E+00 -0.15165232730E+04  0.15165232730E+04  0.50400000000E-02 0. -1.
    8880023    1    1    2    0    0  0.16786087771E+03  0.56183900964E+02 -0.14077438553E+04  0.15642528163E+04  0.65864270000E+03 0. -1.
    8880022    1    1    2    0    0 -0.16786087771E+03 -0.56183900964E+02  0.41767875311E+03  0.47872862752E+03  0.15294330000E+03 0.  0.
<mgrwt>
<rscale>  0 0.52193822E+03</rscale>
<asrwt>0</asrwt>
<pdfrwt beam="1">  1        1 0.23331127E+00 0.68201474E+03</pdfrwt>
<pdfrwt beam="2">  1       -1 0.80993565E-01 0.68201474E+03</pdfrwt>
<totfact> 0.10162097E+01</totfact>
</mgrwt>
</event>
<event>
 4    5  0.7176259E-008  0.1423456E+04  0.7818608E-02  0.8965668E-01
         -1   -1    0    0    0  501 -0.00000000000E+00  0.00000000000E+00  0.29643060366E+04  0.29643060366E+04  0.50400000000E-02 0.  1.
          1   -1    0    0  501    0  0.00000000000E+00 -0.00000000000E+00 -0.10811733519E+04  0.10811733520E+04  0.50400000000E-02 0. -1.
    8880023    1    1    2    0    0  0.53654270332E+02  0.12607689187E+04 -0.35904950298E+03  0.14680408029E+04  0.65864270000E+03 0.  0.
    8880022    1    1    2    0    0 -0.53654270332E+02 -0.12607689187E+04  0.22421821877E+04  0.25774385857E+04  0.15294330000E+03 0.  0.
<mgrwt>
<rscale>  0 0.13837473E+04</rscale>
<asrwt>0</asrwt>
<pdfrwt beam="1">  1        1 0.16633436E+00 0.14234561E+04</pdfrwt>
<pdfrwt beam="2">  1       -1 0.45604709E+00 0.14234561E+04</pdfrwt>
<totfact> 0.36932562E-02</totfact>
</mgrwt>
</event>
<event>
 4    5  0.7176259E-008  0.6875738E+03  0.7818608E-02  0.1005328E+00
         -1   -1    0    0    0  501 -0.00000000000E+00  0.00000000000E+00  0.29267359259E+04  0.29267359259E+04  0.50400000000E-02 0.  1.
          1   -1    0    0  501    0  0.00000000000E+00 -0.00000000000E+00 -0.18356590073E+04  0.18356590073E+04  0.50400000000E-02 0. -1.
    8880023    1    1    2    0    0 -0.12816037385E+03  0.15007473909E+03 -0.17656370510E+04  0.18947907301E+04  0.65864270000E+03 0. -1.
    8880022    1    1    2    0    0  0.12816037385E+03 -0.15007473909E+03  0.28567139696E+04  0.28676042031E+04  0.15294330000E+03 0.  0.
<mgrwt>
<rscale>  0 0.53374596E+03</rscale>
<asrwt>0</asrwt>
<pdfrwt beam="1">  1        1 0.28240908E+00 0.68757379E+03</pdfrwt>
<pdfrwt beam="2">  1       -1 0.45026707E+00 0.68757379E+03</pdfrwt>
<totfact> 0.13996480E-02</totfact>
</mgrwt>
</event>
<event>
 4    5  0.7176259E-008  0.8544451E+03  0.7818608E-02  0.9603522E-01
         -1   -1    0    0    0  501 -0.00000000000E+00  0.00000000000E+00  0.98932776955E+03  0.98932776956E+03  0.50400000000E-02 0.  1.
          1   -1    0    0  501    0  0.00000000000E+00 -0.00000000000E+00 -0.10173036460E+04  0.10173036460E+04  0.50400000000E-02 0. -1.
    8880023    1    1    2    0    0 -0.16466456638E+03  0.51879837808E+03 -0.71693772454E+03  0.11153815866E+04  0.65864270000E+03 0. -1.
    8880022    1    1    2    0    0  0.16466456638E+03 -0.51879837808E+03  0.68896184811E+03  0.89124982899E+03  0.15294330000E+03 0.  0.
<mgrwt>
<rscale>  0 0.77063509E+03</rscale>
<asrwt>0</asrwt>
<pdfrwt beam="1">  1        1 0.15650825E+00 0.85444507E+03</pdfrwt>
<pdfrwt beam="2">  1       -1 0.15220427E+00 0.85444507E+03</pdfrwt>
<totfact> 0.50226195E+00</totfact>
</mgrwt>
</event>
<event>
 4    5  0.7176259E-008  0.1063355E+04  0.7818608E-02  0.9302997E-01
         -1   -1    0    0    0  501 -0.00000000000E+00  0.00000000000E+00  0.16885650463E+04  0.16885650463E+04  0.50400000000E-02 0.  1.
          1   -1    0    0  501    0  0.00000000000E+00 -0.00000000000E+00 -0.69166113433E+03  0.69166113435E+03  0.50400000000E-02 0. -1.
    8880023    1    1    2    0    0  0.79453083115E+03 -0.25619186115E+03 -0.99339634404E+01  0.10634013359E+04  0.65864270000E+03 0.  0.
    8880022    1    1    2    0    0 -0.79453083115E+03  0.25619186115E+03  0.10068378754E+04  0.13168248448E+04  0.15294330000E+03 0.  0.
<mgrwt>
<rscale>  0 0.10050745E+04</rscale>
<asrwt>0</asrwt>
<pdfrwt beam="1">  1        1 0.10640941E+00 0.10633549E+04</pdfrwt>
<pdfrwt beam="2">  1       -1 0.25977924E+00 0.10633549E+04</pdfrwt>
<totfact> 0.16719924E+00</totfact>
</mgrwt>
</event>
<event>
 4    5  0.7176259E-008  0.8697077E+03  0.7818608E-02  0.9576523E-01
         -1   -1    0    0    0  501 -0.00000000000E+00  0.00000000000E+00  0.53584633577E+03  0.53584633580E+03  0.50400000000E-02 0.  1.
          1   -1    0    0  501    0  0.00000000000E+00 -0.00000000000E+00 -0.10301967075E+04  0.10301967075E+04  0.50400000000E-02 0. -1.
    8880023    1    1    2    0    0 -0.56749340731E+03  0.23074493111E+02 -0.44184599088E+03  0.97550975674E+03  0.65864270000E+03 0.  1.
    8880022    1    1    2    0    0  0.56749340731E+03 -0.23074493111E+02 -0.52504380885E+02  0.59053328661E+03  0.15294330000E+03 0.  0.
<mgrwt>
<rscale>  0 0.78869706E+03</rscale>
<asrwt>0</asrwt>
<pdfrwt beam="1">  1        1 0.15849180E+00 0.86970766E+03</pdfrwt>
<pdfrwt beam="2">  1       -1 0.82437898E-01 0.86970766E+03</pdfrwt>
<totfact> 0.21291518E+01</totfact>
</mgrwt>
</event>
<event>
 4    5  0.7176259E-008  0.7585045E+03  0.7818608E-02  0.9808995E-01
         -1   -1    0    0    0  501 -0.00000000000E+00  0.00000000000E+00  0.53935096916E+03  0.53935096918E+03  0.50400000000E-02 0.  1.
          1   -1    0    0  501    0  0.00000000000E+00 -0.00000000000E+00 -0.18986841327E+04  0.18986841327E+04  0.50400000000E-02 0. -1.
    8880023    1    1    2    0    0 -0.37595403160E+03 -0.13320211479E+02 -0.17295202142E+04  0.18885362690E+04  0.65864270000E+03 0. -1.
    8880022    1    1    2    0    0  0.37595403160E+03  0.13320211479E+02  0.37018705060E+03  0.54949883290E+03  0.15294330000E+03 0.  0.
<mgrwt>
<rscale>  0 0.64882065E+03</rscale>
<asrwt>0</asrwt>
<pdfrwt beam="1">  1        1 0.29210525E+00 0.75850449E+03</pdfrwt>
<pdfrwt beam="2">  1       -1 0.82977073E-01 0.75850449E+03</pdfrwt>
<totfact> 0.52690710E+00</totfact>
</mgrwt>
</event>
<event>
 4    5  0.7176259E-008  0.8250124E+03  0.7818608E-02  0.9659116E-01
          1   -1    0    0  501    0  0.00000000000E+00  0.00000000000E+00  0.10535220348E+04  0.10535220348E+04  0.50400000000E-02 0. -1.
         -1   -1    0    0    0  501 -0.00000000000E+00 -0.00000000000E+00 -0.61734212516E+03  0.61734212518E+03  0.50400000000E-02 0.  1.
    8880023    1    1    2    0    0 -0.30746886844E+02  0.49587287220E+03  0.70538890700E+03  0.10854579646E+04  0.65864270000E+03 0. -1.
    8880022    1    1    2    0    0  0.30746886844E+02 -0.49587287220E+03 -0.26920899733E+03  0.58540619547E+03  0.15294330000E+03 0.  0.
<mgrwt>
<rscale>  0 0.73504079E+03</rscale>
<asrwt>0</asrwt>
<pdfrwt beam="1">  1        1 0.16208031E+00 0.82501241E+03</pdfrwt>
<pdfrwt beam="2">  1       -1 0.94975711E-01 0.82501241E+03</pdfrwt>
<totfact> 0.15052962E+01</totfact>
</mgrwt>
</event>
<event>
 4    5  0.7176259E-008  0.1101351E+04  0.7818608E-02  0.9259554E-01
         -1   -1    0    0    0  501 -0.00000000000E+00  0.00000000000E+00  0.21745842505E+04  0.21745842505E+04  0.50400000000E-02 0.  1.
          1   -1    0    0  501    0  0.00000000000E+00 -0.00000000000E+00 -0.84416572022E+03  0.84416572024E+03  0.50400000000E-02 0. -1.
    8880023    1    1    2    0    0  0.18761079817E+03  0.86253417878E+03 -0.31478310281E+03  0.11454525871E+04  0.65864270000E+03 0.  0.
    8880022    1    1    2    0    0 -0.18761079817E+03 -0.86253417878E+03  0.16452016331E+04  0.18732973837E+04  0.15294330000E+03 0.  0.
<mgrwt>
<rscale>  0 0.10459322E+04</rscale>
<asrwt>0</asrwt>
<pdfrwt beam="1">  1        1 0.12987165E+00 0.11013506E+04</pdfrwt>
<pdfrwt beam="2">  1       -1 0.33455142E+00 0.11013506E+04</pdfrwt>
<totfact> 0.39918430E-01</totfact>
</mgrwt>
</event>
<event>
 4    5  0.7176259E-008  0.1263467E+04  0.7818608E-02  0.9097768E-01
          1   -1    0    0  501    0  0.00000000000E+00  0.00000000000E+00  0.12943683770E+04  0.12943683771E+04  0.50400000000E-02 0. -1.
         -1   -1    0    0    0  501 -0.00000000000E+00 -0.00000000000E+00 -0.14759032011E+04  0.14759032011E+04  0.50400000000E-02 0.  1.
    8880023    1    1    2    0    0 -0.42585563144E+03  0.99054877670E+03  0.63030202732E+03  0.14119598966E+04  0.65864270000E+03 0.  0.
    8880022    1    1    2    0    0  0.42585563144E+03 -0.99054877670E+03 -0.81183685136E+03  0.13583116815E+04  0.15294330000E+03 0.  0.
<mgrwt>
<rscale>  0 0.12173922E+04</rscale>
<asrwt>0</asrwt>
<pdfrwt beam="1">  1        1 0.19913360E+00 0.12634675E+04</pdfrwt>
<pdfrwt beam="2">  1       -1 0.22706203E+00 0.12634675E+04</pdfrwt>
<totfact> 0.87680896E-01</totfact>
</mgrwt>
</event>
<event>
 4    5  0.7176259E-008  0.6788562E+03  0.7818608E-02  0.1009978E+00
          1   -1    0    0  501    0  0.00000000000E+00  0.00000000000E+00  0.91481985757E+03  0.91481985758E+03  0.50400000000E-02 0. -1.
         -1   -1    0    0    0  501 -0.00000000000E+00 -0.00000000000E+00 -0.13038082501E+04  0.13038082501E+04  0.50400000000E-02 0.  1.
    8880023    1    1    2    0    0 -0.10531687876E+03 -0.12626893141E+03  0.77667152061E+03  0.10315349462E+04  0.65864270000E+03 0. -1.
    8880022    1    1    2    0    0  0.10531687876E+03  0.12626893141E+03 -0.11656599132E+04  0.11870931615E+04  0.15294330000E+03 0.  0.
<mgrwt>
<rscale>  0 0.51483299E+03</rscale>
<asrwt>0</asrwt>
<pdfrwt beam="1">  1        1 0.14074152E+00 0.67885617E+03</pdfrwt>
<pdfrwt beam="2">  1       -1 0.20058589E+00 0.67885617E+03</pdfrwt>
<totfact> 0.27822951E+00</totfact>
</mgrwt>
</event>
<event>
 4    5  0.7176259E-008  0.7300062E+03  0.7818608E-02  0.9890077E-01
          1   -1    0    0  501    0  0.00000000000E+00  0.00000000000E+00  0.14959285750E+04  0.14959285750E+04  0.50400000000E-02 0. -1.
         -1   -1    0    0    0  501 -0.00000000000E+00 -0.00000000000E+00 -0.68013303209E+03  0.68013303211E+03  0.50400000000E-02 0.  1.
    8880023    1    1    2    0    0 -0.10757653609E+03 -0.29584827043E+03  0.13515637621E+04  0.15361099308E+04  0.65864270000E+03 0.  0.
    8880022    1    1    2    0    0  0.10757653609E+03  0.29584827043E+03 -0.53576821922E+03  0.63995167628E+03  0.15294330000E+03 0.  0.
<mgrwt>
<rscale>  0 0.60744612E+03</rscale>
<asrwt>0</asrwt>
<pdfrwt beam="1">  1        1 0.23014286E+00 0.73000624E+03</pdfrwt>
<pdfrwt beam="2">  1       -1 0.10463585E+00 0.73000624E+03</pdfrwt>
<totfact> 0.59025740E+00</totfact>
</mgrwt>
</event>
<event>
 4    5  0.7176259E-008  0.7873841E+03  0.7818608E-02  0.9738769E-01
         -1   -1    0    0    0  501 -0.00000000000E+00  0.00000000000E+00  0.83490401707E+03  0.83490401709E+03  0.50400000000E-02 0.  1.
          1   -1    0    0  501    0  0.00000000000E+00 -0.00000000000E+00 -0.55068299314E+03  0.55068299317E+03  0.50400000000E-02 0. -1.
    8880023    1    1    2    0    0  0.19952946944E+03  0.38255924626E+03  0.44006415672E+03  0.90201455330E+03  0.65864270000E+03 0.  1.
    8880022    1    1    2    0    0 -0.19952946944E+03 -0.38255924626E+03 -0.15584313278E+03  0.48357245696E+03  0.15294330000E+03 0. -1.
<mgrwt>
<rscale>  0 0.68754688E+03</rscale>
<asrwt>0</asrwt>
<pdfrwt beam="1">  1        1 0.84720461E-01 0.78738415E+03</pdfrwt>
<pdfrwt beam="2">  1       -1 0.12844677E+00 0.78738415E+03</pdfrwt>
<totfact> 0.20688264E+01</totfact>
</mgrwt>
</event>
<event>
 4    5  0.7176259E-008  0.1170024E+04  0.7818608E-02  0.9186827E-01
         -1   -1    0    0    0  501 -0.00000000000E+00  0.00000000000E+00  0.11756189494E+04  0.11756189494E+04  0.50400000000E-02 0.  1.
          1   -1    0    0  501    0  0.00000000000E+00 -0.00000000000E+00 -0.22452379482E+04  0.22452379482E+04  0.50400000000E-02 0. -1.
    8880023    1    1    2    0    0 -0.56475507288E+03  0.78498234196E+03  0.72507926636E+03  0.13764794653E+04  0.65864270000E+03 0.  1.
    8880022    1    1    2    0    0  0.56475507288E+03 -0.78498234196E+03 -0.17946982652E+04  0.20443774323E+04  0.15294330000E+03 0.  0.
<mgrwt>
<rscale>  0 0.11190440E+04</rscale>
<asrwt>0</asrwt>
<pdfrwt beam="1">  1        1 0.34542122E+00 0.11700238E+04</pdfrwt>
<pdfrwt beam="2">  1       -1 0.18086445E+00 0.11700238E+04</pdfrwt>
<totfact> 0.41122190E-01</totfact>
</mgrwt>
</event>
<event>
 4    5  0.7176259E-008  0.1211483E+04  0.7818608E-02  0.9146040E-01
          1   -1    0    0  501    0  0.00000000000E+00  0.00000000000E+00  0.11839732171E+04  0.11839732171E+04  0.50400000000E-02 0. -1.
         -1   -1    0    0    0  501 -0.00000000000E+00 -0.00000000000E+00 -0.11341646642E+04  0.11341646642E+04  0.50400000000E-02 0.  1.
    8880023    1    1    2    0    0 -0.81747657313E+03  0.60465989165E+03 -0.27020937657E+03  0.12412513225E+04  0.65864270000E+03 0.  1.
    8880022    1    1    2    0    0  0.81747657313E+03 -0.60465989165E+03  0.32001792946E+03  0.10768865587E+04  0.15294330000E+03 0.  0.
<mgrwt>
<rscale>  0 0.11628173E+04</rscale>
<asrwt>0</asrwt>
<pdfrwt beam="1">  1        1 0.18214973E+00 0.12114833E+04</pdfrwt>
<pdfrwt beam="2">  1       -1 0.17448687E+00 0.12114833E+04</pdfrwt>
<totfact> 0.24529746E+00</totfact>
</mgrwt>
</event>
<event>
 4    5  0.7176259E-008  0.1079485E+04  0.7818608E-02  0.9284248E-01
          1   -1    0    0  501    0  0.00000000000E+00  0.00000000000E+00  0.16825370341E+04  0.16825370341E+04  0.50400000000E-02 0. -1.
         -1   -1    0    0    0  501 -0.00000000000E+00 -0.00000000000E+00 -0.81373486685E+03  0.81373486687E+03  0.50400000000E-02 0.  1.
    8880023    1    1    2    0    0  0.83382331146E+03  0.19030512281E+03  0.11555696914E+04  0.15813376845E+04  0.65864270000E+03 0. -1.
    8880022    1    1    2    0    0 -0.83382331146E+03 -0.19030512281E+03 -0.28676752416E+03  0.91493421645E+03  0.15294330000E+03 0.  0.
<mgrwt>
<rscale>  0 0.10224601E+04</rscale>
<asrwt>0</asrwt>
<pdfrwt beam="1">  1        1 0.25885185E+00 0.10794849E+04</pdfrwt>
<pdfrwt beam="2">  1       -1 0.12518998E+00 0.10794849E+04</pdfrwt>
<totfact> 0.27224704E+00</totfact>
</mgrwt>
</event>
<event>
 4    5  0.7176259E-008  0.1050708E+04  0.7818608E-02  0.9318031E-01
         -1   -1    0    0    0  501 -0.00000000000E+00  0.00000000000E+00  0.81012232445E+03  0.81012232446E+03  0.50400000000E-02 0.  1.
          1   -1    0    0  501    0  0.00000000000E+00 -0.00000000000E+00 -0.20208343678E+04  0.20208343678E+04  0.50400000000E-02 0. -1.
    8880023    1    1    2    0    0  0.35747921261E+03  0.73646776625E+03 -0.15980149664E+04  0.19124952803E+04  0.65864270000E+03 0.  1.
    8880022    1    1    2    0    0 -0.35747921261E+03 -0.73646776625E+03  0.38730292298E+03  0.91846141200E+03  0.15294330000E+03 0.  0.
<mgrwt>
<rscale>  0 0.99139679E+03</rscale>
<asrwt>0</asrwt>
<pdfrwt beam="1">  1        1 0.31089759E+00 0.10507076E+04</pdfrwt>
<pdfrwt beam="2">  1       -1 0.12463420E+00 0.10507076E+04</pdfrwt>
<totfact> 0.16322280E+00</totfact>
</mgrwt>
</event>
<event>
 4    5  0.7176259E-008  0.8140054E+03  0.7818608E-02  0.9681293E-01
         -1   -1    0    0    0  501 -0.00000000000E+00  0.00000000000E+00  0.90802002262E+03  0.90802002263E+03  0.50400000000E-02 0.  1.
          1   -1    0    0  501    0  0.00000000000E+00 -0.00000000000E+00 -0.56351795542E+03  0.56351795544E+03  0.50400000000E-02 0. -1.
    8880023    1    1    2    0    0  0.46792489820E+03 -0.99201035389E+02  0.48822645711E+03  0.94919430859E+03  0.65864270000E+03 0.  0.
    8880022    1    1    2    0    0 -0.46792489820E+03  0.99201035389E+02 -0.14372438991E+03  0.52234366948E+03  0.15294330000E+03 0.  0.
<mgrwt>
<rscale>  0 0.72141576E+03</rscale>
<asrwt>0</asrwt>
<pdfrwt beam="1">  1        1 0.86695071E-01 0.81400538E+03</pdfrwt>
<pdfrwt beam="2">  1       -1 0.13969539E+00 0.81400538E+03</pdfrwt>
<totfact> 0.16118788E+01</totfact>
</mgrwt>
</event>
<event>
 4    5  0.9764707E-008  0.7509406E+03  0.7818608E-02  0.9829152E-01
         -1   -1    0    0    0  501 -0.00000000000E+00  0.00000000000E+00  0.10886558990E+04  0.10886558990E+04  0.50400000000E-02 0.  1.
          1   -1    0    0  501    0  0.00000000000E+00 -0.00000000000E+00 -0.18996955237E+04  0.18996955237E+04  0.50400000000E-02 0. -1.
    8880023    1    1    2    0    0  0.28996267593E+03  0.21453024960E+03 -0.17860914198E+04  0.19375330571E+04  0.65864270000E+03 0. -1.
    8880022    1    1    2    0    0 -0.28996267593E+03 -0.21453024960E+03  0.97505179504E+03  0.10508183656E+04  0.15294330000E+03 0.  0.
<mgrwt>
<rscale>  0 0.63821256E+03</rscale>
<asrwt>0</asrwt>
<pdfrwt beam="1">  1        1 0.29226085E+00 0.75094060E+03</pdfrwt>
<pdfrwt beam="2">  1       -1 0.16748552E+00 0.75094060E+03</pdfrwt>
<totfact> 0.94659393E-01</totfact>
</mgrwt>
</event>
<event>
 4    5  0.7176259E-008  0.8812323E+03  0.7818608E-02  0.9556857E-01
          1   -1    0    0  501    0  0.00000000000E+00  0.00000000000E+00  0.15171337048E+04  0.15171337048E+04  0.50400000000E-02 0. -1.
         -1   -1    0    0    0  501 -0.00000000000E+00 -0.00000000000E+00 -0.51108606318E+03  0.51108606320E+03  0.50400000000E-02 0.  1.
    8880023    1    1    2    0    0 -0.58270995152E+03 -0.56651064059E+02  0.11068142957E+04  0.14147820758E+04  0.65864270000E+03 0. -1.
    8880022    1    1    2    0    0  0.58270995152E+03  0.56651064059E+02 -0.10076665403E+03  0.61343769222E+03  0.15294330000E+03 0.  0.
<mgrwt>
<rscale>  0 0.80218674E+03</rscale>
<asrwt>0</asrwt>
<pdfrwt beam="1">  1        1 0.23340518E+00 0.88123234E+03</pdfrwt>
<pdfrwt beam="2">  1       -1 0.78628626E-01 0.88123234E+03</pdfrwt>
<totfact> 0.10507131E+01</totfact>
</mgrwt>
</event>
<event>
 4    5  0.7176259E-008  0.7398813E+03  0.7818608E-02  0.9860293E-01
          1   -1    0    0  501    0  0.00000000000E+00  0.00000000000E+00  0.18694126346E+04  0.18694126346E+04  0.50400000000E-02 0. -1.
         -1   -1    0    0    0  501 -0.00000000000E+00 -0.00000000000E+00 -0.19297582825E+03  0.19297582831E+03  0.50400000000E-02 0.  1.
    8880023    1    1    2    0    0 -0.20640853070E+03 -0.26647630985E+03  0.14516682738E+04  0.16293449877E+04  0.65864270000E+03 0.  1.
    8880022    1    1    2    0    0  0.20640853070E+03  0.26647630985E+03  0.22476853253E+03  0.43304347529E+03  0.15294330000E+03 0.  0.
<mgrwt>
<rscale>  0 0.62224854E+03</rscale>
<asrwt>0</asrwt>
<pdfrwt beam="1">  1        1 0.28760195E+00 0.73988128E+03</pdfrwt>
<pdfrwt beam="2">  1       -1 0.29688588E-01 0.73988128E+03</pdfrwt>
<totfact> 0.39310553E+01</totfact>
</mgrwt>
</event>
<event>
 4    5  0.7176259E-008  0.7856066E+03  0.7818608E-02  0.9742828E-01
         -1   -1    0    0    0  501 -0.00000000000E+00  0.00000000000E+00  0.35652571418E+03  0.35652571422E+03  0.50400000000E-02 0.  1.
          1   -1    0    0  501    0  0.00000000000E+00 -0.00000000000E+00 -0.16798105640E+04  0.16798105640E+04  0.50400000000E-02 0. -1.
    8880023    1    1    2    0    0  0.23105075791E+03  0.36053155290E+03 -0.13699693411E+04  0.15792383148E+04  0.65864270000E+03 0.  0.
    8880022    1    1    2    0    0 -0.23105075791E+03 -0.36053155290E+03  0.46684491268E+02  0.45709796336E+03  0.15294330000E+03 0.  0.
<mgrwt>
<rscale>  0 0.68523085E+03</rscale>
<asrwt>0</asrwt>
<pdfrwt beam="1">  1        1 0.25843239E+00 0.78560656E+03</pdfrwt>
<pdfrwt beam="2">  1       -1 0.54850111E-01 0.78560656E+03</pdfrwt>
<totfact> 0.17067558E+01</totfact>
</mgrwt>
</event>
<event>
 4    5  0.7176259E-008  0.7659749E+03  0.7818608E-02  0.9789878E-01
         -1   -1    0    0    0  501 -0.00000000000E+00  0.00000000000E+00  0.26104237848E+03  0.26104237853E+03  0.50400000000E-02 0.  1.
          1   -1    0    0  501    0  0.00000000000E+00 -0.00000000000E+00 -0.16802389427E+04  0.16802389427E+04  0.50400000000E-02 0. -1.
    8880023    1    1    2    0    0 -0.38086716512E+03 -0.88586476403E+02 -0.12929899857E+04  0.15028441938E+04  0.65864270000E+03 0. -1.
    8880022    1    1    2    0    0  0.38086716512E+03  0.88586476403E+02 -0.12620657847E+03  0.43843712745E+03  0.15294330000E+03 0.  0.
<mgrwt>
<rscale>  0 0.65908609E+03</rscale>
<asrwt>0</asrwt>
<pdfrwt beam="1">  1        1 0.25849829E+00 0.76597491E+03</pdfrwt>
<pdfrwt beam="2">  1       -1 0.40160367E-01 0.76597491E+03</pdfrwt>
<totfact> 0.30666986E+01</totfact>
</mgrwt>
</event>
<event>
 4    5  0.9902843E-008  0.1195321E+04  0.7818608E-02  0.9161684E-01
         -1   -1    0    0    0  501 -0.00000000000E+00  0.00000000000E+00  0.18162207551E+04  0.18162207551E+04  0.50400000000E-02 0.  1.
          1   -1    0    0  501    0  0.00000000000E+00 -0.00000000000E+00 -0.35349492390E+04  0.35349492390E+04  0.50400000000E-02 0. -1.
    8880023    1    1    2    0    0  0.64886163629E+03 -0.75760212588E+03 -0.32806391771E+04  0.34916165341E+04  0.65864270000E+03 0. -1.
    8880022    1    1    2    0    0 -0.64886163629E+03  0.75760212588E+03  0.15619106932E+04  0.18595534600E+04  0.15294330000E+03 0.  0.
<mgrwt>
<rscale>  0 0.11457817E+04</rscale>
<asrwt>0</asrwt>
<pdfrwt beam="1">  1        1 0.54383834E+00 0.11953211E+04</pdfrwt>
<pdfrwt beam="2">  1       -1 0.27941858E+00 0.11953211E+04</pdfrwt>
<totfact> 0.10570214E-02</totfact>
</mgrwt>
</event>
<event>
 4    5  0.7176259E-008  0.6782969E+03  0.7818608E-02  0.1010304E+00
          1   -1    0    0  501    0  0.00000000000E+00  0.00000000000E+00  0.10400754564E+04  0.10400754564E+04  0.50400000000E-02 0. -1.
         -1   -1    0    0    0  501 -0.00000000000E+00 -0.00000000000E+00 -0.81384684961E+03  0.81384684962E+03  0.50400000000E-02 0.  1.
    8880023    1    1    2    0    0  0.16172125748E+03 -0.11076633757E+02  0.90986594444E+03  0.11348756320E+04  0.65864270000E+03 0. -1.
    8880022    1    1    2    0    0 -0.16172125748E+03  0.11076633757E+02 -0.68363733769E+03  0.71904667403E+03  0.15294330000E+03 0.  0.
<mgrwt>
<rscale>  0 0.51354035E+03</rscale>
<asrwt>0</asrwt>
<pdfrwt beam="1">  1        1 0.16001161E+00 0.67829688E+03</pdfrwt>
<pdfrwt beam="2">  1       -1 0.12520721E+00 0.67829688E+03</pdfrwt>
<totfact> 0.82059905E+00</totfact>
</mgrwt>
</event>
<event>
 4    5  0.7176259E-008  0.1653282E+04  0.7818608E-02  0.8808356E-01
         -1   -1    0    0    0  501 -0.00000000000E+00  0.00000000000E+00  0.15102761597E+04  0.15102761597E+04  0.50400000000E-02 0.  1.
          1   -1    0    0  501    0  0.00000000000E+00 -0.00000000000E+00 -0.26119754349E+04  0.26119754349E+04  0.50400000000E-02 0. -1.
    8880023    1    1    2    0    0  0.39211316793E+03  0.14648475080E+04 -0.18015094179E+04  0.24451538494E+04  0.65864270000E+03 0.  0.
    8880022    1    1    2    0    0 -0.39211316793E+03 -0.14648475080E+04  0.69981014273E+03  0.16770977452E+04  0.15294330000E+03 0.  0.
<mgrwt>
<rscale>  0 0.16199982E+04</rscale>
<asrwt>0</asrwt>
<pdfrwt beam="1">  1        1 0.40184238E+00 0.16532819E+04</pdfrwt>
<pdfrwt beam="2">  1       -1 0.23235018E+00 0.16532819E+04</pdfrwt>
<totfact> 0.95483838E-02</totfact>
</mgrwt>
</event>
<event>
 4    5  0.7176259E-008  0.1549387E+04  0.7818608E-02  0.8875527E-01
          1   -1    0    0  501    0  0.00000000000E+00  0.00000000000E+00  0.35874028246E+04  0.35874028246E+04  0.50400000000E-02 0. -1.
         -1   -1    0    0    0  501 -0.00000000000E+00 -0.00000000000E+00 -0.68545851075E+03  0.68545851077E+03  0.50400000000E-02 0.  1.
    8880023    1    1    2    0    0 -0.67944079853E+03 -0.12268459348E+04  0.22166934600E+04  0.27045019594E+04  0.65864270000E+03 0.  0.
    8880022    1    1    2    0    0  0.67944079853E+03  0.12268459348E+04  0.68525085381E+03  0.15683593760E+04  0.15294330000E+03 0.  0.
<mgrwt>
<rscale>  0 0.15134971E+04</rscale>
<asrwt>0</asrwt>
<pdfrwt beam="1">  1        1 0.55190813E+00 0.15493873E+04</pdfrwt>
<pdfrwt beam="2">  1       -1 0.10545515E+00 0.15493873E+04</pdfrwt>
<totfact> 0.17178049E-01</totfact>
</mgrwt>
</event>
<event>
 4    5  0.7176259E-008  0.7929634E+03  0.7818608E-02  0.9726222E-01
          1   -1    0    0  501    0  0.00000000000E+00  0.00000000000E+00  0.88267778259E+03  0.88267778261E+03  0.50400000000E-02 0. -1.
         -1   -1    0    0    0  501 -0.00000000000E+00 -0.00000000000E+00 -0.84389473465E+03  0.84389473467E+03  0.50400000000E-02 0.  1.
    8880023    1    1    2    0    0 -0.25627974535E+03  0.35958513981E+03  0.60137950079E+03  0.99521268626E+03  0.65864270000E+03 0. -1.
    8880022    1    1    2    0    0  0.25627974535E+03 -0.35958513981E+03 -0.56259645285E+03  0.73135983102E+03  0.15294330000E+03 0.  0.
<mgrwt>
<rscale>  0 0.69476766E+03</rscale>
<asrwt>0</asrwt>
<pdfrwt beam="1">  1        1 0.13579658E+00 0.79296342E+03</pdfrwt>
<pdfrwt beam="2">  1       -1 0.12982996E+00 0.79296342E+03</pdfrwt>
<totfact> 0.98170125E+00</totfact>
</mgrwt>
</event>
<event>
 4    5  0.7176259E-008  0.7697491E+03  0.7818608E-02  0.9780492E-01
          1   -1    0    0  501    0  0.00000000000E+00  0.00000000000E+00  0.82792563194E+03  0.82792563195E+03  0.50400000000E-02 0. -1.
         -1   -1    0    0    0  501 -0.00000000000E+00 -0.00000000000E+00 -0.98722418197E+03  0.98722418198E+03  0.50400000000E-02 0.  1.
    8880023    1    1    2    0    0  0.39781365480E+03  0.21159923261E+02  0.57845535055E+03  0.96287291225E+03  0.65864270000E+03 0. -1.
    8880022    1    1    2    0    0 -0.39781365480E+03 -0.21159923261E+02 -0.73775390058E+03  0.85227690168E+03  0.15294330000E+03 0.  0.
<mgrwt>
<rscale>  0 0.66420045E+03</rscale>
<asrwt>0</asrwt>
<pdfrwt beam="1">  1        1 0.12737317E+00 0.76974908E+03</pdfrwt>
<pdfrwt beam="2">  1       -1 0.15188064E+00 0.76974908E+03</pdfrwt>
<totfact> 0.72689769E+00</totfact>
</mgrwt>
</event>
<event>
 4    5  0.7176259E-008  0.1125401E+04  0.7818608E-02  0.9233289E-01
         -1   -1    0    0    0  501 -0.00000000000E+00  0.00000000000E+00  0.59167866203E+03  0.59167866205E+03  0.50400000000E-02 0.  1.
          1   -1    0    0  501    0  0.00000000000E+00 -0.00000000000E+00 -0.23891247521E+04  0.23891247522E+04  0.50400000000E-02 0. -1.
    8880023    1    1    2    0    0 -0.48369724236E+03  0.77379182656E+03 -0.17157964643E+04  0.20519465213E+04  0.65864270000E+03 0.  0.
    8880022    1    1    2    0    0  0.48369724236E+03 -0.77379182656E+03 -0.81649625828E+02  0.92885689292E+03  0.15294330000E+03 0.  0.
<mgrwt>
<rscale>  0 0.10716341E+04</rscale>
<asrwt>0</asrwt>
<pdfrwt beam="1">  1        1 0.36755765E+00 0.11254008E+04</pdfrwt>
<pdfrwt beam="2">  1       -1 0.91027488E-01 0.11254008E+04</pdfrwt>
<totfact> 0.19027029E+00</totfact>
</mgrwt>
</event>
<event>
 4    5  0.7176259E-008  0.1505004E+04  0.7818608E-02  0.8906111E-01
          1   -1    0    0  501    0  0.00000000000E+00  0.00000000000E+00  0.83926878223E+03  0.83926878225E+03  0.50400000000E-02 0. -1.
         -1   -1    0    0    0  501 -0.00000000000E+00 -0.00000000000E+00 -0.45462763240E+04  0.45462763240E+04  0.50400000000E-02 0.  1.
    8880023    1    1    2    0    0 -0.12728642906E+04  0.45939442547E+03 -0.75289203981E+02  0.15068859980E+04  0.65864270000E+03 0.  0.
    8880022    1    1    2    0    0  0.12728642906E+04 -0.45939442547E+03 -0.36317183378E+04  0.38786591083E+04  0.15294330000E+03 0.  0.
<mgrwt>
<rscale>  0 0.14678614E+04</rscale>
<asrwt>0</asrwt>
<pdfrwt beam="1">  1        1 0.12911828E+00 0.15050040E+04</pdfrwt>
<pdfrwt beam="2">  1       -1 0.69942711E+00 0.15050040E+04</pdfrwt>
<totfact> 0.38498389E-03</totfact>
</mgrwt>
</event>
<event>
 4    5  0.7176259E-008  0.1100043E+04  0.7818608E-02  0.9261009E-01
          1   -1    0    0  501    0  0.00000000000E+00  0.00000000000E+00  0.11488927486E+04  0.11488927486E+04  0.50400000000E-02 0. -1.
         -1   -1    0    0    0  501 -0.00000000000E+00 -0.00000000000E+00 -0.13276724616E+04  0.13276724616E+04  0.50400000000E-02 0.  1.
    8880023    1    1    2    0    0 -0.64216295446E+03 -0.60324960900E+03  0.63269985420E+03  0.12690164154E+04  0.65864270000E+03 0. -1.
    8880022    1    1    2    0    0  0.64216295446E+03  0.60324960900E+03 -0.81147956715E+03  0.12075487948E+04  0.15294330000E+03 0.  0.
<mgrwt>
<rscale>  0 0.10445309E+04</rscale>
<asrwt>0</asrwt>
<pdfrwt beam="1">  1        1 0.17675273E+00 0.11000425E+04</pdfrwt>
<pdfrwt beam="2">  1       -1 0.20425730E+00 0.11000425E+04</pdfrwt>
<totfact> 0.16266047E+00</totfact>
</mgrwt>
</event>
<event>
 4    5  0.7176259E-008  0.1017490E+04  0.7818608E-02  0.9359025E-01
          1   -1    0    0  501    0  0.00000000000E+00  0.00000000000E+00  0.12401364257E+04  0.12401364257E+04  0.50400000000E-02 0. -1.
         -1   -1    0    0    0  501 -0.00000000000E+00 -0.00000000000E+00 -0.14139396798E+04  0.14139396798E+04  0.50400000000E-02 0.  1.
    8880023    1    1    2    0    0 -0.20502184064E+03  0.74795791238E+03  0.87414419826E+03  0.13414221108E+04  0.65864270000E+03 0.  0.
    8880022    1    1    2    0    0  0.20502184064E+03 -0.74795791238E+03 -0.10479474524E+04  0.13126539947E+04  0.15294330000E+03 0.  1.
<mgrwt>
<rscale>  0 0.95525852E+03</rscale>
<asrwt>0</asrwt>
<pdfrwt beam="1">  1        1 0.19079022E+00 0.10174897E+04</pdfrwt>
<pdfrwt beam="2">  1       -1 0.21752918E+00 0.10174897E+04</pdfrwt>
<totfact> 0.11466530E+00</totfact>
</mgrwt>
</event>
<event>
 4    5  0.7176259E-008  0.8041221E+03  0.7818608E-02  0.9701953E-01
          1   -1    0    0  501    0  0.00000000000E+00  0.00000000000E+00  0.23374576433E+04  0.23374576433E+04  0.50400000000E-02 0. -1.
         -1   -1    0    0    0  501 -0.00000000000E+00 -0.00000000000E+00 -0.22646074007E+03  0.22646074013E+03  0.50400000000E-02 0.  1.
    8880023    1    1    2    0    0  0.42204129243E+03 -0.18623445985E+03  0.18386800332E+04  0.20068274957E+04  0.65864270000E+03 0.  0.
    8880022    1    1    2    0    0 -0.42204129243E+03  0.18623445985E+03  0.27231687006E+03  0.55709088781E+03  0.15294330000E+03 0.  0.
<mgrwt>
<rscale>  0 0.70900623E+03</rscale>
<asrwt>0</asrwt>
<pdfrwt beam="1">  1        1 0.35960887E+00 0.80412209E+03</pdfrwt>
<pdfrwt beam="2">  1       -1 0.34840113E-01 0.80412209E+03</pdfrwt>
<totfact> 0.14270863E+01</totfact>
</mgrwt>
</event>
<event>
 4    5  0.7176259E-008  0.8864384E+03  0.7818608E-02  0.9548163E-01
         -1   -1    0    0    0  501 -0.00000000000E+00  0.00000000000E+00  0.10161939781E+04  0.10161939781E+04  0.50400000000E-02 0.  1.
          1   -1    0    0  501    0  0.00000000000E+00 -0.00000000000E+00 -0.11188017456E+04  0.11188017456E+04  0.50400000000E-02 0. -1.
    8880023    1    1    2    0    0  0.58499127489E+03  0.98731811179E+02 -0.80887832065E+03  0.12000237940E+04  0.65864270000E+03 0. -1.
    8880022    1    1    2    0    0 -0.58499127489E+03 -0.98731811179E+02  0.70627055310E+03  0.93497192975E+03  0.15294330000E+03 0.  0.
<mgrwt>
<rscale>  0 0.80824234E+03</rscale>
<asrwt>0</asrwt>
<pdfrwt beam="1">  1        1 0.17212335E+00 0.88643836E+03</pdfrwt>
<pdfrwt beam="2">  1       -1 0.15633754E+00 0.88643836E+03</pdfrwt>
<totfact> 0.38933174E+00</totfact>
</mgrwt>
</event>
<event>
 4    5  0.7176259E-008  0.1107182E+04  0.7818608E-02  0.9253101E-01
         -1   -1    0    0    0  501 -0.00000000000E+00  0.00000000000E+00  0.10993406592E+04  0.10993406592E+04  0.50400000000E-02 0.  1.
          1   -1    0    0  501    0  0.00000000000E+00 -0.00000000000E+00 -0.29421719729E+04  0.29421719729E+04  0.50400000000E-02 0. -1.
    8880023    1    1    2    0    0  0.80879228145E+03  0.37134583895E+03 -0.26236706648E+04  0.28477184991E+04  0.65864270000E+03 0.  0.
    8880022    1    1    2    0    0 -0.80879228145E+03 -0.37134583895E+03  0.78083935110E+03  0.11937941330E+04  0.15294330000E+03 0.  0.
<mgrwt>
<rscale>  0 0.10521751E+04</rscale>
<asrwt>0</asrwt>
<pdfrwt beam="1">  1        1 0.45264184E+00 0.11071824E+04</pdfrwt>
<pdfrwt beam="2">  1       -1 0.16912933E+00 0.11071824E+04</pdfrwt>
<totfact> 0.16559174E-01</totfact>
</mgrwt>
</event>
<event>
 4    5  0.7176259E-008  0.9091903E+03  0.7818608E-02  0.9511436E-01
          1   -1    0    0  501    0  0.00000000000E+00  0.00000000000E+00  0.22673316059E+04  0.22673316059E+04  0.50400000000E-02 0. -1.
         -1   -1    0    0    0  501 -0.00000000000E+00 -0.00000000000E+00 -0.37718794508E+03  0.37718794511E+03  0.50400000000E-02 0.  1.
    8880023    1    1    2    0    0  0.16261009053E+03 -0.60528899695E+03  0.17677714477E+04  0.19878739671E+04  0.65864270000E+03 0.  0.
    8880022    1    1    2    0    0 -0.16261009053E+03  0.60528899695E+03  0.12237221313E+03  0.65664558396E+03  0.15294330000E+03 0.  0.
<mgrwt>
<rscale>  0 0.83445892E+03</rscale>
<asrwt>0</asrwt>
<pdfrwt beam="1">  1        1 0.34882024E+00 0.90919031E+03</pdfrwt>
<pdfrwt beam="2">  1       -1 0.58028915E-01 0.90919031E+03</pdfrwt>
<totfact> 0.60573911E+00</totfact>
</mgrwt>
</event>
<event>
 4    5  0.7176259E-008  0.1015178E+04  0.7818608E-02  0.9361964E-01
         -1   -1    0    0    0  501 -0.00000000000E+00  0.00000000000E+00  0.53427106522E+03  0.53427106524E+03  0.50400000000E-02 0.  1.
          1   -1    0    0  501    0  0.00000000000E+00 -0.00000000000E+00 -0.19208039238E+04  0.19208039238E+04  0.50400000000E-02 0. -1.
    8880023    1    1    2    0    0  0.91382880129E+02 -0.76708881734E+03 -0.13193412046E+04  0.16647064321E+04  0.65864270000E+03 0.  0.
    8880022    1    1    2    0    0 -0.91382880129E+02  0.76708881734E+03 -0.67191653932E+02  0.79036855697E+03  0.15294330000E+03 0.  0.
<mgrwt>
<rscale>  0 0.95273097E+03</rscale>
<asrwt>0</asrwt>
<pdfrwt beam="1">  1        1 0.29550829E+00 0.10151780E+04</pdfrwt>
<pdfrwt beam="2">  1       -1 0.82195550E-01 0.10151780E+04</pdfrwt>
<totfact> 0.50062698E+00</totfact>
</mgrwt>
</event>
<event>
 4    5  0.7176259E-008  0.1268571E+04  0.7818608E-02  0.9093187E-01
          1   -1    0    0  501    0  0.00000000000E+00  0.00000000000E+00  0.21312546117E+04  0.21312546117E+04  0.50400000000E-02 0. -1.
         -1   -1    0    0    0  501 -0.00000000000E+00 -0.00000000000E+00 -0.23511754233E+04  0.23511754233E+04  0.50400000000E-02 0.  1.
    8880023    1    1    2    0    0  0.10447562321E+04 -0.28973726948E+03  0.17898129047E+04  0.21937875262E+04  0.65864270000E+03 0.  0.
    8880022    1    1    2    0    0 -0.10447562321E+04  0.28973726948E+03 -0.20097337163E+04  0.22886425088E+04  0.15294330000E+03 0.  0.
<mgrwt>
<rscale>  0 0.12227341E+04</rscale>
<asrwt>0</asrwt>
<pdfrwt beam="1">  1        1 0.32788532E+00 0.12685714E+04</pdfrwt>
<pdfrwt beam="2">  1       -1 0.36171930E+00 0.12685714E+04</pdfrwt>
<totfact> 0.30851992E-02</totfact>
</mgrwt>
</event>
<event>
 4    5  0.7176259E-008  0.7190197E+03  0.7818608E-02  0.9925917E-01
         -1   -1    0    0    0  501 -0.00000000000E+00  0.00000000000E+00  0.14292938181E+04  0.14292938181E+04  0.50400000000E-02 0.  1.
          1   -1    0    0  501    0  0.00000000000E+00 -0.00000000000E+00 -0.44158180227E+03  0.44158180229E+03  0.50400000000E-02 0. -1.
    8880023    1    1    2    0    0 -0.25245981772E+03 -0.13943873561E+03 -0.10843448085E+03  0.72715016569E+03  0.65864270000E+03 0. -1.
    8880022    1    1    2    0    0  0.25245981772E+03  0.13943873561E+03  0.10961464967E+04  0.11437254547E+04  0.15294330000E+03 0.  0.
<mgrwt>
<rscale>  0 0.59021515E+03</rscale>
<asrwt>0</asrwt>
<pdfrwt beam="1">  1        1 0.67935662E-01 0.71901970E+03</pdfrwt>
<pdfrwt beam="2">  1       -1 0.21989136E+00 0.71901970E+03</pdfrwt>
<totfact> 0.60250978E+00</totfact>
</mgrwt>
</event>
<event>
 4    5  0.7176259E-008  0.1300578E+04  0.7818608E-02  0.9065061E-01
          1   -1    0    0  501    0  0.00000000000E+00  0.00000000000E+00  0.68752740574E+03  0.68752740576E+03  0.50400000000E-02 0. -1.
         -1   -1    0    0    0  501 -0.00000000000E+00 -0.00000000000E+00 -0.27374594033E+04  0.27374594033E+04  0.50400000000E-02 0.  1.
    8880023    1    1    2    0    0 -0.24046359037E+02 -0.11212108633E+04 -0.18716815235E+04  0.22791871268E+04  0.65864270000E+03 0.  0.
    8880022    1    1    2    0    0  0.24046359037E+02  0.11212108633E+04 -0.17825047402E+03  0.11457996822E+04  0.15294330000E+03 0.  0.
<mgrwt>
<rscale>  0 0.12561729E+04</rscale>
<asrwt>0</asrwt>
<pdfrwt beam="1">  1        1 0.10577345E+00 0.13005777E+04</pdfrwt>
<pdfrwt beam="2">  1       -1 0.42114759E+00 0.13005777E+04</pdfrwt>
<totfact> 0.14074396E-01</totfact>
</mgrwt>
</event>
<event>
 4    5  0.7176259E-008  0.6868219E+03  0.7818608E-02  0.1005701E+00
          1   -1    0    0  501    0  0.00000000000E+00  0.00000000000E+00  0.20933506357E+04  0.20933506357E+04  0.50400000000E-02 0. -1.
         -1   -1    0    0    0  501 -0.00000000000E+00 -0.00000000000E+00 -0.66157996894E+03  0.66157996896E+03  0.50400000000E-02 0.  1.
    8880023    1    1    2    0    0  0.19469287232E+03 -0.29718744540E+01  0.20109722749E+04  0.21250256100E+04  0.65864270000E+03 0. -1.
    8880022    1    1    2    0    0 -0.19469287232E+03  0.29718744540E+01 -0.57920160806E+03  0.62990499471E+03  0.15294330000E+03 0.  0.
<mgrwt>
<rscale>  0 0.53219502E+03</rscale>
<asrwt>0</asrwt>
<pdfrwt beam="1">  1        1 0.32205395E+00 0.68682192E+03</pdfrwt>
<pdfrwt beam="2">  1       -1 0.10178153E+00 0.68682192E+03</pdfrwt>
<totfact> 0.25185698E+00</totfact>
</mgrwt>
</event>
<event>
 4    5  0.7176259E-008  0.1409148E+04  0.7818608E-02  0.8976607E-01
          1   -1    0    0  501    0  0.00000000000E+00  0.00000000000E+00  0.34370861546E+04  0.34370861546E+04  0.50400000000E-02 0. -1.
         -1   -1    0    0    0  501 -0.00000000000E+00 -0.00000000000E+00 -0.65427591604E+03  0.65427591606E+03  0.50400000000E-02 0.  1.
    8880023    1    1    2    0    0  0.12456607091E+04  0.14716165957E+02  0.23930802951E+04  0.27771443377E+04  0.65864270000E+03 0.  0.
    8880022    1    1    2    0    0 -0.12456607091E+04 -0.14716165957E+02  0.38972994355E+03  0.13142177330E+04  0.15294330000E+03 0.  0.
<mgrwt>
<rscale>  0 0.13689484E+04</rscale>
<asrwt>0</asrwt>
<pdfrwt beam="1">  1        1 0.52878248E+00 0.14091477E+04</pdfrwt>
<pdfrwt beam="2">  1       -1 0.10065783E+00 0.14091477E+04</pdfrwt>
<totfact> 0.25592423E-01</totfact>
</mgrwt>
</event>
<event>
 4    5  0.7176259E-008  0.7384375E+03  0.7818608E-02  0.9864522E-01
         -1   -1    0    0    0  501 -0.00000000000E+00  0.00000000000E+00  0.10018075120E+04  0.10018075120E+04  0.50400000000E-02 0.  1.
          1   -1    0    0  501    0  0.00000000000E+00 -0.00000000000E+00 -0.49403334834E+03  0.49403334837E+03  0.50400000000E-02 0. -1.
    8880023    1    1    2    0    0  0.33197334233E+03  0.35685672421E+02 -0.13963369867E+03  0.75152348154E+03  0.65864270000E+03 0. -1.
    8880022    1    1    2    0    0 -0.33197334233E+03 -0.35685672421E+02  0.64740786235E+03  0.74431737886E+03  0.15294330000E+03 0.  0.
<mgrwt>
<rscale>  0 0.62011939E+03</rscale>
<asrwt>0</asrwt>
<pdfrwt beam="1">  1        1 0.76005130E-01 0.73843752E+03</pdfrwt>
<pdfrwt beam="2">  1       -1 0.15412423E+00 0.73843752E+03</pdfrwt>
<totfact> 0.15031535E+01</totfact>
</mgrwt>
</event>
<event>
 4    5  0.7176259E-008  0.6765822E+03  0.7818608E-02  0.1011327E+00
         -1   -1    0    0    0  501 -0.00000000000E+00  0.00000000000E+00  0.25711136116E+03  0.25711136121E+03  0.50400000000E-02 0.  1.
          1   -1    0    0  501    0  0.00000000000E+00 -0.00000000000E+00 -0.18174073154E+04  0.18174073154E+04  0.50400000000E-02 0. -1.
    8880023    1    1    2    0    0  0.11347780339E+03  0.10524309707E+03 -0.16905567442E+04  0.18209188980E+04  0.65864270000E+03 0. -1.
    8880022    1    1    2    0    0 -0.11347780339E+03 -0.10524309707E+03  0.13026078992E+03  0.25359977869E+03  0.15294330000E+03 0.  0.
<mgrwt>
<rscale>  0 0.50950644E+03</rscale>
<asrwt>0</asrwt>
<pdfrwt beam="1">  1        1 0.27960112E+00 0.67658224E+03</pdfrwt>
<pdfrwt beam="2">  1       -1 0.39555595E-01 0.67658224E+03</pdfrwt>
<totfact> 0.25811456E+01</totfact>
</mgrwt>
</event>
<event>
 4    5  0.7176259E-008  0.1382137E+04  0.7818608E-02  0.8997689E-01
          1   -1    0    0  501    0  0.00000000000E+00  0.00000000000E+00  0.30327710237E+04  0.30327710237E+04  0.50400000000E-02 0. -1.
         -1   -1    0    0    0  501 -0.00000000000E+00 -0.00000000000E+00 -0.56264008120E+03  0.56264008123E+03  0.50400000000E-02 0.  1.
    8880023    1    1    2    0    0 -0.85823113560E+03  0.86019219076E+03  0.11906574685E+04  0.18242715534E+04  0.65864270000E+03 0.  0.
    8880022    1    1    2    0    0  0.85823113560E+03 -0.86019219076E+03  0.12794734740E+04  0.17711395515E+04  0.15294330000E+03 0.  0.
<mgrwt>
<rscale>  0 0.13409741E+04</rscale>
<asrwt>0</asrwt>
<pdfrwt beam="1">  1        1 0.46658017E+00 0.13821366E+04</pdfrwt>
<pdfrwt beam="2">  1       -1 0.86560011E-01 0.13821366E+04</pdfrwt>
<totfact> 0.72549342E-01</totfact>
</mgrwt>
</event>
<event>
 4    5  0.7176259E-008  0.8052210E+03  0.7818608E-02  0.9699619E-01
         -1   -1    0    0    0  501 -0.00000000000E+00  0.00000000000E+00  0.47550295897E+03  0.47550295899E+03  0.50400000000E-02 0.  1.
          1   -1    0    0  501    0  0.00000000000E+00 -0.00000000000E+00 -0.19000523104E+04  0.19000523104E+04  0.50400000000E-02 0. -1.
    8880023    1    1    2    0    0 -0.39704408886E+03 -0.23859296905E+03 -0.16516424425E+04  0.18374720617E+04  0.65864270000E+03 0. -1.
    8880022    1    1    2    0    0  0.39704408886E+03  0.23859296905E+03  0.22709309107E+03  0.53808320769E+03  0.15294330000E+03 0.  0.
<mgrwt>
<rscale>  0 0.71039488E+03</rscale>
<asrwt>0</asrwt>
<pdfrwt beam="1">  1        1 0.29231574E+00 0.80522098E+03</pdfrwt>
<pdfrwt beam="2">  1       -1 0.73154302E-01 0.80522098E+03</pdfrwt>
<totfact> 0.68065093E+00</totfact>
</mgrwt>
</event>
<event>
 4    5  0.7176259E-008  0.6913245E+03  0.7818608E-02  0.1003529E+00
         -1   -1    0    0    0  501 -0.00000000000E+00  0.00000000000E+00  0.58065231253E+03  0.58065231255E+03  0.50400000000E-02 0.  1.
          1   -1    0    0  501    0  0.00000000000E+00 -0.00000000000E+00 -0.25465954564E+04  0.25465954565E+04  0.50400000000E-02 0. -1.
    8880023    1    1    2    0    0  0.17867870895E+03 -0.11042295168E+03 -0.24674293422E+04  0.25624474774E+04  0.65864270000E+03 0. -1.
    8880022    1    1    2    0    0 -0.17867870895E+03  0.11042295168E+03  0.50148619830E+03  0.56480029160E+03  0.15294330000E+03 0.  0.
<mgrwt>
<rscale>  0 0.54129402E+03</rscale>
<asrwt>0</asrwt>
<pdfrwt beam="1">  1        1 0.39178391E+00 0.69132446E+03</pdfrwt>
<pdfrwt beam="2">  1       -1 0.89331127E-01 0.69132446E+03</pdfrwt>
<totfact> 0.16671365E+00</totfact>
</mgrwt>
</event>
<event>
 4    5  0.7176259E-008  0.1259100E+04  0.7818608E-02  0.9101710E-01
         -1   -1    0    0    0  501 -0.00000000000E+00  0.00000000000E+00  0.70894585670E+03  0.70894585672E+03  0.50400000000E-02 0.  1.
          1   -1    0    0  501    0  0.00000000000E+00 -0.00000000000E+00 -0.24407190718E+04  0.24407190718E+04  0.50400000000E-02 0. -1.
    8880023    1    1    2    0    0  0.28260471061E+03 -0.10352084618E+04 -0.16318531934E+04  0.20611348896E+04  0.65864270000E+03 0.  0.
    8880022    1    1    2    0    0 -0.28260471061E+03  0.10352084618E+04 -0.99920021652E+02  0.10885300389E+04  0.15294330000E+03 0.  0.
<mgrwt>
<rscale>  0 0.12128186E+04</rscale>
<asrwt>0</asrwt>
<pdfrwt beam="1">  1        1 0.37549524E+00 0.12590998E+04</pdfrwt>
<pdfrwt beam="2">  1       -1 0.10906859E+00 0.12590998E+04</pdfrwt>
<totfact> 0.11380345E+00</totfact>
</mgrwt>
</event>
<event>
 4    5  0.7176259E-008  0.7119907E+03  0.7818608E-02  0.9950682E-01
          1   -1    0    0  501    0  0.00000000000E+00  0.00000000000E+00  0.95463329358E+03  0.95463329359E+03  0.50400000000E-02 0. -1.
         -1   -1    0    0    0  501 -0.00000000000E+00 -0.00000000000E+00 -0.28808541480E+03  0.28808541485E+03  0.50400000000E-02 0.  1.
    8880023    1    1    2    0    0 -0.26678632377E+03  0.44109707682E+02  0.58508734240E+03  0.92155195913E+03  0.65864270000E+03 0.  0.
    8880022    1    1    2    0    0  0.26678632377E+03 -0.44109707682E+02  0.81460536372E+02  0.32116674931E+03  0.15294330000E+03 0.  0.
<mgrwt>
<rscale>  0 0.57866681E+03</rscale>
<asrwt>0</asrwt>
<pdfrwt beam="1">  1        1 0.14686666E+00 0.71199074E+03</pdfrwt>
<pdfrwt beam="2">  1       -1 0.44320833E-01 0.71199074E+03</pdfrwt>
<totfact> 0.84755802E+01</totfact>
</mgrwt>
</event>
<event>
 4    5  0.7176259E-008  0.9416329E+03  0.7818608E-02  0.9462256E-01
         -1   -1    0    0    0  501 -0.00000000000E+00  0.00000000000E+00  0.14979924954E+04  0.14979924954E+04  0.50400000000E-02 0.  1.
          1   -1    0    0  501    0  0.00000000000E+00 -0.00000000000E+00 -0.69688037322E+03  0.69688037323E+03  0.50400000000E-02 0. -1.
    8880023    1    1    2    0    0  0.66492845316E+03 -0.10359721787E+03 -0.21566636475E+03  0.96601470927E+03  0.65864270000E+03 0.  0.
    8880022    1    1    2    0    0 -0.66492845316E+03  0.10359721787E+03  0.10167784869E+04  0.12288581594E+04  0.15294330000E+03 0.  0.
<mgrwt>
<rscale>  0 0.87124645E+03</rscale>
<asrwt>0</asrwt>
<pdfrwt beam="1">  1        1 0.10721237E+00 0.94163286E+03</pdfrwt>
<pdfrwt beam="2">  1       -1 0.23046038E+00 0.94163286E+03</pdfrwt>
<totfact> 0.26062039E+00</totfact>
</mgrwt>
</event>
<event>
 4    5  0.7176259E-008  0.8134714E+03  0.7818608E-02  0.9682391E-01
          1   -1    0    0  501    0  0.00000000000E+00  0.00000000000E+00  0.38094338221E+03  0.38094338225E+03  0.50400000000E-02 0. -1.
         -1   -1    0    0    0  501 -0.00000000000E+00 -0.00000000000E+00 -0.19393131233E+04  0.19393131234E+04  0.50400000000E-02 0.  1.
    8880023    1    1    2    0    0  0.25271609523E+03 -0.40504330775E+03 -0.15245139118E+03  0.82763345684E+03  0.65864270000E+03 0. -1.
    8880022    1    1    2    0    0 -0.25271609523E+03  0.40504330775E+03 -0.14059183500E+04  0.14926230488E+04  0.15294330000E+03 0.  0.
<mgrwt>
<rscale>  0 0.72074972E+03</rscale>
<asrwt>0</asrwt>
<pdfrwt beam="1">  1        1 0.58606675E-01 0.81347140E+03</pdfrwt>
<pdfrwt beam="2">  1       -1 0.29835586E+00 0.81347140E+03</pdfrwt>
<totfact> 0.22537881E+00</totfact>
</mgrwt>
</event>
<event>
 4    5  0.7176259E-008  0.7878374E+03  0.7818608E-02  0.9737739E-01
         -1   -1    0    0    0  501 -0.00000000000E+00  0.00000000000E+00  0.20147982916E+04  0.20147982916E+04  0.50400000000E-02 0.  1.
          1   -1    0    0  501    0  0.00000000000E+00 -0.00000000000E+00 -0.83768581605E+03  0.83768581607E+03  0.50400000000E-02 0. -1.
    8880023    1    1    2    0    0  0.38750672618E+03  0.19161452057E+03 -0.61700671287E+03  0.10006922990E+04  0.65864270000E+03 0. -1.
    8880022    1    1    2    0    0 -0.38750672618E+03 -0.19161452057E+03  0.17941191884E+04  0.18517918086E+04  0.15294330000E+03 0.  0.
<mgrwt>
<rscale>  0 0.68813622E+03</rscale>
<asrwt>0</asrwt>
<pdfrwt beam="1">  1        1 0.12887474E+00 0.78783742E+03</pdfrwt>
<pdfrwt beam="2">  1       -1 0.30996897E+00 0.78783742E+03</pdfrwt>
<totfact> 0.61480605E-01</totfact>
</mgrwt>
</event>
<event>
 4    5  0.7176259E-008  0.1025460E+04  0.7818608E-02  0.9348981E-01
          1   -1    0    0  501    0  0.00000000000E+00  0.00000000000E+00  0.16781164583E+04  0.16781164583E+04  0.50400000000E-02 0. -1.
         -1   -1    0    0    0  501 -0.00000000000E+00 -0.00000000000E+00 -0.10029071524E+04  0.10029071524E+04  0.50400000000E-02 0.  1.
    8880023    1    1    2    0    0  0.78288775842E+03  0.69605707290E+02  0.13068565132E+04  0.16611569310E+04  0.65864270000E+03 0. -1.
    8880022    1    1    2    0    0 -0.78288775842E+03 -0.69605707290E+02 -0.63164720739E+03  0.10198666797E+04  0.15294330000E+03 0.  0.
<mgrwt>
<rscale>  0 0.96396001E+03</rscale>
<asrwt>0</asrwt>
<pdfrwt beam="1">  1        1 0.25817176E+00 0.10254601E+04</pdfrwt>
<pdfrwt beam="2">  1       -1 0.15429341E+00 0.10254601E+04</pdfrwt>
<totfact> 0.15998187E+00</totfact>
</mgrwt>
</event>
<event>
 4    5  0.1027331E-007  0.7745213E+03  0.7818608E-02  0.9768867E-01
          1   -1    0    0  501    0  0.00000000000E+00  0.00000000000E+00  0.15105067314E+04  0.15105067314E+04  0.50400000000E-02 0. -1.
         -1   -1    0    0    0  501 -0.00000000000E+00 -0.00000000000E+00 -0.13788720068E+04  0.13788720068E+04  0.50400000000E-02 0.  1.
    8880023    1    1    2    0    0 -0.35434294700E+03  0.20128125888E+03  0.13716331825E+04  0.15752018483E+04  0.65864270000E+03 0. -1.
    8880022    1    1    2    0    0  0.35434294700E+03 -0.20128125888E+03 -0.12399984579E+04  0.13141768899E+04  0.15294330000E+03 0.  0.
<mgrwt>
<rscale>  0 0.67060390E+03</rscale>
<asrwt>0</asrwt>
<pdfrwt beam="1">  1        1 0.23238565E+00 0.77452132E+03</pdfrwt>
<pdfrwt beam="2">  1       -1 0.21213416E+00 0.77452132E+03</pdfrwt>
<totfact> 0.83948811E-01</totfact>
</mgrwt>
</event>
<event>
 4    5  0.7176259E-008  0.8365155E+03  0.7818608E-02  0.9636786E-01
          1   -1    0    0  501    0  0.00000000000E+00  0.00000000000E+00  0.17347282156E+04  0.17347282156E+04  0.50400000000E-02 0. -1.
         -1   -1    0    0    0  501 -0.00000000000E+00 -0.00000000000E+00 -0.34950446830E+03  0.34950446834E+03  0.50400000000E-02 0.  1.
    8880023    1    1    2    0    0  0.13374800663E+03 -0.49805562139E+03  0.12907240121E+04  0.15380918740E+04  0.65864270000E+03 0. -1.
    8880022    1    1    2    0    0 -0.13374800663E+03  0.49805562139E+03  0.94499735182E+02  0.54614080990E+03  0.15294330000E+03 0.  0.
<mgrwt>
<rscale>  0 0.74908563E+03</rscale>
<asrwt>0</asrwt>
<pdfrwt beam="1">  1        1 0.26688127E+00 0.83651547E+03</pdfrwt>
<pdfrwt beam="2">  1       -1 0.53769918E-01 0.83651547E+03</pdfrwt>
<totfact> 0.16178823E+01</totfact>
</mgrwt>
</event>
<event>
 4    5  0.7176259E-008  0.8216334E+03  0.7818608E-02  0.9665836E-01
          1   -1    0    0  501    0  0.00000000000E+00  0.00000000000E+00  0.10885154937E+04  0.10885154937E+04  0.50400000000E-02 0. -1.
         -1   -1    0    0    0  501 -0.00000000000E+00 -0.00000000000E+00 -0.75269589998E+03  0.75269590000E+03  0.50400000000E-02 0.  1.
    8880023    1    1    2    0    0  0.45112568941E+03  0.19431134427E+03  0.80111813522E+03  0.11475503296E+04  0.65864270000E+03 0. -1.
    8880022    1    1    2    0    0 -0.45112568941E+03 -0.19431134427E+03 -0.46529854148E+03  0.69366106412E+03  0.15294330000E+03 0.  0.
<mgrwt>
<rscale>  0 0.73087855E+03</rscale>
<asrwt>0</asrwt>
<pdfrwt beam="1">  1        1 0.16746392E+00 0.82163343E+03</pdfrwt>
<pdfrwt beam="2">  1       -1 0.11579937E+00 0.82163343E+03</pdfrwt>
<totfact> 0.89406599E+00</totfact>
</mgrwt>
</event>
<event>
 4    5  0.7176259E-008  0.8532251E+03  0.7818608E-02  0.9605730E-01
         -1   -1    0    0    0  501 -0.00000000000E+00  0.00000000000E+00  0.10079994912E+04  0.10079994912E+04  0.50400000000E-02 0.  1.
          1   -1    0    0  501    0  0.00000000000E+00 -0.00000000000E+00 -0.10840735138E+04  0.10840735139E+04  0.50400000000E-02 0. -1.
    8880023    1    1    2    0    0 -0.26299412721E+03 -0.47435953189E+03 -0.80342434842E+03  0.11719572374E+04  0.65864270000E+03 0. -1.
    8880022    1    1    2    0    0  0.26299412721E+03  0.47435953189E+03  0.72735032577E+03  0.92011576764E+03  0.15294330000E+03 0.  0.
<mgrwt>
<rscale>  0 0.76918079E+03</rscale>
<asrwt>0</asrwt>
<pdfrwt beam="1">  1        1 0.16678054E+00 0.85322511E+03</pdfrwt>
<pdfrwt beam="2">  1       -1 0.15507685E+00 0.85322511E+03</pdfrwt>
<totfact> 0.42461664E+00</totfact>
</mgrwt>
</event>
<event>
 4    5  0.7176259E-008  0.7615753E+03  0.7818608E-02  0.9801046E-01
         -1   -1    0    0    0  501 -0.00000000000E+00  0.00000000000E+00  0.19447116820E+03  0.19447116827E+03  0.50400000000E-02 0.  1.
          1   -1    0    0  501    0  0.00000000000E+00 -0.00000000000E+00 -0.20494912820E+04  0.20494912820E+04  0.50400000000E-02 0. -1.
    8880023    1    1    2    0    0  0.26760236382E+03 -0.27308556383E+03 -0.15644423161E+04  0.17399645735E+04  0.65864270000E+03 0. -1.
    8880022    1    1    2    0    0 -0.26760236382E+03  0.27308556383E+03 -0.29057779772E+03  0.50399787681E+03  0.15294330000E+03 0.  0.
<mgrwt>
<rscale>  0 0.65306433E+03</rscale>
<asrwt>0</asrwt>
<pdfrwt beam="1">  1        1 0.31530634E+00 0.76157531E+03</pdfrwt>
<pdfrwt beam="2">  1       -1 0.29918643E-01 0.76157531E+03</pdfrwt>
<totfact> 0.29316038E+01</totfact>
</mgrwt>
</event>
<event>
 4    5  0.7176259E-008  0.9086217E+03  0.7818608E-02  0.9512330E-01
          1   -1    0    0  501    0  0.00000000000E+00  0.00000000000E+00  0.13958323586E+04  0.13958323586E+04  0.50400000000E-02 0. -1.
         -1   -1    0    0    0  501 -0.00000000000E+00 -0.00000000000E+00 -0.10435533759E+04  0.10435533759E+04  0.50400000000E-02 0.  1.
    8880023    1    1    2    0    0 -0.57105719403E+03 -0.25627489345E+03 -0.73958808703E+03  0.11715732519E+04  0.65864270000E+03 0.  0.
    8880022    1    1    2    0    0  0.57105719403E+03  0.25627489345E+03  0.10918670698E+04  0.12678124826E+04  0.15294330000E+03 0.  0.
<mgrwt>
<rscale>  0 0.83380826E+03</rscale>
<asrwt>0</asrwt>
<pdfrwt beam="1">  1        1 0.21474344E+00 0.90862167E+03</pdfrwt>
<pdfrwt beam="2">  1       -1 0.16054667E+00 0.90862167E+03</pdfrwt>
<totfact> 0.22793006E+00</totfact>
</mgrwt>
</event>
<event>
 4    5  0.7176259E-008  0.1058770E+04  0.7818608E-02  0.9308412E-01
         -1   -1    0    0    0  501 -0.00000000000E+00  0.00000000000E+00  0.17646011469E+04  0.17646011469E+04  0.50400000000E-02 0.  1.
          1   -1    0    0  501    0  0.00000000000E+00 -0.00000000000E+00 -0.90010078848E+03  0.90010078850E+03  0.50400000000E-02 0. -1.
    8880023    1    1    2    0    0  0.74435831710E+03 -0.36484848671E+03 -0.41106429186E+03  0.11357674854E+04  0.65864270000E+03 0.  0.
    8880022    1    1    2    0    0 -0.74435831710E+03  0.36484848671E+03  0.12755646503E+04  0.15289344501E+04  0.15294330000E+03 0.  0.
<mgrwt>
<rscale>  0 0.10001209E+04</rscale>
<asrwt>0</asrwt>
<pdfrwt beam="1">  1        1 0.13847704E+00 0.10587700E+04</pdfrwt>
<pdfrwt beam="2">  1       -1 0.27147710E+00 0.10587700E+04</pdfrwt>
<totfact> 0.92133755E-01</totfact>
</mgrwt>
</event>
<event>
 4    5  0.7176259E-008  0.8130942E+03  0.7818608E-02  0.9683167E-01
         -1   -1    0    0    0  501 -0.00000000000E+00  0.00000000000E+00  0.10629037253E+04  0.10629037253E+04  0.50400000000E-02 0.  1.
          1   -1    0    0  501    0  0.00000000000E+00 -0.00000000000E+00 -0.11319086296E+04  0.11319086296E+04  0.50400000000E-02 0. -1.
    8880023    1    1    2    0    0 -0.20824971248E+03  0.42888703154E+03 -0.90732728520E+03  0.12183452045E+04  0.65864270000E+03 0.  0.
    8880022    1    1    2    0    0  0.20824971248E+03 -0.42888703154E+03  0.83832238090E+03  0.97646715045E+03  0.15294330000E+03 0.  1.
<mgrwt>
<rscale>  0 0.72027900E+03</rscale>
<asrwt>0</asrwt>
<pdfrwt beam="1">  1        1 0.17413979E+00 0.81309423E+03</pdfrwt>
<pdfrwt beam="2">  1       -1 0.16352365E+00 0.81309423E+03</pdfrwt>
<totfact> 0.33959448E+00</totfact>
</mgrwt>
</event>
<event>
 4    5  0.7176259E-008  0.9409309E+03  0.7818608E-02  0.9463284E-01
          1   -1    0    0  501    0  0.00000000000E+00  0.00000000000E+00  0.25916218206E+04  0.25916218206E+04  0.50400000000E-02 0. -1.
         -1   -1    0    0    0  501 -0.00000000000E+00 -0.00000000000E+00 -0.65070145703E+03  0.65070145705E+03  0.50400000000E-02 0.  1.
    8880023    1    1    2    0    0 -0.65451565970E+03  0.15215118647E+03  0.22856559790E+04  0.24717552858E+04  0.65864270000E+03 0.  0.
    8880022    1    1    2    0    0  0.65451565970E+03 -0.15215118647E+03 -0.34473561549E+03  0.77056799177E+03  0.15294330000E+03 0.  0.
<mgrwt>
<rscale>  0 0.87045689E+03</rscale>
<asrwt>0</asrwt>
<pdfrwt beam="1">  1        1 0.39871106E+00 0.94093089E+03</pdfrwt>
<pdfrwt beam="2">  1       -1 0.10010791E+00 0.94093089E+03</pdfrwt>
<totfact> 0.11455298E+00</totfact>
</mgrwt>
</event>
<event>
 4    5  0.7176259E-008  0.1312205E+04  0.7818608E-02  0.9055091E-01
          1   -1    0    0  501    0  0.00000000000E+00  0.00000000000E+00  0.23474866960E+04  0.23474866960E+04  0.50400000000E-02 0. -1.
         -1   -1    0    0    0  501 -0.00000000000E+00 -0.00000000000E+00 -0.15315827086E+04  0.15315827086E+04  0.50400000000E-02 0.  1.
    8880023    1    1    2    0    0  0.80443681730E+03  0.80059526218E+03  0.18953927281E+04  0.23052971971E+04  0.65864270000E+03 0.  0.
    8880022    1    1    2    0    0 -0.80443681730E+03 -0.80059526218E+03 -0.10794887407E+04  0.15737722076E+04  0.15294330000E+03 0.  0.
<mgrwt>
<rscale>  0 0.12682963E+04</rscale>
<asrwt>0</asrwt>
<pdfrwt beam="1">  1        1 0.36115180E+00 0.13122049E+04</pdfrwt>
<pdfrwt beam="2">  1       -1 0.23562811E+00 0.13122049E+04</pdfrwt>
<totfact> 0.14480013E-01</totfact>
</mgrwt>
</event>
<event>
 4    5  0.7176259E-008  0.1007315E+04  0.7818608E-02  0.9372050E-01
          1   -1    0    0  501    0  0.00000000000E+00  0.00000000000E+00  0.30024925175E+04  0.30024925175E+04  0.50400000000E-02 0. -1.
         -1   -1    0    0    0  501 -0.00000000000E+00 -0.00000000000E+00 -0.40415440966E+03  0.40415440969E+03  0.50400000000E-02 0.  1.
    8880023    1    1    2    0    0  0.17893344856E+03  0.74084792267E+03  0.24023309978E+04  0.26049716415E+04  0.65864270000E+03 0.  0.
    8880022    1    1    2    0    0 -0.17893344856E+03 -0.74084792267E+03  0.19600711004E+03  0.80167528573E+03  0.15294330000E+03 0.  0.
<mgrwt>
<rscale>  0 0.94412018E+03</rscale>
<asrwt>0</asrwt>
<pdfrwt beam="1">  1        1 0.46192192E+00 0.10073148E+04</pdfrwt>
<pdfrwt beam="2">  1       -1 0.62177602E-01 0.10073148E+04</pdfrwt>
<totfact> 0.16039198E+00</totfact>
</mgrwt>
</event>
<event>
 4    5  0.7176259E-008  0.8693520E+03  0.7818608E-02  0.9577140E-01
         -1   -1    0    0    0  501 -0.00000000000E+00  0.00000000000E+00  0.70755464070E+03  0.70755464072E+03  0.50400000000E-02 0.  1.
          1   -1    0    0  501    0  0.00000000000E+00 -0.00000000000E+00 -0.18162994128E+04  0.18162994128E+04  0.50400000000E-02 0. -1.
    8880023    1    1    2    0    0 -0.10803512636E+03 -0.55703785629E+03 -0.15579999572E+04  0.17841347580E+04  0.65864270000E+03 0. -1.
    8880022    1    1    2    0    0  0.10803512636E+03  0.55703785629E+03  0.44925518507E+03  0.73971929554E+03  0.15294330000E+03 0.  0.
<mgrwt>
<rscale>  0 0.78827887E+03</rscale>
<asrwt>0</asrwt>
<pdfrwt beam="1">  1        1 0.27943068E+00 0.86935204E+03</pdfrwt>
<pdfrwt beam="2">  1       -1 0.10885456E+00 0.86935204E+03</pdfrwt>
<totfact> 0.31937455E+00</totfact>
</mgrwt>
</event>
<event>
 4    5  0.7176259E-008  0.1004185E+04  0.7818608E-02  0.9376102E-01
         -1   -1    0    0    0  501 -0.00000000000E+00  0.00000000000E+00  0.87165316727E+03  0.87165316728E+03  0.50400000000E-02 0.  1.
          1   -1    0    0  501    0  0.00000000000E+00 -0.00000000000E+00 -0.14808619371E+04  0.14808619371E+04  0.50400000000E-02 0. -1.
    8880023    1    1    2    0    0 -0.70649663696E+03 -0.27466468375E+03 -0.10577970375E+04  0.14585345266E+04  0.65864270000E+03 0.  0.
    8880022    1    1    2    0    0  0.70649663696E+03  0.27466468375E+03  0.44858826767E+03  0.89398057778E+03  0.15294330000E+03 0.  0.
<mgrwt>
<rscale>  0 0.94068745E+03</rscale>
<asrwt>0</asrwt>
<pdfrwt beam="1">  1        1 0.22782491E+00 0.10041854E+04</pdfrwt>
<pdfrwt beam="2">  1       -1 0.13410049E+00 0.10041854E+04</pdfrwt>
<totfact> 0.31756318E+00</totfact>
</mgrwt>
</event>
<event>
 4    5  0.7176259E-008  0.8594500E+03  0.7818608E-02  0.9594543E-01
          1   -1    0    0  501    0  0.00000000000E+00  0.00000000000E+00  0.13979382299E+04  0.13979382299E+04  0.50400000000E-02 0. -1.
         -1   -1    0    0    0  501 -0.00000000000E+00 -0.00000000000E+00 -0.20352225791E+04  0.20352225791E+04  0.50400000000E-02 0.  1.
    8880023    1    1    2    0    0  0.39871176850E+02 -0.55068530863E+03  0.12184138009E+04  0.14910353504E+04  0.65864270000E+03 0. -1.
    8880022    1    1    2    0    0 -0.39871176850E+02  0.55068530863E+03 -0.18556981500E+04  0.19421254586E+04  0.15294330000E+03 0.  0.
<mgrwt>
<rscale>  0 0.77658441E+03</rscale>
<asrwt>0</asrwt>
<pdfrwt beam="1">  1        1 0.21506742E+00 0.85944996E+03</pdfrwt>
<pdfrwt beam="2">  1       -1 0.31311117E+00 0.85944996E+03</pdfrwt>
<totfact> 0.21893507E-01</totfact>
</mgrwt>
</event>
<event>
 4    5  0.7176259E-008  0.7642979E+03  0.7818608E-02  0.9794105E-01
         -1   -1    0    0    0  501 -0.00000000000E+00  0.00000000000E+00  0.38102972615E+03  0.38102972618E+03  0.50400000000E-02 0.  1.
          1   -1    0    0  501    0  0.00000000000E+00 -0.00000000000E+00 -0.10272205144E+04  0.10272205144E+04  0.50400000000E-02 0. -1.
    8880023    1    1    2    0    0 -0.14018479898E+03 -0.36150977135E+03 -0.63107366080E+03  0.99116359107E+03  0.65864270000E+03 0. -1.
    8880022    1    1    2    0    0  0.14018479898E+03  0.36150977135E+03 -0.15117127445E+02  0.41708664951E+03  0.15294330000E+03 0.  0.
<mgrwt>
<rscale>  0 0.65679860E+03</rscale>
<asrwt>0</asrwt>
<pdfrwt beam="1">  1        1 0.15803392E+00 0.76429791E+03</pdfrwt>
<pdfrwt beam="2">  1       -1 0.58619958E-01 0.76429791E+03</pdfrwt>
<totfact> 0.43503564E+01</totfact>
</mgrwt>
</event>
<event>
 4    5  0.8104555E-008  0.7014069E+03  0.7818608E-02  0.9991414E-01
          1   -1    0    0  501    0  0.00000000000E+00  0.00000000000E+00  0.21343399141E+04  0.21343399141E+04  0.50400000000E-02 0. -1.
         -1   -1    0    0    0  501 -0.00000000000E+00 -0.00000000000E+00 -0.10770140928E+04  0.10770140928E+04  0.50400000000E-02 0.  1.
    8880023    1    1    2    0    0 -0.22839148741E+03  0.77451258687E+02  0.20561575974E+04  0.21724998597E+04  0.65864270000E+03 0. -1.
    8880022    1    1    2    0    0  0.22839148741E+03 -0.77451258687E+02 -0.99883177611E+03  0.10388541471E+04  0.15294330000E+03 0.  0.
<mgrwt>
<rscale>  0 0.56028309E+03</rscale>
<asrwt>0</asrwt>
<pdfrwt beam="1">  1        1 0.32835998E+00 0.70140685E+03</pdfrwt>
<pdfrwt beam="2">  1       -1 0.16569448E+00 0.70140685E+03</pdfrwt>
<totfact> 0.68786004E-01</totfact>
</mgrwt>
</event>
<event>
 4    5  0.7176259E-008  0.9243422E+03  0.7818608E-02  0.9488033E-01
         -1   -1    0    0    0  501 -0.00000000000E+00  0.00000000000E+00  0.17749108012E+04  0.17749108012E+04  0.50400000000E-02 0.  1.
          1   -1    0    0  501    0  0.00000000000E+00 -0.00000000000E+00 -0.89728025018E+03  0.89728025019E+03  0.50400000000E-02 0. -1.
    8880023    1    1    2    0    0  0.46481843262E+03 -0.45226323674E+03 -0.56483782547E+03  0.10832590576E+04  0.65864270000E+03 0. -1.
    8880022    1    1    2    0    0 -0.46481843262E+03  0.45226323674E+03  0.14424683765E+04  0.15889319938E+04  0.15294330000E+03 0.  0.
<mgrwt>
<rscale>  0 0.85171874E+03</rscale>
<asrwt>0</asrwt>
<pdfrwt beam="1">  1        1 0.13804312E+00 0.92434215E+03</pdfrwt>
<pdfrwt beam="2">  1       -1 0.27306320E+00 0.92434215E+03</pdfrwt>
<totfact> 0.92290927E-01</totfact>
</mgrwt>
</event>
<event>
 4    5  0.7176259E-008  0.7700355E+03  0.7818608E-02  0.9779787E-01
          1   -1    0    0  501    0  0.00000000000E+00  0.00000000000E+00  0.90747056659E+03  0.90747056660E+03  0.50400000000E-02 0. -1.
         -1   -1    0    0    0  501 -0.00000000000E+00 -0.00000000000E+00 -0.12750107807E+04  0.12750107807E+04  0.50400000000E-02 0.  1.
    8880023    1    1    2    0    0  0.94429433319E+02 -0.38759194659E+03  0.69497961109E+03  0.10372807243E+04  0.65864270000E+03 0. -1.
    8880022    1    1    2    0    0 -0.94429433319E+02  0.38759194659E+03 -0.10625198252E+04  0.11452006230E+04  0.15294330000E+03 0.  0.
<mgrwt>
<rscale>  0 0.66458670E+03</rscale>
<asrwt>0</asrwt>
<pdfrwt beam="1">  1        1 0.13961086E+00 0.77003548E+03</pdfrwt>
<pdfrwt beam="2">  1       -1 0.19615550E+00 0.77003548E+03</pdfrwt>
<totfact> 0.29772426E+00</totfact>
</mgrwt>
</event>
<event>
 4    5  0.7176259E-008  0.7835723E+03  0.7818608E-02  0.9747511E-01
         -1   -1    0    0    0  501 -0.00000000000E+00  0.00000000000E+00  0.70971127783E+03  0.70971127784E+03  0.50400000000E-02 0.  1.
          1   -1    0    0  501    0  0.00000000000E+00 -0.00000000000E+00 -0.55990928992E+03  0.55990928994E+03  0.50400000000E-02 0. -1.
    8880023    1    1    2    0    0  0.42260611842E+03 -0.39742192394E+02 -0.29467996378E+02  0.78412622852E+03  0.65864270000E+03 0.  0.
    8880022    1    1    2    0    0 -0.42260611842E+03  0.39742192394E+02  0.17926998428E+03  0.48549433927E+03  0.15294330000E+03 0.  0.
<mgrwt>
<rscale>  0 0.68257086E+03</rscale>
<asrwt>0</asrwt>
<pdfrwt beam="1">  1        1 0.86139891E-01 0.78357232E+03</pdfrwt>
<pdfrwt beam="2">  1       -1 0.10918635E+00 0.78357232E+03</pdfrwt>
<totfact> 0.29987910E+01</totfact>
</mgrwt>
</event>
<event>
 4    5  0.7176259E-008  0.7336288E+03  0.7818608E-02  0.9878910E-01
         -1   -1    0    0    0  501 -0.00000000000E+00  0.00000000000E+00  0.34605219485E+04  0.34605219485E+04  0.50400000000E-02 0.  1.
          1   -1    0    0  501    0  0.00000000000E+00 -0.00000000000E+00 -0.17951380964E+03  0.17951380971E+03  0.50400000000E-02 0. -1.
    8880023    1    1    2    0    0  0.23908371541E+03  0.21734762133E+03  0.63585564538E+03  0.97083655653E+03  0.65864270000E+03 0.  0.
    8880022    1    1    2    0    0 -0.23908371541E+03 -0.21734762133E+03  0.26451524935E+04  0.26691992017E+04  0.15294330000E+03 0.  1.
<mgrwt>
<rscale>  0 0.61294361E+03</rscale>
<asrwt>0</asrwt>
<pdfrwt beam="1">  1        1 0.27617513E-01 0.73362880E+03</pdfrwt>
<pdfrwt beam="2">  1       -1 0.53238793E+00 0.73362880E+03</pdfrwt>
<totfact> 0.16926279E-01</totfact>
</mgrwt>
</event>
<event>
 4    5  0.7176259E-008  0.7709122E+03  0.7818608E-02  0.9777634E-01
          1   -1    0    0  501    0  0.00000000000E+00  0.00000000000E+00  0.21385276425E+03  0.21385276431E+03  0.50400000000E-02 0. -1.
         -1   -1    0    0    0  501 -0.00000000000E+00 -0.00000000000E+00 -0.28847163275E+04  0.28847163275E+04  0.50400000000E-02 0.  1.
    8880023    1    1    2    0    0  0.28748892021E+02 -0.39958597648E+03 -0.58144573536E+03  0.96560074608E+03  0.65864270000E+03 0. -1.
    8880022    1    1    2    0    0 -0.28748892021E+02  0.39958597648E+03 -0.20894178279E+04  0.21329683457E+04  0.15294330000E+03 0.  0.
<mgrwt>
<rscale>  0 0.66576753E+03</rscale>
<asrwt>0</asrwt>
<pdfrwt beam="1">  1        1 0.32900428E-01 0.77091222E+03</pdfrwt>
<pdfrwt beam="2">  1       -1 0.44380248E+00 0.77091222E+03</pdfrwt>
<totfact> 0.51820926E-01</totfact>
</mgrwt>
</event>
<event>
 4    5  0.7176259E-008  0.6682139E+03  0.7818608E-02  0.1016977E+00
         -1   -1    0    0    0  501 -0.00000000000E+00  0.00000000000E+00  0.22475622343E+03  0.22475622348E+03  0.50400000000E-02 0.  1.
          1   -1    0    0  501    0  0.00000000000E+00 -0.00000000000E+00 -0.10295729418E+04  0.10295729418E+04  0.50400000000E-02 0. -1.
    8880023    1    1    2    0    0 -0.10661914062E+03  0.36496624460E+02 -0.82682125152E+03  0.10630819503E+04  0.65864270000E+03 0. -1.
    8880022    1    1    2    0    0  0.10661914062E+03 -0.36496624460E+02  0.22004533194E+02  0.19124721499E+03  0.15294330000E+03 0.  0.
<mgrwt>
<rscale>  0 0.48793498E+03</rscale>
<asrwt>0</asrwt>
<pdfrwt beam="1">  1        1 0.15839583E+00 0.66821393E+03</pdfrwt>
<pdfrwt beam="2">  1       -1 0.34577881E-01 0.66821393E+03</pdfrwt>
<totfact> 0.11664201E+02</totfact>
</mgrwt>
</event>
<event>
 4    5  0.7176259E-008  0.1508130E+04  0.7818608E-02  0.8903916E-01
          1   -1    0    0  501    0  0.00000000000E+00  0.00000000000E+00  0.12748865927E+04  0.12748865927E+04  0.50400000000E-02 0. -1.
         -1   -1    0    0    0  501 -0.00000000000E+00 -0.00000000000E+00 -0.17142982380E+04  0.17142982380E+04  0.50400000000E-02 0.  1.
    8880023    1    1    2    0    0 -0.13259233577E+04  0.28735520371E+03 -0.58184553646E+03  0.16164777134E+04  0.65864270000E+03 0.  0.
    8880022    1    1    2    0    0  0.13259233577E+04 -0.28735520371E+03  0.14243389112E+03  0.13727071173E+04  0.15294330000E+03 0.  0.
<mgrwt>
<rscale>  0 0.14710787E+04</rscale>
<asrwt>0</asrwt>
<pdfrwt beam="1">  1        1 0.19613640E+00 0.15081300E+04</pdfrwt>
<pdfrwt beam="2">  1       -1 0.26373819E+00 0.15081300E+04</pdfrwt>
<totfact> 0.50657416E-01</totfact>
</mgrwt>
</event>
<event>
 4    5  0.7176259E-008  0.7978902E+03  0.7818608E-02  0.9715377E-01
         -1   -1    0    0    0  501 -0.00000000000E+00  0.00000000000E+00  0.99344474753E+03  0.99344474754E+03  0.50400000000E-02 0.  1.
          1   -1    0    0  501    0  0.00000000000E+00 -0.00000000000E+00 -0.42946618552E+03  0.42946618555E+03  0.50400000000E-02 0. -1.
    8880023    1    1    2    0    0 -0.22407895274E+03 -0.39064965503E+03  0.50348221973E+03  0.94346334422E+03  0.65864270000E+03 0.  0.
    8880022    1    1    2    0    0  0.22407895274E+03  0.39064965503E+03  0.60496342282E+02  0.47944758887E+03  0.15294330000E+03 0.  0.
<mgrwt>
<rscale>  0 0.70108610E+03</rscale>
<asrwt>0</asrwt>
<pdfrwt beam="1">  1        1 0.66071721E-01 0.79789018E+03</pdfrwt>
<pdfrwt beam="2">  1       -1 0.15283765E+00 0.79789018E+03</pdfrwt>
<totfact> 0.18472148E+01</totfact>
</mgrwt>
</event>
<event>
 4    5  0.7176259E-008  0.9129922E+03  0.7818608E-02  0.9505489E-01
         -1   -1    0    0    0  501 -0.00000000000E+00  0.00000000000E+00  0.21702113866E+04  0.21702113866E+04  0.50400000000E-02 0.  1.
          1   -1    0    0  501    0  0.00000000000E+00 -0.00000000000E+00 -0.45299626905E+03  0.45299626908E+03  0.50400000000E-02 0. -1.
    8880023    1    1    2    0    0  0.63133933608E+03  0.33987919748E+02  0.14852353559E+03  0.92499404477E+03  0.65864270000E+03 0.  0.
    8880022    1    1    2    0    0 -0.63133933608E+03 -0.33987919748E+02  0.15686915819E+04  0.16982136109E+04  0.15294330000E+03 0.  0.
<mgrwt>
<rscale>  0 0.83880366E+03</rscale>
<asrwt>0</asrwt>
<pdfrwt beam="1">  1        1 0.69691735E-01 0.91299219E+03</pdfrwt>
<pdfrwt beam="2">  1       -1 0.33387867E+00 0.91299219E+03</pdfrwt>
<totfact> 0.10393506E+00</totfact>
</mgrwt>
</event>
<event>
 4    5  0.7176259E-008  0.9984463E+03  0.7818608E-02  0.9383593E-01
          1   -1    0    0  501    0  0.00000000000E+00  0.00000000000E+00  0.16162411087E+04  0.16162411087E+04  0.50400000000E-02 0. -1.
         -1   -1    0    0    0  501 -0.00000000000E+00 -0.00000000000E+00 -0.59223963674E+03  0.59223963676E+03  0.50400000000E-02 0.  1.
    8880023    1    1    2    0    0  0.19074535156E+03 -0.72574169431E+03  0.10410731511E+04  0.14424729836E+04  0.65864270000E+03 0.  0.
    8880022    1    1    2    0    0 -0.19074535156E+03  0.72574169431E+03 -0.17071679211E+02  0.76600776188E+03  0.15294330000E+03 0.  0.
<mgrwt>
<rscale>  0 0.93438284E+03</rscale>
<asrwt>0</asrwt>
<pdfrwt beam="1">  1        1 0.24865248E+00 0.99844629E+03</pdfrwt>
<pdfrwt beam="2">  1       -1 0.91113789E-01 0.99844629E+03</pdfrwt>
<totfact> 0.64377508E+00</totfact>
</mgrwt>
</event>
<event>
 4    5  0.7176259E-008  0.8019450E+03  0.7818608E-02  0.9706606E-01
          1   -1    0    0  501    0  0.00000000000E+00  0.00000000000E+00  0.15713485582E+04  0.15713485582E+04  0.50400000000E-02 0. -1.
         -1   -1    0    0    0  501 -0.00000000000E+00 -0.00000000000E+00 -0.48519991055E+03  0.48519991058E+03  0.50400000000E-02 0.  1.
    8880023    1    1    2    0    0 -0.18368078185E+03  0.41900705982E+03  0.13011374303E+04  0.15284221814E+04  0.65864270000E+03 0.  0.
    8880022    1    1    2    0    0  0.18368078185E+03 -0.41900705982E+03 -0.21498878261E+03  0.52812628742E+03  0.15294330000E+03 0.  0.
<mgrwt>
<rscale>  0 0.70624815E+03</rscale>
<asrwt>0</asrwt>
<pdfrwt beam="1">  1        1 0.24174593E+00 0.80194498E+03</pdfrwt>
<pdfrwt beam="2">  1       -1 0.74646140E-01 0.80194498E+03</pdfrwt>
<totfact> 0.10873962E+01</totfact>
</mgrwt>
</event>
<event>
 4    5  0.7176259E-008  0.7125248E+03  0.7818608E-02  0.9948742E-01
          1   -1    0    0  501    0  0.00000000000E+00  0.00000000000E+00  0.29970610601E+04  0.29970610601E+04  0.50400000000E-02 0. -1.
         -1   -1    0    0    0  501 -0.00000000000E+00 -0.00000000000E+00 -0.33633208823E+03  0.33633208827E+03  0.50400000000E-02 0.  1.
    8880023    1    1    2    0    0  0.27152057945E+03 -0.12569923735E+02  0.28704437561E+04  0.29575562533E+04  0.65864270000E+03 0. -1.
    8880022    1    1    2    0    0 -0.27152057945E+03  0.12569923735E+02 -0.20971478418E+03  0.37583689516E+03  0.15294330000E+03 0.  0.
<mgrwt>
<rscale>  0 0.57956091E+03</rscale>
<asrwt>0</asrwt>
<pdfrwt beam="1">  1        1 0.46108634E+00 0.71252483E+03</pdfrwt>
<pdfrwt beam="2">  1       -1 0.51743396E-01 0.71252483E+03</pdfrwt>
<totfact> 0.24425528E+00</totfact>
</mgrwt>
</event>
<event>
 4    5  0.7176259E-008  0.8115838E+03  0.7818608E-02  0.9686287E-01
         -1   -1    0    0    0  501 -0.00000000000E+00  0.00000000000E+00  0.18209077886E+04  0.18209077886E+04  0.50400000000E-02 0.  1.
          1   -1    0    0  501    0  0.00000000000E+00 -0.00000000000E+00 -0.76802370494E+03  0.76802370496E+03  0.50400000000E-02 0. -1.
    8880023    1    1    2    0    0 -0.30438286446E+03 -0.36360564281E+03 -0.50326941466E+03  0.95495984295E+03  0.65864270000E+03 0. -1.
    8880022    1    1    2    0    0  0.30438286446E+03  0.36360564281E+03  0.15561534983E+04  0.16339716506E+04  0.15294330000E+03 0.  0.
<mgrwt>
<rscale>  0 0.71839134E+03</rscale>
<asrwt>0</asrwt>
<pdfrwt beam="1">  1        1 0.11815749E+00 0.81158376E+03</pdfrwt>
<pdfrwt beam="2">  1       -1 0.28013966E+00 0.81158376E+03</pdfrwt>
<totfact> 0.10917559E+00</totfact>
</mgrwt>
</event>
<event>
 4    5  0.7176259E-008  0.6694925E+03  0.7818608E-02  0.1016029E+00
          1   -1    0    0  501    0  0.00000000000E+00  0.00000000000E+00  0.39031123901E+03  0.39031123904E+03  0.50400000000E-02 0. -1.
         -1   -1    0    0    0  501 -0.00000000000E+00 -0.00000000000E+00 -0.13754153260E+04  0.13754153260E+04  0.50400000000E-02 0.  1.
    8880023    1    1    2    0    0  0.23200214166E+02 -0.11777863326E+03  0.87910420011E+02  0.67523959052E+03  0.65864270000E+03 0.  0.
    8880022    1    1    2    0    0 -0.23200214166E+02  0.11777863326E+03 -0.10730145070E+04  0.10904869745E+04  0.15294330000E+03 0.  1.
<mgrwt>
<rscale>  0 0.49147139E+03</rscale>
<asrwt>0</asrwt>
<pdfrwt beam="1">  1        1 0.60047884E-01 0.66949254E+03</pdfrwt>
<pdfrwt beam="2">  1       -1 0.21160236E+00 0.66949254E+03</pdfrwt>
<totfact> 0.81206742E+00</totfact>
</mgrwt>
</event>
<event>
 4    5  0.7176259E-008  0.1057103E+04  0.7818608E-02  0.9310391E-01
          1   -1    0    0  501    0  0.00000000000E+00  0.00000000000E+00  0.16936344240E+04  0.16936344240E+04  0.50400000000E-02 0. -1.
         -1   -1    0    0    0  501 -0.00000000000E+00 -0.00000000000E+00 -0.10322741849E+04  0.10322741849E+04  0.50400000000E-02 0.  1.
    8880023    1    1    2    0    0  0.75037290722E+03 -0.34727003622E+03  0.12959876216E+04  0.16724383694E+04  0.65864270000E+03 0.  0.
    8880022    1    1    2    0    0 -0.75037290722E+03  0.34727003622E+03 -0.63462738245E+03  0.10534702395E+04  0.15294330000E+03 0.  0.
<mgrwt>
<rscale>  0 0.99831818E+03</rscale>
<asrwt>0</asrwt>
<pdfrwt beam="1">  1        1 0.26055914E+00 0.10571027E+04</pdfrwt>
<pdfrwt beam="2">  1       -1 0.15881142E+00 0.10571027E+04</pdfrwt>
<totfact> 0.14354248E+00</totfact>
</mgrwt>
</event>
<event>
 4    5  0.7176259E-008  0.6963248E+03  0.7818608E-02  0.1001280E+00
          1   -1    0    0  501    0  0.00000000000E+00  0.00000000000E+00  0.47770595308E+03  0.47770595310E+03  0.50400000000E-02 0. -1.
         -1   -1    0    0    0  501 -0.00000000000E+00 -0.00000000000E+00 -0.19276722093E+04  0.19276722093E+04  0.50400000000E-02 0.  1.
    8880023    1    1    2    0    0 -0.12924066657E+03  0.18535072893E+03  0.20672867407E+03  0.72636422927E+03  0.65864270000E+03 0. -1.
    8880022    1    1    2    0    0  0.12924066657E+03 -0.18535072893E+03 -0.16566949303E+04  0.16790139332E+04  0.15294330000E+03 0.  0.
<mgrwt>
<rscale>  0 0.55092410E+03</rscale>
<asrwt>0</asrwt>
<pdfrwt beam="1">  1        1 0.73493224E-01 0.69632482E+03</pdfrwt>
<pdfrwt beam="2">  1       -1 0.29656495E+00 0.69632482E+03</pdfrwt>
<totfact> 0.17428583E+00</totfact>
</mgrwt>
</event>
<event>
 4    5  0.7176259E-008  0.7139577E+03  0.7818608E-02  0.9943588E-01
         -1   -1    0    0    0  501 -0.00000000000E+00  0.00000000000E+00  0.83179175043E+03  0.83179175045E+03  0.50400000000E-02 0.  1.
          1   -1    0    0  501    0  0.00000000000E+00 -0.00000000000E+00 -0.11806908127E+04  0.11806908127E+04  0.50400000000E-02 0. -1.
    8880023    1    1    2    0    0  0.11153994508E+03 -0.25196084710E+03 -0.10350591214E+04  0.12574112370E+04  0.65864270000E+03 0. -1.
    8880022    1    1    2    0    0 -0.11153994508E+03  0.25196084710E+03  0.68616005914E+03  0.75507132617E+03  0.15294330000E+03 0.  0.
<mgrwt>
<rscale>  0 0.58194557E+03</rscale>
<asrwt>0</asrwt>
<pdfrwt beam="1">  1        1 0.18164474E+00 0.71395773E+03</pdfrwt>
<pdfrwt beam="2">  1       -1 0.12796796E+00 0.71395773E+03</pdfrwt>
<totfact> 0.60761231E+00</totfact>
</mgrwt>
</event>
<event>
 4    5  0.7176259E-008  0.1134430E+04  0.7818608E-02  0.9223657E-01
         -1   -1    0    0    0  501 -0.00000000000E+00  0.00000000000E+00  0.20774400011E+04  0.20774400011E+04  0.50400000000E-02 0.  1.
          1   -1    0    0  501    0  0.00000000000E+00 -0.00000000000E+00 -0.65076023702E+03  0.65076023704E+03  0.50400000000E-02 0. -1.
    8880023    1    1    2    0    0  0.87304337927E+03  0.30152356762E+03  0.14892389812E+03  0.11441633352E+04  0.65864270000E+03 0.  1.
    8880022    1    1    2    0    0 -0.87304337927E+03 -0.30152356762E+03  0.12777558660E+04  0.15840369030E+04  0.15294330000E+03 0.  0.
<mgrwt>
<rscale>  0 0.10812548E+04</rscale>
<asrwt>0</asrwt>
<pdfrwt beam="1">  1        1 0.10011696E+00 0.11344300E+04</pdfrwt>
<pdfrwt beam="2">  1       -1 0.31960616E+00 0.11344300E+04</pdfrwt>
<totfact> 0.74721673E-01</totfact>
</mgrwt>
</event>
<event>
 4    5  0.7176259E-008  0.7169565E+03  0.7818608E-02  0.9933022E-01
          1   -1    0    0  501    0  0.00000000000E+00  0.00000000000E+00  0.11891307060E+04  0.11891307060E+04  0.50400000000E-02 0. -1.
         -1   -1    0    0    0  501 -0.00000000000E+00 -0.00000000000E+00 -0.54694813592E+03  0.54694813594E+03  0.50400000000E-02 0.  1.
    8880023    1    1    2    0    0 -0.33794338092E+02  0.28120171066E+03  0.10155427128E+04  0.12431225471E+04  0.65864270000E+03 0. -1.
    8880022    1    1    2    0    0  0.33794338092E+02 -0.28120171066E+03 -0.37336014276E+03  0.49295629480E+03  0.15294330000E+03 0.  0.
<mgrwt>
<rscale>  0 0.58687261E+03</rscale>
<asrwt>0</asrwt>
<pdfrwt beam="1">  1        1 0.18294318E+00 0.71695653E+03</pdfrwt>
<pdfrwt beam="2">  1       -1 0.84145868E-01 0.71695653E+03</pdfrwt>
<totfact> 0.15791472E+01</totfact>
</mgrwt>
</event>
<event>
 4    5  0.7176259E-008  0.7448636E+03  0.7818608E-02  0.9846000E-01
         -1   -1    0    0    0  501 -0.00000000000E+00  0.00000000000E+00  0.18870655986E+04  0.18870655987E+04  0.50400000000E-02 0.  1.
          1   -1    0    0  501    0  0.00000000000E+00 -0.00000000000E+00 -0.74669091124E+03  0.74669091126E+03  0.50400000000E-02 0. -1.
    8880023    1    1    2    0    0 -0.33016481518E+03  0.10955729713E+03 -0.53419170110E+03  0.91661474259E+03  0.65864270000E+03 0. -1.
    8880022    1    1    2    0    0  0.33016481518E+03 -0.10955729713E+03  0.16745663885E+04  0.17171417673E+04  0.15294330000E+03 0.  1.
<mgrwt>
<rscale>  0 0.62951299E+03</rscale>
<asrwt>0</asrwt>
<pdfrwt beam="1">  1        1 0.11487553E+00 0.74486362E+03</pdfrwt>
<pdfrwt beam="2">  1       -1 0.29031778E+00 0.74486362E+03</pdfrwt>
<totfact> 0.99428065E-01</totfact>
</mgrwt>
</event>
<event>
 4    5  0.7176259E-008  0.9202093E+03  0.7818608E-02  0.9494338E-01
          1   -1    0    0  501    0  0.00000000000E+00  0.00000000000E+00  0.16821922711E+04  0.16821922711E+04  0.50400000000E-02 0. -1.
         -1   -1    0    0    0  501 -0.00000000000E+00 -0.00000000000E+00 -0.43776328045E+03  0.43776328048E+03  0.50400000000E-02 0.  1.
    8880023    1    1    2    0    0  0.32986676049E+02 -0.64178408589E+03  0.11169428005E+04  0.14471856687E+04  0.65864270000E+03 0.  0.
    8880022    1    1    2    0    0 -0.32986676049E+02  0.64178408589E+03  0.12748619014E+03  0.67276988294E+03  0.15294330000E+03 0.  0.
<mgrwt>
<rscale>  0 0.84702533E+03</rscale>
<asrwt>0</asrwt>
<pdfrwt beam="1">  1        1 0.25879881E+00 0.92020929E+03</pdfrwt>
<pdfrwt beam="2">  1       -1 0.67348198E-01 0.92020929E+03</pdfrwt>
<totfact> 0.11130042E+01</totfact>
</mgrwt>
</event>
<event>
 4    5  0.9704888E-008  0.1054786E+04  0.7818608E-02  0.9313150E-01
         -1   -1    0    0    0  501 -0.00000000000E+00  0.00000000000E+00  0.12645078793E+04  0.12645078793E+04  0.50400000000E-02 0.  1.
          1   -1    0    0  501    0  0.00000000000E+00 -0.00000000000E+00 -0.18100074157E+04  0.18100074157E+04  0.50400000000E-02 0. -1.
    8880023    1    1    2    0    0 -0.15258299591E+03  0.80961874668E+03 -0.14812433019E+04  0.18184212964E+04  0.65864270000E+03 0.  0.
    8880022    1    1    2    0    0  0.15258299591E+03 -0.80961874668E+03  0.93574376548E+03  0.12560939986E+04  0.15294330000E+03 0.  0.
<mgrwt>
<rscale>  0 0.99581248E+03</rscale>
<asrwt>0</asrwt>
<pdfrwt beam="1">  1        1 0.27846268E+00 0.10547864E+04</pdfrwt>
<pdfrwt beam="2">  1       -1 0.19453967E+00 0.10547864E+04</pdfrwt>
<totfact> 0.65952685E-01</totfact>
</mgrwt>
</event>
<event>
 4    5  0.7176259E-008  0.1161588E+04  0.7818608E-02  0.9195397E-01
          1   -1    0    0  501    0  0.00000000000E+00  0.00000000000E+00  0.38512230814E+04  0.38512230814E+04  0.50400000000E-02 0. -1.
         -1   -1    0    0    0  501 -0.00000000000E+00 -0.00000000000E+00 -0.50319303982E+03  0.50319303985E+03  0.50400000000E-02 0.  1.
    8880023    1    1    2    0    0  0.94053624496E+03 -0.17569570399E+03  0.31608758342E+04  0.33675545510E+04  0.65864270000E+03 0. -1.
    8880022    1    1    2    0    0 -0.94053624496E+03  0.17569570399E+03  0.18715420739E+03  0.98686157025E+03  0.15294330000E+03 0.  0.
<mgrwt>
<rscale>  0 0.11101070E+04</rscale>
<asrwt>0</asrwt>
<pdfrwt beam="1">  1        1 0.59249587E+00 0.11615884E+04</pdfrwt>
<pdfrwt beam="2">  1       -1 0.77414312E-01 0.11615884E+04</pdfrwt>
<totfact> 0.22010887E-01</totfact>
</mgrwt>
</event>
<event>
 4    5  0.7176259E-008  0.6768834E+03  0.7818608E-02  0.1011145E+00
          1   -1    0    0  501    0  0.00000000000E+00  0.00000000000E+00  0.42643988633E+03  0.42643988636E+03  0.50400000000E-02 0. -1.
         -1   -1    0    0    0  501 -0.00000000000E+00 -0.00000000000E+00 -0.86285123532E+03  0.86285123533E+03  0.50400000000E-02 0.  1.
    8880023    1    1    2    0    0 -0.14064890297E+03 -0.67666506232E+02  0.12367099917E+03  0.68808836080E+03  0.65864270000E+03 0.  0.
    8880022    1    1    2    0    0  0.14064890297E+03  0.67666506232E+02 -0.56008234815E+03  0.60120276089E+03  0.15294330000E+03 0.  1.
<mgrwt>
<rscale>  0 0.51022286E+03</rscale>
<asrwt>0</asrwt>
<pdfrwt beam="1">  1        1 0.65606137E-01 0.67688335E+03</pdfrwt>
<pdfrwt beam="2">  1       -1 0.13274634E+00 0.67688335E+03</pdfrwt>
<totfact> 0.27322702E+01</totfact>
</mgrwt>
</event>
<event>
 4    5  0.7176259E-008  0.8619575E+03  0.7818608E-02  0.9590091E-01
         -1   -1    0    0    0  501 -0.00000000000E+00  0.00000000000E+00  0.10668948989E+04  0.10668948990E+04  0.50400000000E-02 0.  1.
          1   -1    0    0  501    0  0.00000000000E+00 -0.00000000000E+00 -0.13266743316E+04  0.13266743316E+04  0.50400000000E-02 0. -1.
    8880023    1    1    2    0    0 -0.81808957146E+02 -0.54997071829E+03 -0.10856926035E+04  0.13862536319E+04  0.65864270000E+03 0. -1.
    8880022    1    1    2    0    0  0.81808957146E+02  0.54997071829E+03  0.82591317085E+03  0.10073155986E+04  0.15294330000E+03 0.  0.
<mgrwt>
<rscale>  0 0.77955516E+03</rscale>
<asrwt>0</asrwt>
<pdfrwt beam="1">  1        1 0.20410374E+00 0.86195748E+03</pdfrwt>
<pdfrwt beam="2">  1       -1 0.16413768E+00 0.86195748E+03</pdfrwt>
<totfact> 0.24126985E+00</totfact>
</mgrwt>
</event>
<event>
 4    5  0.7176259E-008  0.9168112E+03  0.7818608E-02  0.9499566E-01
          1   -1    0    0  501    0  0.00000000000E+00  0.00000000000E+00  0.90703770676E+03  0.90703770677E+03  0.50400000000E-02 0. -1.
         -1   -1    0    0    0  501 -0.00000000000E+00 -0.00000000000E+00 -0.96636859070E+03  0.96636859071E+03  0.50400000000E-02 0.  1.
    8880023    1    1    2    0    0 -0.61011506162E+03  0.18572090989E+03  0.47031411160E+03  0.10304068200E+04  0.65864270000E+03 0.  0.
    8880022    1    1    2    0    0  0.61011506162E+03 -0.18572090989E+03 -0.52964499555E+03  0.84299947752E+03  0.15294330000E+03 0.  0.
<mgrwt>
<rscale>  0 0.84315844E+03</rscale>
<asrwt>0</asrwt>
<pdfrwt beam="1">  1        1 0.13954426E+00 0.91681124E+03</pdfrwt>
<pdfrwt beam="2">  1       -1 0.14867209E+00 0.91681124E+03</pdfrwt>
<totfact> 0.64930245E+00</totfact>
</mgrwt>
</event>
<event>
 4    5  0.7176259E-008  0.8152481E+03  0.7818608E-02  0.9678747E-01
         -1   -1    0    0    0  501 -0.00000000000E+00  0.00000000000E+00  0.50074353777E+03  0.50074353779E+03  0.50400000000E-02 0.  1.
          1   -1    0    0  501    0  0.00000000000E+00 -0.00000000000E+00 -0.19861700107E+04  0.19861700107E+04  0.50400000000E-02 0. -1.
    8880023    1    1    2    0    0 -0.35807268068E+03  0.32031746851E+03 -0.17404265698E+04  0.19219037896E+04  0.65864270000E+03 0. -1.
    8880022    1    1    2    0    0  0.35807268068E+03 -0.32031746851E+03  0.25500009685E+03  0.56500975893E+03  0.15294330000E+03 0.  0.
<mgrwt>
<rscale>  0 0.72296396E+03</rscale>
<asrwt>0</asrwt>
<pdfrwt beam="1">  1        1 0.30556461E+00 0.81524814E+03</pdfrwt>
<pdfrwt beam="2">  1       -1 0.77037468E-01 0.81524814E+03</pdfrwt>
<totfact> 0.53415726E+00</totfact>
</mgrwt>
</event>
<event>
 4    5  0.7176259E-008  0.7594383E+03  0.7818608E-02  0.9806564E-01
          1   -1    0    0  501    0  0.00000000000E+00  0.00000000000E+00  0.24901222263E+04  0.24901222263E+04  0.50400000000E-02 0. -1.
         -1   -1    0    0    0  501 -0.00000000000E+00 -0.00000000000E+00 -0.17016468494E+03  0.17016468501E+03  0.50400000000E-02 0.  1.
    8880023    1    1    2    0    0 -0.23501644954E+02 -0.37733813725E+03  0.20080261782E+04  0.21468385444E+04  0.65864270000E+03 0. -1.
    8880022    1    1    2    0    0  0.23501644954E+02  0.37733813725E+03  0.31193136312E+03  0.51344836688E+03  0.15294330000E+03 0.  0.
<mgrwt>
<rscale>  0 0.65011484E+03</rscale>
<asrwt>0</asrwt>
<pdfrwt beam="1">  1        1 0.38309568E+00 0.75943835E+03</pdfrwt>
<pdfrwt beam="2">  1       -1 0.26179185E-01 0.75943835E+03</pdfrwt>
<totfact> 0.18637264E+01</totfact>
</mgrwt>
</event>
<event>
 4    5  0.7176259E-008  0.9153659E+03  0.7818608E-02  0.9501801E-01
          1   -1    0    0  501    0  0.00000000000E+00  0.00000000000E+00  0.81448274364E+03  0.81448274366E+03  0.50400000000E-02 0. -1.
         -1   -1    0    0    0  501 -0.00000000000E+00 -0.00000000000E+00 -0.10110694969E+04  0.10110694969E+04  0.50400000000E-02 0.  1.
    8880023    1    1    2    0    0  0.60527987785E+03  0.19421847857E+03  0.34331645198E+03  0.97763026775E+03  0.65864270000E+03 0.  0.
    8880022    1    1    2    0    0 -0.60527987785E+03 -0.19421847857E+03 -0.53990320521E+03  0.84792197280E+03  0.15294330000E+03 0.  0.
<mgrwt>
<rscale>  0 0.84151148E+03</rscale>
<asrwt>0</asrwt>
<pdfrwt beam="1">  1        1 0.12530504E+00 0.91536591E+03</pdfrwt>
<pdfrwt beam="2">  1       -1 0.15554915E+00 0.91536591E+03</pdfrwt>
<totfact> 0.68679396E+00</totfact>
</mgrwt>
</event>
<event>
 4    5  0.7176259E-008  0.8932033E+03  0.7818608E-02  0.9537032E-01
         -1   -1    0    0    0  501 -0.00000000000E+00  0.00000000000E+00  0.74254060758E+03  0.74254060760E+03  0.50400000000E-02 0.  1.
          1   -1    0    0  501    0  0.00000000000E+00 -0.00000000000E+00 -0.11744757649E+04  0.11744757649E+04  0.50400000000E-02 0. -1.
    8880023    1    1    2    0    0 -0.44806638861E+03 -0.40402771170E+03 -0.79559564547E+03  0.11961540527E+04  0.65864270000E+03 0. -1.
    8880022    1    1    2    0    0  0.44806638861E+03  0.40402771170E+03  0.36366048817E+03  0.72086231979E+03  0.15294330000E+03 0.  0.
<mgrwt>
<rscale>  0 0.81607820E+03</rscale>
<asrwt>0</asrwt>
<pdfrwt beam="1">  1        1 0.18068858E+00 0.89320327E+03</pdfrwt>
<pdfrwt beam="2">  1       -1 0.11423702E+00 0.89320327E+03</pdfrwt>
<totfact> 0.79037639E+00</totfact>
</mgrwt>
</event>
<event>
 4    5  0.7176259E-008  0.7520089E+03  0.7818608E-02  0.9826253E-01
          1   -1    0    0  501    0  0.00000000000E+00  0.00000000000E+00  0.24117192173E+04  0.24117192173E+04  0.50400000000E-02 0. -1.
         -1   -1    0    0    0  501 -0.00000000000E+00 -0.00000000000E+00 -0.55737825769E+03  0.55737825771E+03  0.50400000000E-02 0.  1.
    8880023    1    1    2    0    0 -0.34947872201E+03 -0.97835806505E+02  0.22730871903E+04  0.23942520342E+04  0.65864270000E+03 0. -1.
    8880022    1    1    2    0    0  0.34947872201E+03  0.97835806505E+02 -0.41874623067E+03  0.57484544087E+03  0.15294330000E+03 0.  0.
<mgrwt>
<rscale>  0 0.63972501E+03</rscale>
<asrwt>0</asrwt>
<pdfrwt beam="1">  1        1 0.37103373E+00 0.75200893E+03</pdfrwt>
<pdfrwt beam="2">  1       -1 0.85750501E-01 0.75200893E+03</pdfrwt>
<totfact> 0.22229428E+00</totfact>
</mgrwt>
</event>
<event>
 4    5  0.7176259E-008  0.9398945E+03  0.7818608E-02  0.9464805E-01
          1   -1    0    0  501    0  0.00000000000E+00  0.00000000000E+00  0.59632335516E+03  0.59632335518E+03  0.50400000000E-02 0. -1.
         -1   -1    0    0    0  501 -0.00000000000E+00 -0.00000000000E+00 -0.16554142679E+04  0.16554142679E+04  0.50400000000E-02 0.  1.
    8880023    1    1    2    0    0 -0.40034661264E+03  0.53787922607E+03  0.56063336970E+02  0.94156506737E+03  0.65864270000E+03 0.  0.
    8880022    1    1    2    0    0  0.40034661264E+03 -0.53787922607E+03 -0.11151542497E+04  0.13101725557E+04  0.15294330000E+03 0.  0.
<mgrwt>
<rscale>  0 0.86929071E+03</rscale>
<asrwt>0</asrwt>
<pdfrwt beam="1">  1        1 0.91742055E-01 0.93989450E+03</pdfrwt>
<pdfrwt beam="2">  1       -1 0.25467912E+00 0.93989450E+03</pdfrwt>
<totfact> 0.22825026E+00</totfact>
</mgrwt>
</event>
<event>
 4    5  0.7176259E-008  0.1736882E+04  0.7818608E-02  0.8758279E-01
          1   -1    0    0  501    0  0.00000000000E+00  0.00000000000E+00  0.24950583044E+04  0.24950583044E+04  0.50400000000E-02 0. -1.
         -1   -1    0    0    0  501 -0.00000000000E+00 -0.00000000000E+00 -0.17345941712E+04  0.17345941712E+04  0.50400000000E-02 0.  1.
    8880023    1    1    2    0    0 -0.16124167308E+03 -0.15990464399E+04  0.16420565371E+04  0.23902109262E+04  0.65864270000E+03 0. -1.
    8880022    1    1    2    0    0  0.16124167308E+03  0.15990464399E+04 -0.88159240390E+03  0.18394415495E+04  0.15294330000E+03 0.  0.
<mgrwt>
<rscale>  0 0.17054210E+04</rscale>
<asrwt>0</asrwt>
<pdfrwt beam="1">  1        1 0.38385512E+00 0.17368819E+04</pdfrwt>
<pdfrwt beam="2">  1       -1 0.26686064E+00 0.17368819E+04</pdfrwt>
<totfact> 0.67712887E-02</totfact>
</mgrwt>
</event>
<event>
 4    5  0.7176259E-008  0.7160538E+03  0.7818608E-02  0.9936172E-01
          1   -1    0    0  501    0  0.00000000000E+00  0.00000000000E+00  0.12404011783E+04  0.12404011783E+04  0.50400000000E-02 0. -1.
         -1   -1    0    0    0  501 -0.00000000000E+00 -0.00000000000E+00 -0.13742353136E+04  0.13742353136E+04  0.50400000000E-02 0.  1.
    8880023    1    1    2    0    0 -0.27720398740E+03  0.45616418386E+02  0.11152006984E+04  0.13252945757E+04  0.65864270000E+03 0. -1.
    8880022    1    1    2    0    0  0.27720398740E+03 -0.45616418386E+02 -0.12490348337E+04  0.12893419163E+04  0.15294330000E+03 0.  0.
<mgrwt>
<rscale>  0 0.58539828E+03</rscale>
<asrwt>0</asrwt>
<pdfrwt beam="1">  1        1 0.19083095E+00 0.71605385E+03</pdfrwt>
<pdfrwt beam="2">  1       -1 0.21142082E+00 0.71605385E+03</pdfrwt>
<totfact> 0.13259929E+00</totfact>
</mgrwt>
</event>
<event>
 4    5  0.7176259E-008  0.1313757E+04  0.7818608E-02  0.9053770E-01
          1   -1    0    0  501    0  0.00000000000E+00  0.00000000000E+00  0.92692009320E+03  0.92692009321E+03  0.50400000000E-02 0. -1.
         -1   -1    0    0    0  501 -0.00000000000E+00 -0.00000000000E+00 -0.21516702111E+04  0.21516702111E+04  0.50400000000E-02 0.  1.
    8880023    1    1    2    0    0 -0.39219411363E+03  0.10669255037E+04  0.11045108516E+03  0.13183914068E+04  0.65864270000E+03 0.  0.
    8880022    1    1    2    0    0  0.39219411363E+03 -0.10669255037E+04 -0.13352012031E+04  0.17601988975E+04  0.15294330000E+03 0.  0.
<mgrwt>
<rscale>  0 0.12699134E+04</rscale>
<asrwt>0</asrwt>
<pdfrwt beam="1">  1        1 0.14260309E+00 0.13137566E+04</pdfrwt>
<pdfrwt beam="2">  1       -1 0.33102619E+00 0.13137566E+04</pdfrwt>
<totfact> 0.34919380E-01</totfact>
</mgrwt>
</event>
<event>
 4    5  0.7176259E-008  0.8311331E+03  0.7818608E-02  0.9647132E-01
          1   -1    0    0  501    0  0.00000000000E+00  0.00000000000E+00  0.11743644807E+04  0.11743644807E+04  0.50400000000E-02 0. -1.
         -1   -1    0    0    0  501 -0.00000000000E+00 -0.00000000000E+00 -0.61481715158E+03  0.61481715160E+03  0.50400000000E-02 0.  1.
    8880023    1    1    2    0    0 -0.27128205761E+03 -0.42822674771E+03 -0.20795375212E+03  0.85675379866E+03  0.65864270000E+03 0.  0.
    8880022    1    1    2    0    0  0.27128205761E+03  0.42822674771E+03  0.76750108124E+03  0.93242783365E+03  0.15294330000E+03 0.  0.
<mgrwt>
<rscale>  0 0.74253715E+03</rscale>
<asrwt>0</asrwt>
<pdfrwt beam="1">  1        1 0.18067146E+00 0.83113315E+03</pdfrwt>
<pdfrwt beam="2">  1       -1 0.94587255E-01 0.83113315E+03</pdfrwt>
<totfact> 0.12337440E+01</totfact>
</mgrwt>
</event>
<event>
 4    5  0.7176259E-008  0.8644900E+03  0.7818608E-02  0.9585626E-01
          1   -1    0    0  501    0  0.00000000000E+00  0.00000000000E+00  0.18345794499E+04  0.18345794499E+04  0.50400000000E-02 0. -1.
         -1   -1    0    0    0  501 -0.00000000000E+00 -0.00000000000E+00 -0.71720886985E+03  0.71720886987E+03  0.50400000000E-02 0.  1.
    8880023    1    1    2    0    0  0.21599126804E+03  0.51660481280E+03  0.15856469396E+04  0.18059953443E+04  0.65864270000E+03 0.  0.
    8880022    1    1    2    0    0 -0.21599126804E+03 -0.51660481280E+03 -0.46827635946E+03  0.74579297551E+03  0.15294330000E+03 0.  0.
<mgrwt>
<rscale>  0 0.78254900E+03</rscale>
<asrwt>0</asrwt>
<pdfrwt beam="1">  1        1 0.28224299E+00 0.86449000E+03</pdfrwt>
<pdfrwt beam="2">  1       -1 0.11033983E+00 0.86449000E+03</pdfrwt>
<totfact> 0.30092445E+00</totfact>
</mgrwt>
</event>
<event>
 4    5  0.7176259E-008  0.8899451E+03  0.7818608E-02  0.9542370E-01
         -1   -1    0    0    0  501 -0.00000000000E+00  0.00000000000E+00  0.73262804892E+03  0.73262804894E+03  0.50400000000E-02 0.  1.
          1   -1    0    0  501    0  0.00000000000E+00 -0.00000000000E+00 -0.15043309593E+04  0.15043309594E+04  0.50400000000E-02 0. -1.
    8880023    1    1    2    0    0  0.56089321536E+03 -0.20878415269E+03 -0.11936400355E+04  0.14888850735E+04  0.65864270000E+03 0.  0.
    8880022    1    1    2    0    0 -0.56089321536E+03  0.20878415269E+03  0.42193712504E+03  0.74807393482E+03  0.15294330000E+03 0.  0.
<mgrwt>
<rscale>  0 0.81230874E+03</rscale>
<asrwt>0</asrwt>
<pdfrwt beam="1">  1        1 0.23143553E+00 0.88994507E+03</pdfrwt>
<pdfrwt beam="2">  1       -1 0.11271201E+00 0.88994507E+03</pdfrwt>
<totfact> 0.47732503E+00</totfact>
</mgrwt>
</event>
<event>
 4    5  0.7176259E-008  0.9698042E+03  0.7818608E-02  0.9422175E-01
         -1   -1    0    0    0  501 -0.00000000000E+00  0.00000000000E+00  0.59872099815E+03  0.59872099818E+03  0.50400000000E-02 0.  1.
          1   -1    0    0  501    0  0.00000000000E+00 -0.00000000000E+00 -0.21168056106E+04  0.21168056106E+04  0.50400000000E-02 0. -1.
    8880023    1    1    2    0    0  0.53181370584E+03 -0.47316395843E+03 -0.17070725649E+04  0.19633178289E+04  0.65864270000E+03 0.  0.
    8880022    1    1    2    0    0 -0.53181370584E+03  0.47316395843E+03  0.18898795247E+03  0.75220877984E+03  0.15294330000E+03 0.  0.
<mgrwt>
<rscale>  0 0.90273011E+03</rscale>
<asrwt>0</asrwt>
<pdfrwt beam="1">  1        1 0.32566240E+00 0.96980418E+03</pdfrwt>
<pdfrwt beam="2">  1       -1 0.92110923E-01 0.96980418E+03</pdfrwt>
<totfact> 0.28970155E+00</totfact>
</mgrwt>
</event>
<event>
 4    5  0.7176259E-008  0.1063601E+04  0.7818608E-02  0.9302707E-01
          1   -1    0    0  501    0  0.00000000000E+00  0.00000000000E+00  0.14426580867E+04  0.14426580867E+04  0.50400000000E-02 0. -1.
         -1   -1    0    0    0  501 -0.00000000000E+00 -0.00000000000E+00 -0.73919653908E+03  0.73919653910E+03  0.50400000000E-02 0.  1.
    8880023    1    1    2    0    0  0.33579543415E+03 -0.76464302530E+03  0.79504927109E+03  0.13279123011E+04  0.65864270000E+03 0. -1.
    8880022    1    1    2    0    0 -0.33579543415E+03  0.76464302530E+03 -0.91587723493E+02  0.85394232466E+03  0.15294330000E+03 0.  0.
<mgrwt>
<rscale>  0 0.10053405E+04</rscale>
<asrwt>0</asrwt>
<pdfrwt beam="1">  1        1 0.22194740E+00 0.10636013E+04</pdfrwt>
<pdfrwt beam="2">  1       -1 0.11372255E+00 0.10636013E+04</pdfrwt>
<totfact> 0.50438510E+00</totfact>
</mgrwt>
</event>
<event>
 4    5  0.9124284E-008  0.7867723E+03  0.7818608E-02  0.9740163E-01
         -1   -1    0    0    0  501 -0.00000000000E+00  0.00000000000E+00  0.11044824364E+04  0.11044824364E+04  0.50400000000E-02 0.  1.
          1   -1    0    0  501    0  0.00000000000E+00 -0.00000000000E+00 -0.17720839145E+04  0.17720839145E+04  0.50400000000E-02 0. -1.
    8880023    1    1    2    0    0  0.13694044522E+03 -0.40798005498E+03 -0.16307468219E+04  0.18106202843E+04  0.65864270000E+03 0. -1.
    8880022    1    1    2    0    0 -0.13694044522E+03  0.40798005498E+03  0.96314534372E+03  0.10659460666E+04  0.15294330000E+03 0.  0.
<mgrwt>
<rscale>  0 0.68675054E+03</rscale>
<asrwt>0</asrwt>
<pdfrwt beam="1">  1        1 0.27262830E+00 0.78677228E+03</pdfrwt>
<pdfrwt beam="2">  1       -1 0.16992037E+00 0.78677228E+03</pdfrwt>
<totfact> 0.10979409E+00</totfact>
</mgrwt>
</event>
<event>
 4    5  0.7480784E-008  0.8072569E+03  0.7818608E-02  0.9695319E-01
         -1   -1    0    0    0  501 -0.00000000000E+00  0.00000000000E+00  0.97971473474E+03  0.97971473475E+03  0.50400000000E-02 0.  1.
          1   -1    0    0  501    0  0.00000000000E+00 -0.00000000000E+00 -0.34919699585E+04  0.34919699585E+04  0.50400000000E-02 0. -1.
    8880023    1    1    2    0    0 -0.25886872057E+03 -0.38838185619E+03 -0.33797355688E+04  0.34748059229E+04  0.65864270000E+03 0. -1.
    8880022    1    1    2    0    0  0.25886872057E+03  0.38838185619E+03  0.86748034504E+03  0.99687877033E+03  0.15294330000E+03 0.  0.
<mgrwt>
<rscale>  0 0.71296160E+03</rscale>
<asrwt>0</asrwt>
<pdfrwt beam="1">  1        1 0.53722614E+00 0.80725689E+03</pdfrwt>
<pdfrwt beam="2">  1       -1 0.15072535E+00 0.80725689E+03</pdfrwt>
<totfact> 0.94971454E-02</totfact>
</mgrwt>
</event>
<event>
 4    5  0.7176259E-008  0.7623425E+03  0.7818608E-02  0.9799080E-01
          1   -1    0    0  501    0  0.00000000000E+00  0.00000000000E+00  0.13687411880E+04  0.13687411880E+04  0.50400000000E-02 0. -1.
         -1   -1    0    0    0  501 -0.00000000000E+00 -0.00000000000E+00 -0.47470312595E+03  0.47470312598E+03  0.50400000000E-02 0.  1.
    8880023    1    1    2    0    0  0.20725949739E+03  0.32310888920E+03  0.11333837753E+04  0.13659153860E+04  0.65864270000E+03 0. -1.
    8880022    1    1    2    0    0 -0.20725949739E+03 -0.32310888920E+03 -0.23934571324E+03  0.47752892792E+03  0.15294330000E+03 0.  0.
<mgrwt>
<rscale>  0 0.65411919E+03</rscale>
<asrwt>0</asrwt>
<pdfrwt beam="1">  1        1 0.21057557E+00 0.76234248E+03</pdfrwt>
<pdfrwt beam="2">  1       -1 0.73031250E-01 0.76234248E+03</pdfrwt>
<totfact> 0.15774843E+01</totfact>
</mgrwt>
</event>
<event>
 4    5  0.7176259E-008  0.7460379E+03  0.7818608E-02  0.9842696E-01
         -1   -1    0    0    0  501 -0.00000000000E+00  0.00000000000E+00  0.38077444954E+03  0.38077444957E+03  0.50400000000E-02 0.  1.
          1   -1    0    0  501    0  0.00000000000E+00 -0.00000000000E+00 -0.10896729469E+04  0.10896729469E+04  0.50400000000E-02 0. -1.
    8880023    1    1    2    0    0  0.93996541384E+02  0.33753069569E+03 -0.78247701674E+03  0.10811303383E+04  0.65864270000E+03 0.  0.
    8880022    1    1    2    0    0 -0.93996541384E+02 -0.33753069569E+03  0.73578519346E+02  0.38931705826E+03  0.15294330000E+03 0.  0.
<mgrwt>
<rscale>  0 0.63120727E+03</rscale>
<asrwt>0</asrwt>
<pdfrwt beam="1">  1        1 0.16764199E+00 0.74603789E+03</pdfrwt>
<pdfrwt beam="2">  1       -1 0.58580685E-01 0.74603789E+03</pdfrwt>
<totfact> 0.39137531E+01</totfact>
</mgrwt>
</event>
<event>
 4    5  0.9056625E-008  0.7772334E+03  0.7818608E-02  0.9762376E-01
          1   -1    0    0  501    0  0.00000000000E+00  0.00000000000E+00  0.23120709557E+04  0.23120709557E+04  0.50400000000E-02 0. -1.
         -1   -1    0    0    0  501 -0.00000000000E+00 -0.00000000000E+00 -0.94029682067E+03  0.94029682069E+03  0.50400000000E-02 0.  1.
    8880023    1    1    2    0    0  0.38909307177E+03  0.13743396543E+03  0.21897086492E+04  0.23235566892E+04  0.65864270000E+03 0. -1.
    8880022    1    1    2    0    0 -0.38909307177E+03 -0.13743396543E+03 -0.81793451412E+03  0.92881108723E+03  0.15294330000E+03 0.  0.
<mgrwt>
<rscale>  0 0.67421322E+03</rscale>
<asrwt>0</asrwt>
<pdfrwt beam="1">  1        1 0.35570322E+00 0.77723338E+03</pdfrwt>
<pdfrwt beam="2">  1       -1 0.14466105E+00 0.77723338E+03</pdfrwt>
<totfact> 0.74366741E-01</totfact>
</mgrwt>
</event>
<event>
 4    5  0.7176259E-008  0.7794721E+03  0.7818608E-02  0.9757078E-01
          1   -1    0    0  501    0  0.00000000000E+00  0.00000000000E+00  0.15958435571E+04  0.15958435571E+04  0.50400000000E-02 0. -1.
         -1   -1    0    0    0  501 -0.00000000000E+00 -0.00000000000E+00 -0.27958490215E+04  0.27958490215E+04  0.50400000000E-02 0.  1.
    8880023    1    1    2    0    0  0.37460418296E+03 -0.18286148333E+03  0.14813025034E+04  0.16738679545E+04  0.65864270000E+03 0.  0.
    8880022    1    1    2    0    0 -0.37460418296E+03  0.18286148333E+03 -0.26813079678E+04  0.27178246241E+04  0.15294330000E+03 0.  0.
<mgrwt>
<rscale>  0 0.67717719E+03</rscale>
<asrwt>0</asrwt>
<pdfrwt beam="1">  1        1 0.24551439E+00 0.77947214E+03</pdfrwt>
<pdfrwt beam="2">  1       -1 0.43013062E+00 0.77947214E+03</pdfrwt>
<totfact> 0.27149367E-02</totfact>
</mgrwt>
</event>
<event>
 4    5  0.7176259E-008  0.8402152E+03  0.7818608E-02  0.9629775E-01
          1   -1    0    0  501    0  0.00000000000E+00  0.00000000000E+00  0.85792797233E+03  0.85792797234E+03  0.50400000000E-02 0. -1.
         -1   -1    0    0    0  501 -0.00000000000E+00 -0.00000000000E+00 -0.58869202861E+03  0.58869202864E+03  0.50400000000E-02 0.  1.
    8880023    1    1    2    0    0  0.49217340619E+03  0.17296435598E+03  0.32336675099E+03  0.90029305902E+03  0.65864270000E+03 0.  1.
    8880022    1    1    2    0    0 -0.49217340619E+03 -0.17296435598E+03 -0.54130807279E+02  0.54632694196E+03  0.15294330000E+03 0. -1.
<mgrwt>
<rscale>  0 0.75356457E+03</rscale>
<asrwt>0</asrwt>
<pdfrwt beam="1">  1        1 0.13198892E+00 0.84021517E+03</pdfrwt>
<pdfrwt beam="2">  1       -1 0.90568004E-01 0.84021517E+03</pdfrwt>
<totfact> 0.23899140E+01</totfact>
</mgrwt>
</event>
<event>
 4    5  0.7176259E-008  0.8342504E+03  0.7818608E-02  0.9641118E-01
          1   -1    0    0  501    0  0.00000000000E+00  0.00000000000E+00  0.11944978154E+04  0.11944978154E+04  0.50400000000E-02 0. -1.
         -1   -1    0    0    0  501 -0.00000000000E+00 -0.00000000000E+00 -0.55005105392E+03  0.55005105394E+03  0.50400000000E-02 0.  1.
    8880023    1    1    2    0    0 -0.38843087274E+03  0.33359399281E+03  0.83199937564E+03  0.11782175785E+04  0.65864270000E+03 0.  0.
    8880022    1    1    2    0    0  0.38843087274E+03 -0.33359399281E+03 -0.18755261414E+03  0.56633129087E+03  0.15294330000E+03 0.  0.
<mgrwt>
<rscale>  0 0.74633457E+03</rscale>
<asrwt>0</asrwt>
<pdfrwt beam="1">  1        1 0.18376890E+00 0.83425038E+03</pdfrwt>
<pdfrwt beam="2">  1       -1 0.84623238E-01 0.83425038E+03</pdfrwt>
<totfact> 0.15231687E+01</totfact>
</mgrwt>
</event>
<event>
 4    5  0.7176259E-008  0.7609842E+03  0.7818608E-02  0.9802566E-01
          1   -1    0    0  501    0  0.00000000000E+00  0.00000000000E+00  0.28970247107E+04  0.28970247107E+04  0.50400000000E-02 0. -1.
         -1   -1    0    0    0  501 -0.00000000000E+00 -0.00000000000E+00 -0.23921249226E+03  0.23921249231E+03  0.50400000000E-02 0.  1.
    8880023    1    1    2    0    0 -0.26427315393E+03 -0.27467515587E+03  0.26148026394E+04  0.27232865788E+04  0.65864270000E+03 0. -1.
    8880022    1    1    2    0    0  0.26427315393E+03  0.27467515587E+03  0.43009579072E+02  0.41295062422E+03  0.15294330000E+03 0.  0.
<mgrwt>
<rscale>  0 0.65225011E+03</rscale>
<asrwt>0</asrwt>
<pdfrwt beam="1">  1        1 0.44569609E+00 0.76098420E+03</pdfrwt>
<pdfrwt beam="2">  1       -1 0.36801924E-01 0.76098420E+03</pdfrwt>
<totfact> 0.53506709E+00</totfact>
</mgrwt>
</event>
<event>
 4    5  0.7176259E-008  0.9088414E+03  0.7818608E-02  0.9511985E-01
         -1   -1    0    0    0  501 -0.00000000000E+00  0.00000000000E+00  0.68596273006E+03  0.68596273008E+03  0.50400000000E-02 0.  1.
          1   -1    0    0  501    0  0.00000000000E+00 -0.00000000000E+00 -0.16831779989E+04  0.16831779989E+04  0.50400000000E-02 0. -1.
    8880023    1    1    2    0    0 -0.35438597331E+03  0.51632654384E+03 -0.13552204420E+04  0.16317521781E+04  0.65864270000E+03 0. -1.
    8880022    1    1    2    0    0  0.35438597331E+03 -0.51632654384E+03  0.35800517318E+03  0.73738855090E+03  0.15294330000E+03 0.  0.
<mgrwt>
<rscale>  0 0.83405973E+03</rscale>
<asrwt>0</asrwt>
<pdfrwt beam="1">  1        1 0.25895046E+00 0.90884142E+03</pdfrwt>
<pdfrwt beam="2">  1       -1 0.10553273E+00 0.90884142E+03</pdfrwt>
<totfact> 0.41987876E+00</totfact>
</mgrwt>
</event>
<event>
 4    5  0.7176259E-008  0.1520481E+04  0.7818608E-02  0.8895308E-01
          1   -1    0    0  501    0  0.00000000000E+00  0.00000000000E+00  0.15728742373E+04  0.15728742373E+04  0.50400000000E-02 0. -1.
         -1   -1    0    0    0  501 -0.00000000000E+00 -0.00000000000E+00 -0.15383210336E+04  0.15383210336E+04  0.50400000000E-02 0.  1.
    8880023    1    1    2    0    0  0.13117516598E+04  0.39668497881E+03  0.58132387081E+03  0.16278203336E+04  0.65864270000E+03 0.  0.
    8880022    1    1    2    0    0 -0.13117516598E+04 -0.39668497881E+03 -0.54677066711E+03  0.14833749374E+04  0.15294330000E+03 0.  0.
<mgrwt>
<rscale>  0 0.14837854E+04</rscale>
<asrwt>0</asrwt>
<pdfrwt beam="1">  1        1 0.24198065E+00 0.15204807E+04</pdfrwt>
<pdfrwt beam="2">  1       -1 0.23666478E+00 0.15204807E+04</pdfrwt>
<totfact> 0.46869149E-01</totfact>
</mgrwt>
</event>
<event>
 4    5  0.7176259E-008  0.8461588E+03  0.7818608E-02  0.9618675E-01
          1   -1    0    0  501    0  0.00000000000E+00  0.00000000000E+00  0.22877576285E+04  0.22877576285E+04  0.50400000000E-02 0. -1.
         -1   -1    0    0    0  501 -0.00000000000E+00 -0.00000000000E+00 -0.24828474409E+03  0.24828474414E+03  0.50400000000E-02 0.  1.
    8880023    1    1    2    0    0  0.11766349149E+03 -0.51800567280E+03  0.16670726503E+04  0.18695229343E+04  0.65864270000E+03 0.  0.
    8880022    1    1    2    0    0 -0.11766349149E+03  0.51800567280E+03  0.37240023411E+03  0.66651943833E+03  0.15294330000E+03 0.  0.
<mgrwt>
<rscale>  0 0.76072395E+03</rscale>
<asrwt>0</asrwt>
<pdfrwt beam="1">  1        1 0.35196273E+00 0.84615884E+03</pdfrwt>
<pdfrwt beam="2">  1       -1 0.38197651E-01 0.84615884E+03</pdfrwt>
<totfact> 0.12994909E+01</totfact>
</mgrwt>
</event>
<event>
 4    5  0.7176259E-008  0.1098735E+04  0.7818608E-02  0.9262466E-01
         -1   -1    0    0    0  501 -0.00000000000E+00  0.00000000000E+00  0.21654777803E+04  0.21654777804E+04  0.50400000000E-02 0.  1.
          1   -1    0    0  501    0  0.00000000000E+00 -0.00000000000E+00 -0.13011993501E+04  0.13011993501E+04  0.50400000000E-02 0. -1.
    8880023    1    1    2    0    0  0.45387767874E+03  0.75326131646E+03 -0.94497437244E+03  0.14492047229E+04  0.65864270000E+03 0.  0.
    8880022    1    1    2    0    0 -0.45387767874E+03 -0.75326131646E+03  0.18092528027E+04  0.20174724075E+04  0.15294330000E+03 0.  0.
<mgrwt>
<rscale>  0 0.10431295E+04</rscale>
<asrwt>0</asrwt>
<pdfrwt beam="1">  1        1 0.20018452E+00 0.10987346E+04</pdfrwt>
<pdfrwt beam="2">  1       -1 0.33315043E+00 0.10987346E+04</pdfrwt>
<totfact> 0.18167325E-01</totfact>
</mgrwt>
</event>
<event>
 4    5  0.7176259E-008  0.1657183E+04  0.7818608E-02  0.8805944E-01
          1   -1    0    0  501    0  0.00000000000E+00  0.00000000000E+00  0.19335034589E+04  0.19335034589E+04  0.50400000000E-02 0. -1.
         -1   -1    0    0    0  501 -0.00000000000E+00 -0.00000000000E+00 -0.15700114664E+04  0.15700114664E+04  0.50400000000E-02 0.  1.
    8880023    1    1    2    0    0 -0.80242925467E+03  0.12917252675E+04  0.89743976400E+03  0.18845835645E+04  0.65864270000E+03 0.  0.
    8880022    1    1    2    0    0  0.80242925467E+03 -0.12917252675E+04 -0.53394777147E+03  0.16189313608E+04  0.15294330000E+03 0.  0.
<mgrwt>
<rscale>  0 0.16239898E+04</rscale>
<asrwt>0</asrwt>
<pdfrwt beam="1">  1        1 0.29746207E+00 0.16571835E+04</pdfrwt>
<pdfrwt beam="2">  1       -1 0.24154023E+00 0.16571835E+04</pdfrwt>
<totfact> 0.24288333E-01</totfact>
</mgrwt>
</event>
<event>
 4    5  0.7176259E-008  0.9282092E+03  0.7818608E-02  0.9482185E-01
          1   -1    0    0  501    0  0.00000000000E+00  0.00000000000E+00  0.30401181673E+04  0.30401181673E+04  0.50400000000E-02 0. -1.
         -1   -1    0    0    0  501 -0.00000000000E+00 -0.00000000000E+00 -0.34738544944E+03  0.34738544948E+03  0.50400000000E-02 0.  1.
    8880023    1    1    2    0    0 -0.11117865826E+02  0.65394070520E+03  0.25321200179E+04  0.26968878442E+04  0.65864270000E+03 0.  0.
    8880022    1    1    2    0    0  0.11117865826E+02 -0.65394070520E+03  0.16061269988E+03  0.69061577251E+03  0.15294330000E+03 0.  1.
<mgrwt>
<rscale>  0 0.85610091E+03</rscale>
<asrwt>0</asrwt>
<pdfrwt beam="1">  1        1 0.46771047E+00 0.92820917E+03</pdfrwt>
<pdfrwt beam="2">  1       -1 0.53443917E-01 0.92820917E+03</pdfrwt>
<totfact> 0.20532517E+00</totfact>
</mgrwt>
</event>
<event>
 4    5  0.7176259E-008  0.1112853E+04  0.7818608E-02  0.9246879E-01
          1   -1    0    0  501    0  0.00000000000E+00  0.00000000000E+00  0.25358227258E+04  0.25358227258E+04  0.50400000000E-02 0. -1.
         -1   -1    0    0    0  501 -0.00000000000E+00 -0.00000000000E+00 -0.12059421517E+04  0.12059421517E+04  0.50400000000E-02 0.  1.
    8880023    1    1    2    0    0  0.79866378725E+03  0.40837179953E+03  0.22109041666E+04  0.24751846016E+04  0.65864270000E+03 0.  0.
    8880022    1    1    2    0    0 -0.79866378725E+03 -0.40837179953E+03 -0.88102359251E+03  0.12665802759E+04  0.15294330000E+03 0.  0.
<mgrwt>
<rscale>  0 0.10582387E+04</rscale>
<asrwt>0</asrwt>
<pdfrwt beam="1">  1        1 0.39012657E+00 0.11128529E+04</pdfrwt>
<pdfrwt beam="2">  1       -1 0.18552956E+00 0.11128529E+04</pdfrwt>
<totfact> 0.24308084E-01</totfact>
</mgrwt>
</event>
<event>
 4    5  0.7176259E-008  0.1128950E+04  0.7818608E-02  0.9229488E-01
         -1   -1    0    0    0  501 -0.00000000000E+00  0.00000000000E+00  0.12349918504E+04  0.12349918504E+04  0.50400000000E-02 0.  1.
          1   -1    0    0  501    0  0.00000000000E+00 -0.00000000000E+00 -0.13529498997E+04  0.13529498997E+04  0.50400000000E-02 0. -1.
    8880023    1    1    2    0    0  0.58517174640E+03  0.70589856500E+03 -0.84306767860E+03  0.14090039297E+04  0.65864270000E+03 0.  0.
    8880022    1    1    2    0    0 -0.58517174640E+03 -0.70589856500E+03  0.72510962930E+03  0.11789378204E+04  0.15294330000E+03 0.  0.
<mgrwt>
<rscale>  0 0.10754180E+04</rscale>
<asrwt>0</asrwt>
<pdfrwt beam="1">  1        1 0.20814614E+00 0.11289504E+04</pdfrwt>
<pdfrwt beam="2">  1       -1 0.18999875E+00 0.11289504E+04</pdfrwt>
<totfact> 0.14484626E+00</totfact>
</mgrwt>
</event>
<event>
 4    5  0.7176259E-008  0.9193720E+03  0.7818608E-02  0.9495623E-01
          1   -1    0    0  501    0  0.00000000000E+00  0.00000000000E+00  0.13413016729E+04  0.13413016729E+04  0.50400000000E-02 0. -1.
         -1   -1    0    0    0  501 -0.00000000000E+00 -0.00000000000E+00 -0.50384277392E+03  0.50384277395E+03  0.50400000000E-02 0.  1.
    8880023    1    1    2    0    0 -0.40866677626E+03  0.49439466660E+03  0.73660540963E+03  0.11780629678E+04  0.65864270000E+03 0. -1.
    8880022    1    1    2    0    0  0.40866677626E+03 -0.49439466660E+03  0.10085348938E+03  0.66708147907E+03  0.15294330000E+03 0.  0.
<mgrwt>
<rscale>  0 0.84607316E+03</rscale>
<asrwt>0</asrwt>
<pdfrwt beam="1">  1        1 0.20635410E+00 0.91937197E+03</pdfrwt>
<pdfrwt beam="2">  1       -1 0.77514273E-01 0.91937197E+03</pdfrwt>
<totfact> 0.14285469E+01</totfact>
</mgrwt>
</event>
<event>
 4    5  0.7176259E-008  0.7893762E+03  0.7818608E-02  0.9734256E-01
          1   -1    0    0  501    0  0.00000000000E+00  0.00000000000E+00  0.19585980517E+04  0.19585980517E+04  0.50400000000E-02 0. -1.
         -1   -1    0    0    0  501 -0.00000000000E+00 -0.00000000000E+00 -0.35081791258E+03  0.35081791261E+03  0.50400000000E-02 0.  1.
    8880023    1    1    2    0    0  0.42046817452E+03  0.11185294806E+03  0.16669876167E+04  0.18444409691E+04  0.65864270000E+03 0.  0.
    8880022    1    1    2    0    0 -0.42046817452E+03 -0.11185294806E+03 -0.59207477628E+02  0.46497499524E+03  0.15294330000E+03 0.  0.
<mgrwt>
<rscale>  0 0.69013331E+03</rscale>
<asrwt>0</asrwt>
<pdfrwt beam="1">  1        1 0.30132277E+00 0.78937619E+03</pdfrwt>
<pdfrwt beam="2">  1       -1 0.53971988E-01 0.78937619E+03</pdfrwt>
<totfact> 0.11439222E+01</totfact>
</mgrwt>
</event>
<event>
 4    5  0.7176259E-008  0.8369321E+03  0.7818608E-02  0.9635992E-01
          1   -1    0    0  501    0  0.00000000000E+00  0.00000000000E+00  0.10419868791E+04  0.10419868791E+04  0.50400000000E-02 0. -1.
         -1   -1    0    0    0  501 -0.00000000000E+00 -0.00000000000E+00 -0.10735643560E+04  0.10735643560E+04  0.50400000000E-02 0.  1.
    8880023    1    1    2    0    0  0.31692546975E+03 -0.40768045620E+03  0.77834218886E+03  0.11429225157E+04  0.65864270000E+03 0. -1.
    8880022    1    1    2    0    0 -0.31692546975E+03  0.40768045620E+03 -0.80991966578E+03  0.97262871938E+03  0.15294330000E+03 0.  0.
<mgrwt>
<rscale>  0 0.74959088E+03</rscale>
<asrwt>0</asrwt>
<pdfrwt beam="1">  1        1 0.16030567E+00 0.83693208E+03</pdfrwt>
<pdfrwt beam="2">  1       -1 0.16516375E+00 0.83693208E+03</pdfrwt>
<totfact> 0.38442041E+00</totfact>
</mgrwt>
</event>
<event>
 4    5  0.7176259E-008  0.1531068E+04  0.7818608E-02  0.8888004E-01
          1   -1    0    0  501    0  0.00000000000E+00  0.00000000000E+00  0.35411593918E+04  0.35411593918E+04  0.50400000000E-02 0. -1.
         -1   -1    0    0    0  501 -0.00000000000E+00 -0.00000000000E+00 -0.66484708800E+03  0.66484708802E+03  0.50400000000E-02 0.  1.
    8880023    1    1    2    0    0 -0.86328337227E+03 -0.10793982833E+04  0.21434628750E+04  0.26341226504E+04  0.65864270000E+03 0. -1.
    8880022    1    1    2    0    0  0.86328337227E+03  0.10793982833E+04  0.73284942884E+03  0.15718838294E+04  0.15294330000E+03 0.  1.
<mgrwt>
<rscale>  0 0.14946720E+04</rscale>
<asrwt>0</asrwt>
<pdfrwt beam="1">  1        1 0.54479374E+00 0.15310679E+04</pdfrwt>
<pdfrwt beam="2">  1       -1 0.10228417E+00 0.15310679E+04</pdfrwt>
<totfact> 0.20124633E-01</totfact>
</mgrwt>
</event>
<event>
 4    5  0.7176259E-008  0.1605822E+04  0.7818608E-02  0.8838313E-01
          1   -1    0    0  501    0  0.00000000000E+00  0.00000000000E+00  0.36138534436E+04  0.36138534436E+04  0.50400000000E-02 0. -1.
         -1   -1    0    0    0  501 -0.00000000000E+00 -0.00000000000E+00 -0.17905372484E+04  0.17905372484E+04  0.50400000000E-02 0.  1.
    8880023    1    1    2    0    0  0.82562872542E+03  0.12096249640E+04  0.30767849980E+04  0.34706298385E+04  0.65864270000E+03 0. -1.
    8880022    1    1    2    0    0 -0.82562872542E+03 -0.12096249640E+04 -0.12534688028E+04  0.19337608535E+04  0.15294330000E+03 0.  0.
<mgrwt>
<rscale>  0 0.15713999E+04</rscale>
<asrwt>0</asrwt>
<pdfrwt beam="1">  1        1 0.55597745E+00 0.16058224E+04</pdfrwt>
<pdfrwt beam="2">  1       -1 0.27546727E+00 0.16058224E+04</pdfrwt>
<totfact> 0.90276358E-03</totfact>
</mgrwt>
</event>
<event>
 4    5  0.7176259E-008  0.1764575E+04  0.7818608E-02  0.8742390E-01
         -1   -1    0    0    0  501 -0.00000000000E+00  0.00000000000E+00  0.20426767071E+04  0.20426767071E+04  0.50400000000E-02 0.  1.
          1   -1    0    0  501    0  0.00000000000E+00 -0.00000000000E+00 -0.36342119608E+04  0.36342119608E+04  0.50400000000E-02 0. -1.
    8880023    1    1    2    0    0 -0.15227475579E+04  0.60096116295E+03 -0.30207415027E+04  0.34983716036E+04  0.65864270000E+03 0.  0.
    8880022    1    1    2    0    0  0.15227475579E+04 -0.60096116295E+03  0.14292062490E+04  0.21785170643E+04  0.15294330000E+03 0.  0.
<mgrwt>
<rscale>  0 0.17336722E+04</rscale>
<asrwt>0</asrwt>
<pdfrwt beam="1">  1        1 0.55910953E+00 0.17645749E+04</pdfrwt>
<pdfrwt beam="2">  1       -1 0.31425795E+00 0.17645749E+04</pdfrwt>
<totfact> 0.47539172E-03</totfact>
</mgrwt>
</event>
<event>
 4    5  0.7176259E-008  0.1180024E+04  0.7818608E-02  0.9176789E-01
          1   -1    0    0  501    0  0.00000000000E+00  0.00000000000E+00  0.15141511676E+04  0.15141511676E+04  0.50400000000E-02 0. -1.
         -1   -1    0    0    0  501 -0.00000000000E+00 -0.00000000000E+00 -0.16596166330E+04  0.16596166330E+04  0.50400000000E-02 0.  1.
    8880023    1    1    2    0    0  0.86882657495E+03  0.45142841510E+03  0.10787026833E+04  0.15987673116E+04  0.65864270000E+03 0. -1.
    8880022    1    1    2    0    0 -0.86882657495E+03 -0.45142841510E+03 -0.12241681487E+04  0.15750004891E+04  0.15294330000E+03 0.  0.
<mgrwt>
<rscale>  0 0.11296250E+04</rscale>
<asrwt>0</asrwt>
<pdfrwt beam="1">  1        1 0.23294633E+00 0.11800243E+04</pdfrwt>
<pdfrwt beam="2">  1       -1 0.25532564E+00 0.11800243E+04</pdfrwt>
<totfact> 0.40503524E-01</totfact>
</mgrwt>
</event>
<event>
 4    5  0.7176259E-008  0.1240384E+04  0.7818608E-02  0.9118832E-01
          1   -1    0    0  501    0  0.00000000000E+00  0.00000000000E+00  0.16136430177E+04  0.16136430177E+04  0.50400000000E-02 0. -1.
         -1   -1    0    0    0  501 -0.00000000000E+00 -0.00000000000E+00 -0.12312737792E+04  0.12312737792E+04  0.50400000000E-02 0.  1.
    8880023    1    1    2    0    0 -0.10454248670E+04 -0.10876736931E+03 -0.61803334206E+03  0.13858278794E+04  0.65864270000E+03 0.  1.
    8880022    1    1    2    0    0  0.10454248670E+04  0.10876736931E+03  0.10004025805E+04  0.14590889175E+04  0.15294330000E+03 0.  0.
<mgrwt>
<rscale>  0 0.11931976E+04</rscale>
<asrwt>0</asrwt>
<pdfrwt beam="1">  1        1 0.24825277E+00 0.12403845E+04</pdfrwt>
<pdfrwt beam="2">  1       -1 0.18942673E+00 0.12403845E+04</pdfrwt>
<totfact> 0.94976666E-01</totfact>
</mgrwt>
</event>
<event>
 4    5  0.7176259E-008  0.7648221E+03  0.7818608E-02  0.9792780E-01
         -1   -1    0    0    0  501 -0.00000000000E+00  0.00000000000E+00  0.36213237825E+03  0.36213237829E+03  0.50400000000E-02 0.  1.
          1   -1    0    0  501    0  0.00000000000E+00 -0.00000000000E+00 -0.16314097987E+04  0.16314097987E+04  0.50400000000E-02 0. -1.
    8880023    1    1    2    0    0  0.36966372281E+03 -0.12038001060E+03 -0.13652534613E+04  0.15648865246E+04  0.65864270000E+03 0.  0.
    8880022    1    1    2    0    0 -0.36966372281E+03  0.12038001060E+03  0.95976040870E+02  0.42865565242E+03  0.15294330000E+03 0.  0.
<mgrwt>
<rscale>  0 0.65751460E+03</rscale>
<asrwt>0</asrwt>
<pdfrwt beam="1">  1        1 0.25098612E+00 0.76482208E+03</pdfrwt>
<pdfrwt beam="2">  1       -1 0.55712675E-01 0.76482208E+03</pdfrwt>
<totfact> 0.17904343E+01</totfact>
</mgrwt>
</event>
<event>
 4    5  0.7176259E-008  0.6708457E+03  0.7818608E-02  0.1015064E+00
          1   -1    0    0  501    0  0.00000000000E+00  0.00000000000E+00  0.47834562800E+03  0.47834562802E+03  0.50400000000E-02 0. -1.
         -1   -1    0    0    0  501 -0.00000000000E+00 -0.00000000000E+00 -0.73493405223E+03  0.73493405224E+03  0.50400000000E-02 0.  1.
    8880023    1    1    2    0    0  0.28459816765E+02  0.12415213370E+03  0.21251178490E+03  0.70370105759E+03  0.65864270000E+03 0. -1.
    8880022    1    1    2    0    0 -0.28459816765E+02 -0.12415213370E+03 -0.46910020913E+03  0.50957862268E+03  0.15294330000E+03 0.  0.
<mgrwt>
<rscale>  0 0.49510798E+03</rscale>
<asrwt>0</asrwt>
<pdfrwt beam="1">  1        1 0.73591636E-01 0.67084568E+03</pdfrwt>
<pdfrwt beam="2">  1       -1 0.11306678E+00 0.67084568E+03</pdfrwt>
<totfact> 0.34722382E+01</totfact>
</mgrwt>
</event>
<event>
 4    5  0.7176259E-008  0.6619347E+03  0.7818608E-02  0.1022256E+00
          1   -1    0    0  501    0  0.00000000000E+00  0.00000000000E+00  0.13698586430E+03  0.13698586439E+03  0.50400000000E-02 0. -1.
         -1   -1    0    0    0  501 -0.00000000000E+00 -0.00000000000E+00 -0.18053365894E+04  0.18053365894E+04  0.50400000000E-02 0.  1.
    8880023    1    1    2    0    0 -0.57659566882E+02 -0.31980482516E+02 -0.71432294488E+03  0.97386593162E+03  0.65864270000E+03 0. -1.
    8880022    1    1    2    0    0  0.57659566882E+02  0.31980482516E+02 -0.95402778023E+03  0.96845652220E+03  0.15294330000E+03 0.  0.
<mgrwt>
<rscale>  0 0.46881099E+03</rscale>
<asrwt>0</asrwt>
<pdfrwt beam="1">  1        1 0.21074750E-01 0.66193473E+03</pdfrwt>
<pdfrwt beam="2">  1       -1 0.27774407E+00 0.66193473E+03</pdfrwt>
<totfact> 0.11814745E+01</totfact>
</mgrwt>
</event>
<event>
 4    5  0.7176259E-008  0.9240964E+03  0.7818608E-02  0.9488406E-01
         -1   -1    0    0    0  501 -0.00000000000E+00  0.00000000000E+00  0.14082168110E+04  0.14082168111E+04  0.50400000000E-02 0.  1.
          1   -1    0    0  501    0  0.00000000000E+00 -0.00000000000E+00 -0.10995884320E+04  0.10995884320E+04  0.50400000000E-02 0. -1.
    8880023    1    1    2    0    0 -0.61228606753E+03 -0.21271991746E+03 -0.79486329416E+03  0.12189183133E+04  0.65864270000E+03 0.  0.
    8880022    1    1    2    0    0  0.61228606753E+03  0.21271991746E+03  0.11034916732E+04  0.12888869298E+04  0.15294330000E+03 0.  0.
<mgrwt>
<rscale>  0 0.85143997E+03</rscale>
<asrwt>0</asrwt>
<pdfrwt beam="1">  1        1 0.16916745E+00 0.92409642E+03</pdfrwt>
<pdfrwt beam="2">  1       -1 0.21664874E+00 0.92409642E+03</pdfrwt>
<totfact> 0.14953707E+00</totfact>
</mgrwt>
</event>
<event>
 4    5  0.7176259E-008  0.6994798E+03  0.7818608E-02  0.9999366E-01
          1   -1    0    0  501    0  0.00000000000E+00  0.00000000000E+00  0.25199236019E+04  0.25199236019E+04  0.50400000000E-02 0. -1.
         -1   -1    0    0    0  501 -0.00000000000E+00 -0.00000000000E+00 -0.14523917612E+03  0.14523917620E+03  0.50400000000E-02 0.  1.
    8880023    1    1    2    0    0  0.15873548992E+03  0.17396789582E+03  0.22530679967E+04  0.23591497173E+04  0.65864270000E+03 0. -1.
    8880022    1    1    2    0    0 -0.15873548992E+03 -0.17396789582E+03  0.12161642902E+03  0.30601306076E+03  0.15294330000E+03 0.  0.
<mgrwt>
<rscale>  0 0.55678043E+03</rscale>
<asrwt>0</asrwt>
<pdfrwt beam="1">  1        1 0.38768052E+00 0.69947980E+03</pdfrwt>
<pdfrwt beam="2">  1       -1 0.22344491E-01 0.69947980E+03</pdfrwt>
<totfact> 0.23481981E+01</totfact>
</mgrwt>
</event>
<event>
 4    5  0.7176259E-008  0.7021217E+03  0.7818608E-02  0.9988511E-01
          1   -1    0    0  501    0  0.00000000000E+00  0.00000000000E+00  0.53435839589E+03  0.53435839591E+03  0.50400000000E-02 0. -1.
         -1   -1    0    0    0  501 -0.00000000000E+00 -0.00000000000E+00 -0.25779808537E+04  0.25779808537E+04  0.50400000000E-02 0.  1.
    8880023    1    1    2    0    0  0.21970396426E+03  0.10437840830E+03  0.29104769235E+03  0.76005503058E+03  0.65864270000E+03 0. -1.
    8880022    1    1    2    0    0 -0.21970396426E+03 -0.10437840830E+03 -0.23346701502E+04  0.23522842191E+04  0.15294330000E+03 0.  0.
<mgrwt>
<rscale>  0 0.56156897E+03</rscale>
<asrwt>0</asrwt>
<pdfrwt beam="1">  1        1 0.82208986E-01 0.70212171E+03</pdfrwt>
<pdfrwt beam="2">  1       -1 0.39661243E+00 0.70212171E+03</pdfrwt>
<totfact> 0.33078275E-01</totfact>
</mgrwt>
</event>
<event>
 4    5  0.7176259E-008  0.8894465E+03  0.7818608E-02  0.9543190E-01
         -1   -1    0    0    0  501 -0.00000000000E+00  0.00000000000E+00  0.42183485679E+03  0.42183485682E+03  0.50400000000E-02 0.  1.
          1   -1    0    0  501    0  0.00000000000E+00 -0.00000000000E+00 -0.24664528320E+04  0.24664528320E+04  0.50400000000E-02 0. -1.
    8880023    1    1    2    0    0 -0.12665449949E+03  0.58417770660E+03 -0.20882098977E+04  0.22697435402E+04  0.65864270000E+03 0.  0.
    8880022    1    1    2    0    0  0.12665449949E+03 -0.58417770660E+03  0.43591922469E+02  0.61854414866E+03  0.15294330000E+03 0.  0.
<mgrwt>
<rscale>  0 0.81173125E+03</rscale>
<asrwt>0</asrwt>
<pdfrwt beam="1">  1        1 0.37945427E+00 0.88944655E+03</pdfrwt>
<pdfrwt beam="2">  1       -1 0.64897671E-01 0.88944655E+03</pdfrwt>
<totfact> 0.35611296E+00</totfact>
</mgrwt>
</event>
<event>
 4    5  0.7176259E-008  0.7260816E+03  0.7818608E-02  0.9902520E-01
         -1   -1    0    0    0  501 -0.00000000000E+00  0.00000000000E+00  0.37911802973E+03  0.37911802976E+03  0.50400000000E-02 0.  1.
          1   -1    0    0  501    0  0.00000000000E+00 -0.00000000000E+00 -0.13080755195E+04  0.13080755195E+04  0.50400000000E-02 0. -1.
    8880023    1    1    2    0    0 -0.12733717336E+03  0.27779414790E+03 -0.10897856846E+04  0.13095141805E+04  0.65864270000E+03 0. -1.
    8880022    1    1    2    0    0  0.12733717336E+03 -0.27779414790E+03  0.16082819483E+03  0.37767936877E+03  0.15294330000E+03 0.  0.
<mgrwt>
<rscale>  0 0.60139289E+03</rscale>
<asrwt>0</asrwt>
<pdfrwt beam="1">  1        1 0.20124239E+00 0.72608164E+03</pdfrwt>
<pdfrwt beam="2">  1       -1 0.58325851E-01 0.72608164E+03</pdfrwt>
<totfact> 0.27476803E+01</totfact>
</mgrwt>
</event>
<event>
 4    5  0.7176259E-008  0.8614567E+03  0.7818608E-02  0.9590978E-01
         -1   -1    0    0    0  501 -0.00000000000E+00  0.00000000000E+00  0.12465894528E+04  0.12465894528E+04  0.50400000000E-02 0.  1.
          1   -1    0    0  501    0  0.00000000000E+00 -0.00000000000E+00 -0.24101993928E+04  0.24101993928E+04  0.50400000000E-02 0. -1.
    8880023    1    1    2    0    0 -0.12051608338E+03 -0.54200853134E+03 -0.22598468148E+04  0.24184737351E+04  0.65864270000E+03 0. -1.
    8880022    1    1    2    0    0  0.12051608338E+03  0.54200853134E+03  0.10962368748E+04  0.12383151106E+04  0.15294330000E+03 0.  0.
<mgrwt>
<rscale>  0 0.77896234E+03</rscale>
<asrwt>0</asrwt>
<pdfrwt beam="1">  1        1 0.37079991E+00 0.86145666E+03</pdfrwt>
<pdfrwt beam="2">  1       -1 0.19178299E+00 0.86145666E+03</pdfrwt>
<totfact> 0.28094260E-01</totfact>
</mgrwt>
</event>
<event>
 4    5  0.7176259E-008  0.9614660E+03  0.7818608E-02  0.9433805E-01
         -1   -1    0    0    0  501 -0.00000000000E+00  0.00000000000E+00  0.16310861436E+04  0.16310861436E+04  0.50400000000E-02 0.  1.
          1   -1    0    0  501    0  0.00000000000E+00 -0.00000000000E+00 -0.44210588397E+03  0.44210588400E+03  0.50400000000E-02 0. -1.
    8880023    1    1    2    0    0  0.64246668515E+03  0.27900387798E+03  0.52225527670E+03  0.10941514455E+04  0.65864270000E+03 0. -1.
    8880022    1    1    2    0    0 -0.64246668515E+03 -0.27900387798E+03  0.66672498291E+03  0.97904058205E+03  0.15294330000E+03 0.  1.
<mgrwt>
<rscale>  0 0.89345080E+03</rscale>
<asrwt>0</asrwt>
<pdfrwt beam="1">  1        1 0.68016290E-01 0.96146597E+03</pdfrwt>
<pdfrwt beam="2">  1       -1 0.25093633E+00 0.96146597E+03</pdfrwt>
<totfact> 0.36529495E+00</totfact>
</mgrwt>
</event>
<event>
 4    5  0.7176259E-008  0.1374421E+04  0.7818608E-02  0.9003818E-01
         -1   -1    0    0    0  501 -0.00000000000E+00  0.00000000000E+00  0.23843874227E+04  0.23843874227E+04  0.50400000000E-02 0.  1.
          1   -1    0    0  501    0  0.00000000000E+00 -0.00000000000E+00 -0.12020438110E+04  0.12020438110E+04  0.50400000000E-02 0. -1.
    8880023    1    1    2    0    0  0.24968213946E+03  0.11802038333E+04  0.17658524279E+04  0.22376923967E+04  0.65864270000E+03 0.  0.
    8880022    1    1    2    0    0 -0.24968213946E+03 -0.11802038333E+04 -0.58350881619E+03  0.13487388370E+04  0.15294330000E+03 0.  0.
<mgrwt>
<rscale>  0 0.13329739E+04</rscale>
<asrwt>0</asrwt>
<pdfrwt beam="1">  1        1 0.18492982E+00 0.13744208E+04</pdfrwt>
<pdfrwt beam="2">  1       -1 0.36682883E+00 0.13744208E+04</pdfrwt>
<totfact> 0.12332047E-01</totfact>
</mgrwt>
</event>
<event>
 4    5  0.7176259E-008  0.9945697E+03  0.7818608E-02  0.9388697E-01
          1   -1    0    0  501    0  0.00000000000E+00  0.00000000000E+00  0.16765193225E+04  0.16765193225E+04  0.50400000000E-02 0. -1.
         -1   -1    0    0    0  501 -0.00000000000E+00 -0.00000000000E+00 -0.75775711242E+03  0.75775711244E+03  0.50400000000E-02 0.  1.
    8880023    1    1    2    0    0  0.35558738766E+03 -0.65491707916E+03  0.12560242318E+04  0.16021129323E+04  0.65864270000E+03 0.  0.
    8880022    1    1    2    0    0 -0.35558738766E+03  0.65491707916E+03 -0.33726202168E+03  0.83216350264E+03  0.15294330000E+03 0.  0.
<mgrwt>
<rscale>  0 0.93011757E+03</rscale>
<asrwt>0</asrwt>
<pdfrwt beam="1">  1        1 0.25792605E+00 0.99456974E+03</pdfrwt>
<pdfrwt beam="2">  1       -1 0.11657802E+00 0.99456974E+03</pdfrwt>
<totfact> 0.33108077E+00</totfact>
</mgrwt>
</event>
<event>
 4    5  0.7176259E-008  0.6602730E+03  0.7818608E-02  0.1023878E+00
         -1   -1    0    0    0  501 -0.00000000000E+00  0.00000000000E+00  0.27724651955E+03  0.27724651960E+03  0.50400000000E-02 0.  1.
          1   -1    0    0  501    0  0.00000000000E+00 -0.00000000000E+00 -0.13396257185E+04  0.13396257185E+04  0.50400000000E-02 0. -1.
    8880023    1    1    2    0    0 -0.21803634080E+02  0.40924593277E+02 -0.12232734773E+04  0.13900929564E+04  0.65864270000E+03 0. -1.
    8880022    1    1    2    0    0  0.21803634080E+02 -0.40924593277E+02  0.16089427837E+03  0.22677928173E+03  0.15294330000E+03 0.  0.
<mgrwt>
<rscale>  0 0.46312609E+03</rscale>
<asrwt>0</asrwt>
<pdfrwt beam="1">  1        1 0.20609626E+00 0.66027299E+03</pdfrwt>
<pdfrwt beam="2">  1       -1 0.42653312E-01 0.66027299E+03</pdfrwt>
<totfact> 0.47589603E+01</totfact>
</mgrwt>
</event>
<event>
 4    5  0.7176259E-008  0.8036051E+03  0.7818608E-02  0.9703055E-01
          1   -1    0    0  501    0  0.00000000000E+00  0.00000000000E+00  0.69013753922E+03  0.69013753924E+03  0.50400000000E-02 0. -1.
         -1   -1    0    0    0  501 -0.00000000000E+00 -0.00000000000E+00 -0.69183316634E+03  0.69183316635E+03  0.50400000000E-02 0.  1.
    8880023    1    1    2    0    0  0.42397643572E+03 -0.17948497884E+03  0.24174093884E+03  0.83917802846E+03  0.65864270000E+03 0. -1.
    8880022    1    1    2    0    0 -0.42397643572E+03  0.17948497884E+03 -0.24343656596E+03  0.54279267713E+03  0.15294330000E+03 0. -1.
<mgrwt>
<rscale>  0 0.70835206E+03</rscale>
<asrwt>0</asrwt>
<pdfrwt beam="1">  1        1 0.10617501E+00 0.80360505E+03</pdfrwt>
<pdfrwt beam="2">  1       -1 0.10643587E+00 0.80360505E+03</pdfrwt>
<totfact> 0.23426112E+01</totfact>
</mgrwt>
</event>
<event>
 4    5  0.7176259E-008  0.8692857E+03  0.7818608E-02  0.9577255E-01
         -1   -1    0    0    0  501 -0.00000000000E+00  0.00000000000E+00  0.78878058147E+03  0.78878058149E+03  0.50400000000E-02 0.  1.
          1   -1    0    0  501    0  0.00000000000E+00 -0.00000000000E+00 -0.13416512232E+04  0.13416512232E+04  0.50400000000E-02 0. -1.
    8880023    1    1    2    0    0 -0.52302175807E+03  0.21976285458E+03 -0.10483248057E+04  0.13618526264E+04  0.65864270000E+03 0.  0.
    8880022    1    1    2    0    0  0.52302175807E+03 -0.21976285458E+03  0.49545416394E+03  0.76857917826E+03  0.15294330000E+03 0.  0.
<mgrwt>
<rscale>  0 0.78820088E+03</rscale>
<asrwt>0</asrwt>
<pdfrwt beam="1">  1        1 0.20640788E+00 0.86928573E+03</pdfrwt>
<pdfrwt beam="2">  1       -1 0.12135086E+00 0.86928573E+03</pdfrwt>
<totfact> 0.51954212E+00</totfact>
</mgrwt>
</event>
<event>
 4    5  0.7176259E-008  0.1505481E+04  0.7818608E-02  0.8905775E-01
          1   -1    0    0  501    0  0.00000000000E+00  0.00000000000E+00  0.17914617381E+04  0.17914617381E+04  0.50400000000E-02 0. -1.
         -1   -1    0    0    0  501 -0.00000000000E+00 -0.00000000000E+00 -0.17756918330E+04  0.17756918330E+04  0.50400000000E-02 0.  1.
    8880023    1    1    2    0    0 -0.42961214117E+03  0.12837823528E+04  0.10679273474E+04  0.18457905479E+04  0.65864270000E+03 0.  0.
    8880022    1    1    2    0    0  0.42961214117E+03 -0.12837823528E+04 -0.10521574423E+04  0.17213630232E+04  0.15294330000E+03 0.  0.
<mgrwt>
<rscale>  0 0.14683527E+04</rscale>
<asrwt>0</asrwt>
<pdfrwt beam="1">  1        1 0.27560950E+00 0.15054813E+04</pdfrwt>
<pdfrwt beam="2">  1       -1 0.27318336E+00 0.15054813E+04</pdfrwt>
<totfact> 0.19187602E-01</totfact>
</mgrwt>
</event>
<event>
 4    5  0.7176259E-008  0.1432889E+04  0.7818608E-02  0.8958540E-01
          1   -1    0    0  501    0  0.00000000000E+00  0.00000000000E+00  0.26418662747E+04  0.26418662747E+04  0.50400000000E-02 0. -1.
         -1   -1    0    0    0  501 -0.00000000000E+00 -0.00000000000E+00 -0.75397259778E+03  0.75397259779E+03  0.50400000000E-02 0.  1.
    8880023    1    1    2    0    0  0.42218856808E+03 -0.12004655080E+04  0.52784642747E+03  0.15270208512E+04  0.65864270000E+03 0.  0.
    8880022    1    1    2    0    0 -0.42218856808E+03  0.12004655080E+04  0.13600472495E+04  0.18688180213E+04  0.15294330000E+03 0.  0.
<mgrwt>
<rscale>  0 0.13934966E+04</rscale>
<asrwt>0</asrwt>
<pdfrwt beam="1">  1        1 0.40644097E+00 0.14328890E+04</pdfrwt>
<pdfrwt beam="2">  1       -1 0.11599578E+00 0.14328890E+04</pdfrwt>
<totfact> 0.69747854E-01</totfact>
</mgrwt>
</event>
<event>
 4    5  0.7176259E-008  0.6832304E+03  0.7818608E-02  0.1007552E+00
          1   -1    0    0  501    0  0.00000000000E+00  0.00000000000E+00  0.12730661015E+04  0.12730661015E+04  0.50400000000E-02 0. -1.
         -1   -1    0    0    0  501 -0.00000000000E+00 -0.00000000000E+00 -0.22600325760E+03  0.22600325766E+03  0.50400000000E-02 0.  1.
    8880023    1    1    2    0    0 -0.96666619540E+02  0.15378265021E+03  0.10601669021E+04  0.12612523956E+04  0.65864270000E+03 0. -1.
    8880022    1    1    2    0    0  0.96666619540E+02 -0.15378265021E+03 -0.13104058129E+02  0.23781696363E+03  0.15294330000E+03 0.  0.
<mgrwt>
<rscale>  0 0.52459121E+03</rscale>
<asrwt>0</asrwt>
<pdfrwt beam="1">  1        1 0.19585633E+00 0.68323037E+03</pdfrwt>
<pdfrwt beam="2">  1       -1 0.34769731E-01 0.68323037E+03</pdfrwt>
<totfact> 0.76454244E+01</totfact>
</mgrwt>
</event>
<event>
 4    5  0.7176259E-008  0.1489252E+04  0.7818608E-02  0.8917263E-01
          1   -1    0    0  501    0  0.00000000000E+00  0.00000000000E+00  0.20950142711E+04  0.20950142711E+04  0.50400000000E-02 0. -1.
         -1   -1    0    0    0  501 -0.00000000000E+00 -0.00000000000E+00 -0.16499516157E+04  0.16499516158E+04  0.50400000000E-02 0.  1.
    8880023    1    1    2    0    0  0.10893186814E+04  0.77294652181E+03  0.14406588546E+04  0.20720448009E+04  0.65864270000E+03 0.  0.
    8880022    1    1    2    0    0 -0.10893186814E+04 -0.77294652181E+03 -0.99559619922E+03  0.16729210860E+04  0.15294330000E+03 0.  0.
<mgrwt>
<rscale>  0 0.14516421E+04</rscale>
<asrwt>0</asrwt>
<pdfrwt beam="1">  1        1 0.32230989E+00 0.14892521E+04</pdfrwt>
<pdfrwt beam="2">  1       -1 0.25383871E+00 0.14892521E+04</pdfrwt>
<totfact> 0.15964463E-01</totfact>
</mgrwt>
</event>
<event>
 4    5  0.7176259E-008  0.9772568E+03  0.7818608E-02  0.9411937E-01
          1   -1    0    0  501    0  0.00000000000E+00  0.00000000000E+00  0.18956475795E+04  0.18956475795E+04  0.50400000000E-02 0. -1.
         -1   -1    0    0    0  501 -0.00000000000E+00 -0.00000000000E+00 -0.64117392974E+03  0.64117392976E+03  0.50400000000E-02 0.  1.
    8880023    1    1    2    0    0 -0.57523701232E+03 -0.43626037617E+03  0.14725247400E+04  0.17673030448E+04  0.65864270000E+03 0. -1.
    8880022    1    1    2    0    0  0.57523701232E+03  0.43626037617E+03 -0.21805109022E+03  0.76951846444E+03  0.15294330000E+03 0.  0.
<mgrwt>
<rscale>  0 0.91099812E+03</rscale>
<asrwt>0</asrwt>
<pdfrwt beam="1">  1        1 0.29163809E+00 0.97725685E+03</pdfrwt>
<pdfrwt beam="2">  1       -1 0.98642142E-01 0.97725685E+03</pdfrwt>
<totfact> 0.34941874E+00</totfact>
</mgrwt>
</event>
<event>
 4    5  0.7176259E-008  0.1041949E+04  0.7818608E-02  0.9328622E-01
         -1   -1    0    0    0  501 -0.00000000000E+00  0.00000000000E+00  0.13954269095E+04  0.13954269096E+04  0.50400000000E-02 0.  1.
          1   -1    0    0  501    0  0.00000000000E+00 -0.00000000000E+00 -0.15833206425E+04  0.15833206425E+04  0.50400000000E-02 0. -1.
    8880023    1    1    2    0    0 -0.78974563413E+03 -0.16778031169E+03 -0.12554837743E+04  0.16315324433E+04  0.65864270000E+03 0.  0.
    8880022    1    1    2    0    0  0.78974563413E+03  0.16778031169E+03  0.10675900414E+04  0.13472151087E+04  0.15294330000E+03 0.  0.
<mgrwt>
<rscale>  0 0.98189999E+03</rscale>
<asrwt>0</asrwt>
<pdfrwt beam="1">  1        1 0.24358779E+00 0.10419494E+04</pdfrwt>
<pdfrwt beam="2">  1       -1 0.21468106E+00 0.10419494E+04</pdfrwt>
<totfact> 0.68624020E-01</totfact>
</mgrwt>
</event>
<event>
 4    5  0.7176259E-008  0.8810530E+03  0.7818608E-02  0.9557159E-01
         -1   -1    0    0    0  501 -0.00000000000E+00  0.00000000000E+00  0.11505967024E+04  0.11505967024E+04  0.50400000000E-02 0.  1.
          1   -1    0    0  501    0  0.00000000000E+00 -0.00000000000E+00 -0.67523115349E+03  0.67523115351E+03  0.50400000000E-02 0. -1.
    8880023    1    1    2    0    0 -0.25199277835E+03  0.52815134720E+03  0.75423184184E+03  0.11597931209E+04  0.65864270000E+03 0.  0.
    8880022    1    1    2    0    0  0.25199277835E+03 -0.52815134720E+03 -0.27886629291E+03  0.66603473500E+03  0.15294330000E+03 0.  0.
<mgrwt>
<rscale>  0 0.80197774E+03</rscale>
<asrwt>0</asrwt>
<pdfrwt beam="1">  1        1 0.10388172E+00 0.88105301E+03</pdfrwt>
<pdfrwt beam="2">  1       -1 0.17701488E+00 0.88105301E+03</pdfrwt>
<totfact> 0.63953277E+00</totfact>
</mgrwt>
</event>
<event>
 4    5  0.7176259E-008  0.8045954E+03  0.7818608E-02  0.9700946E-01
         -1   -1    0    0    0  501 -0.00000000000E+00  0.00000000000E+00  0.90299161789E+03  0.90299161791E+03  0.50400000000E-02 0.  1.
          1   -1    0    0  501    0  0.00000000000E+00 -0.00000000000E+00 -0.17192934418E+04  0.17192934419E+04  0.50400000000E-02 0. -1.
    8880023    1    1    2    0    0 -0.89475563579E+02 -0.45338476884E+03 -0.15473276658E+04  0.17440174129E+04  0.65864270000E+03 0. -1.
    8880022    1    1    2    0    0  0.89475563579E+02  0.45338476884E+03  0.73102584180E+03  0.87826764684E+03  0.15294330000E+03 0.  0.
<mgrwt>
<rscale>  0 0.70960469E+03</rscale>
<asrwt>0</asrwt>
<pdfrwt beam="1">  1        1 0.26450668E+00 0.80459545E+03</pdfrwt>
<pdfrwt beam="2">  1       -1 0.13892179E+00 0.80459545E+03</pdfrwt>
<totfact> 0.20553844E+00</totfact>
</mgrwt>
</event>
<event>
 4    5  0.7176259E-008  0.9065519E+03  0.7818608E-02  0.9515594E-01
          1   -1    0    0  501    0  0.00000000000E+00  0.00000000000E+00  0.25597693510E+04  0.25597693510E+04  0.50400000000E-02 0. -1.
         -1   -1    0    0    0  501 -0.00000000000E+00 -0.00000000000E+00 -0.48628966881E+03  0.48628966884E+03  0.50400000000E-02 0.  1.
    8880023    1    1    2    0    0  0.59930798147E+03 -0.16987089897E+03  0.22113774209E+04  0.23899846198E+04  0.65864270000E+03 0. -1.
    8880022    1    1    2    0    0 -0.59930798147E+03  0.16987089897E+03 -0.13789773876E+03  0.65607440000E+03  0.15294330000E+03 0.  0.
<mgrwt>
<rscale>  0 0.83143806E+03</rscale>
<asrwt>0</asrwt>
<pdfrwt beam="1">  1        1 0.39381068E+00 0.90655192E+03</pdfrwt>
<pdfrwt beam="2">  1       -1 0.74813794E-01 0.90655192E+03</pdfrwt>
<totfact> 0.22892840E+00</totfact>
</mgrwt>
</event>
<event>
 4    5  0.7176259E-008  0.7961596E+03  0.7818608E-02  0.9719162E-01
         -1   -1    0    0    0  501 -0.00000000000E+00  0.00000000000E+00  0.27307070064E+03  0.27307070068E+03  0.50400000000E-02 0.  1.
          1   -1    0    0  501    0  0.00000000000E+00 -0.00000000000E+00 -0.28951382436E+04  0.28951382436E+04  0.50400000000E-02 0. -1.
    8880023    1    1    2    0    0 -0.12242862340E+03  0.43019890082E+03 -0.25725308756E+04  0.26929138817E+04  0.65864270000E+03 0. -1.
    8880022    1    1    2    0    0  0.12242862340E+03 -0.43019890082E+03 -0.49536667375E+02  0.47529506259E+03  0.15294330000E+03 0.  0.
<mgrwt>
<rscale>  0 0.69887259E+03</rscale>
<asrwt>0</asrwt>
<pdfrwt beam="1">  1        1 0.44540586E+00 0.79615957E+03</pdfrwt>
<pdfrwt beam="2">  1       -1 0.42010879E-01 0.79615957E+03</pdfrwt>
<totfact> 0.41943419E+00</totfact>
</mgrwt>
</event>
<event>
 4    5  0.7176259E-008  0.7163298E+03  0.7818608E-02  0.9935206E-01
          1   -1    0    0  501    0  0.00000000000E+00  0.00000000000E+00  0.41714694803E+03  0.41714694806E+03  0.50400000000E-02 0. -1.
         -1   -1    0    0    0  501 -0.00000000000E+00 -0.00000000000E+00 -0.90690910668E+03  0.90690910669E+03  0.50400000000E-02 0.  1.
    8880023    1    1    2    0    0 -0.14833284711E+03 -0.23940666037E+03  0.26035007698E+02  0.71680276956E+03  0.65864270000E+03 0. -1.
    8880022    1    1    2    0    0  0.14833284711E+03  0.23940666037E+03 -0.51579716634E+03  0.60725328520E+03  0.15294330000E+03 0.  0.
<mgrwt>
<rscale>  0 0.58584978E+03</rscale>
<asrwt>0</asrwt>
<pdfrwt beam="1">  1        1 0.64176454E-01 0.71632980E+03</pdfrwt>
<pdfrwt beam="2">  1       -1 0.13952448E+00 0.71632980E+03</pdfrwt>
<totfact> 0.24661188E+01</totfact>
</mgrwt>
</event>
<event>
 4    5  0.7176259E-008  0.7326275E+03  0.7818608E-02  0.9881967E-01
          1   -1    0    0  501    0  0.00000000000E+00  0.00000000000E+00  0.60771077578E+03  0.60771077580E+03  0.50400000000E-02 0. -1.
         -1   -1    0    0    0  501 -0.00000000000E+00 -0.00000000000E+00 -0.74573014488E+03  0.74573014489E+03  0.50400000000E-02 0.  1.
    8880023    1    1    2    0    0  0.81671568180E+02  0.31026219708E+03  0.29799815159E+03  0.79091464811E+03  0.65864270000E+03 0. -1.
    8880022    1    1    2    0    0 -0.81671568180E+02 -0.31026219708E+03 -0.43601752068E+03  0.56252627258E+03  0.15294330000E+03 0.  0.
<mgrwt>
<rscale>  0 0.61143231E+03</rscale>
<asrwt>0</asrwt>
<pdfrwt beam="1">  1        1 0.93493965E-01 0.73262752E+03</pdfrwt>
<pdfrwt beam="2">  1       -1 0.11472771E+00 0.73262752E+03</pdfrwt>
<totfact> 0.23845366E+01</totfact>
</mgrwt>
</event>
<event>
 4    5  0.7176259E-008  0.8379948E+03  0.7818608E-02  0.9633973E-01
         -1   -1    0    0    0  501 -0.00000000000E+00  0.00000000000E+00  0.13920323987E+04  0.13920323987E+04  0.50400000000E-02 0.  1.
          1   -1    0    0  501    0  0.00000000000E+00 -0.00000000000E+00 -0.72258940956E+03  0.72258940958E+03  0.50400000000E-02 0. -1.
    8880023    1    1    2    0    0 -0.20071158138E+03 -0.47763990432E+03 -0.39083962752E+03  0.92465714608E+03  0.65864270000E+03 0.  0.
    8880022    1    1    2    0    0  0.20071158138E+03  0.47763990432E+03  0.10602826167E+04  0.11899646622E+04  0.15294330000E+03 0.  0.
<mgrwt>
<rscale>  0 0.75087862E+03</rscale>
<asrwt>0</asrwt>
<pdfrwt beam="1">  1        1 0.11116760E+00 0.83799476E+03</pdfrwt>
<pdfrwt beam="2">  1       -1 0.21415883E+00 0.83799476E+03</pdfrwt>
<totfact> 0.32086427E+00</totfact>
</mgrwt>
</event>
<event>
 4    5  0.8250924E-008  0.7377163E+03  0.7818608E-02  0.9866650E-01
          1   -1    0    0  501    0  0.00000000000E+00  0.00000000000E+00  0.18420767995E+04  0.18420767995E+04  0.50400000000E-02 0. -1.
         -1   -1    0    0    0  501 -0.00000000000E+00 -0.00000000000E+00 -0.10601965757E+04  0.10601965757E+04  0.50400000000E-02 0.  1.
    8880023    1    1    2    0    0 -0.25372215210E+03  0.21456993852E+03  0.17328662461E+04  0.18833615750E+04  0.65864270000E+03 0.  0.
    8880022    1    1    2    0    0  0.25372215210E+03 -0.21456993852E+03 -0.95098602229E+03  0.10189118002E+04  0.15294330000E+03 0.  0.
<mgrwt>
<rscale>  0 0.61905159E+03</rscale>
<asrwt>0</asrwt>
<pdfrwt beam="1">  1        1 0.28339643E+00 0.73771634E+03</pdfrwt>
<pdfrwt beam="2">  1       -1 0.16310717E+00 0.73771634E+03</pdfrwt>
<totfact> 0.11177756E+00</totfact>
</mgrwt>
</event>
<event>
 4    5  0.7176259E-008  0.1026836E+04  0.7818608E-02  0.9347260E-01
         -1   -1    0    0    0  501 -0.00000000000E+00  0.00000000000E+00  0.22564437135E+04  0.22564437135E+04  0.50400000000E-02 0.  1.
          1   -1    0    0  501    0  0.00000000000E+00 -0.00000000000E+00 -0.20838946114E+04  0.20838946114E+04  0.50400000000E-02 0. -1.
    8880023    1    1    2    0    0 -0.46316177555E+03 -0.63723148543E+03 -0.18768743613E+04  0.21394042092E+04  0.65864270000E+03 0. -1.
    8880022    1    1    2    0    0  0.46316177555E+03  0.63723148543E+03  0.20494234633E+04  0.22009341156E+04  0.15294330000E+03 0.  0.
<mgrwt>
<rscale>  0 0.96546053E+03</rscale>
<asrwt>0</asrwt>
<pdfrwt beam="1">  1        1 0.32059917E+00 0.10268364E+04</pdfrwt>
<pdfrwt beam="2">  1       -1 0.34714519E+00 0.10268364E+04</pdfrwt>
<totfact> 0.43435378E-02</totfact>
</mgrwt>
</event>
<event>
 4    5  0.7176259E-008  0.7224479E+03  0.7818608E-02  0.9914389E-01
         -1   -1    0    0    0  501 -0.00000000000E+00  0.00000000000E+00  0.39341793317E+03  0.39341793320E+03  0.50400000000E-02 0.  1.
          1   -1    0    0  501    0  0.00000000000E+00 -0.00000000000E+00 -0.79193076572E+03  0.79193076574E+03  0.50400000000E-02 0. -1.
    8880023    1    1    2    0    0 -0.29564944572E+03 -0.26685426838E+02 -0.44453384012E+03  0.84825777216E+03  0.65864270000E+03 0.  0.
    8880022    1    1    2    0    0  0.29564944572E+03  0.26685426838E+02  0.46021007560E+02  0.33709092677E+03  0.15294330000E+03 0.  0.
<mgrwt>
<rscale>  0 0.59568993E+03</rscale>
<asrwt>0</asrwt>
<pdfrwt beam="1">  1        1 0.12183550E+00 0.72244786E+03</pdfrwt>
<pdfrwt beam="2">  1       -1 0.60525836E-01 0.72244786E+03</pdfrwt>
<totfact> 0.63694492E+01</totfact>
</mgrwt>
</event>
<event>
 4    5  0.7176259E-008  0.9454027E+03  0.7818608E-02  0.9456760E-01
         -1   -1    0    0    0  501 -0.00000000000E+00  0.00000000000E+00  0.10016310788E+04  0.10016310788E+04  0.50400000000E-02 0.  1.
          1   -1    0    0  501    0  0.00000000000E+00 -0.00000000000E+00 -0.13947452930E+04  0.13947452930E+04  0.50400000000E-02 0. -1.
    8880023    1    1    2    0    0  0.67200782026E+03 -0.91551016425E+02 -0.10687692095E+04  0.14269036157E+04  0.65864270000E+03 0.  0.
    8880022    1    1    2    0    0 -0.67200782026E+03  0.91551016425E+02  0.67565499532E+03  0.96947275609E+03  0.15294330000E+03 0.  0.
<mgrwt>
<rscale>  0 0.87548225E+03</rscale>
<asrwt>0</asrwt>
<pdfrwt beam="1">  1        1 0.21457620E+00 0.94540272E+03</pdfrwt>
<pdfrwt beam="2">  1       -1 0.15409709E+00 0.94540272E+03</pdfrwt>
<totfact> 0.25435231E+00</totfact>
</mgrwt>
</event>
<event>
 4    5  0.7176259E-008  0.7884495E+03  0.7818608E-02  0.9736351E-01
         -1   -1    0    0    0  501 -0.00000000000E+00  0.00000000000E+00  0.39713034373E+03  0.39713034377E+03  0.50400000000E-02 0.  1.
          1   -1    0    0  501    0  0.00000000000E+00 -0.00000000000E+00 -0.18534978771E+04  0.18534978771E+04  0.50400000000E-02 0. -1.
    8880023    1    1    2    0    0  0.42742106237E+03  0.71789261106E+02 -0.15876452996E+04  0.17726449916E+04  0.65864270000E+03 0.  0.
    8880022    1    1    2    0    0 -0.42742106237E+03 -0.71789261106E+02  0.13127776623E+03  0.47798322930E+03  0.15294330000E+03 0.  0.
<mgrwt>
<rscale>  0 0.68893133E+03</rscale>
<asrwt>0</asrwt>
<pdfrwt beam="1">  1        1 0.28515352E+00 0.78844953E+03</pdfrwt>
<pdfrwt beam="2">  1       -1 0.61096977E-01 0.78844953E+03</pdfrwt>
<totfact> 0.10559719E+01</totfact>
</mgrwt>
</event>
<event>
 4    5  0.7176259E-008  0.8464692E+03  0.7818608E-02  0.9618101E-01
         -1   -1    0    0    0  501 -0.00000000000E+00  0.00000000000E+00  0.99152364292E+03  0.99152364293E+03  0.50400000000E-02 0.  1.
          1   -1    0    0  501    0  0.00000000000E+00 -0.00000000000E+00 -0.10749408336E+04  0.10749408336E+04  0.50400000000E-02 0. -1.
    8880023    1    1    2    0    0  0.46566855157E+03  0.25661772804E+03 -0.79760617891E+03  0.11630501628E+04  0.65864270000E+03 0. -1.
    8880022    1    1    2    0    0 -0.46566855157E+03 -0.25661772804E+03  0.71418898826E+03  0.90341431372E+03  0.15294330000E+03 0.  0.
<mgrwt>
<rscale>  0 0.76109658E+03</rscale>
<asrwt>0</asrwt>
<pdfrwt beam="1">  1        1 0.16537551E+00 0.84646918E+03</pdfrwt>
<pdfrwt beam="2">  1       -1 0.15254210E+00 0.84646918E+03</pdfrwt>
<totfact> 0.45162289E+00</totfact>
</mgrwt>
</event>
<event>
 4    5  0.7176259E-008  0.1009723E+04  0.7818608E-02  0.9368947E-01
          1   -1    0    0  501    0  0.00000000000E+00  0.00000000000E+00  0.99152476758E+03  0.99152476759E+03  0.50400000000E-02 0. -1.
         -1   -1    0    0    0  501 -0.00000000000E+00 -0.00000000000E+00 -0.94567079713E+03  0.94567079715E+03  0.50400000000E-02 0.  1.
    8880023    1    1    2    0    0 -0.50928367278E+03  0.57127892120E+03 -0.34148208699E+03  0.10659032260E+04  0.65864270000E+03 0.  0.
    8880022    1    1    2    0    0  0.50928367278E+03 -0.57127892120E+03  0.38733605744E+03  0.87129233876E+03  0.15294330000E+03 0.  0.
<mgrwt>
<rscale>  0 0.94675914E+03</rscale>
<asrwt>0</asrwt>
<pdfrwt beam="1">  1        1 0.15254227E+00 0.10097226E+04</pdfrwt>
<pdfrwt beam="2">  1       -1 0.14548781E+00 0.10097226E+04</pdfrwt>
<totfact> 0.58266358E+00</totfact>
</mgrwt>
</event>
<event>
 4    5  0.7444007E-008  0.9721757E+03  0.7818608E-02  0.9418901E-01
         -1   -1    0    0    0  501 -0.00000000000E+00  0.00000000000E+00  0.99284535647E+03  0.99284535648E+03  0.50400000000E-02 0.  1.
          1   -1    0    0  501    0  0.00000000000E+00 -0.00000000000E+00 -0.19579390003E+04  0.19579390003E+04  0.50400000000E-02 0. -1.
    8880023    1    1    2    0    0  0.20975133253E+03  0.68360791644E+03 -0.16717606473E+04  0.19338845035E+04  0.65864270000E+03 0.  0.
    8880022    1    1    2    0    0 -0.20975133253E+03 -0.68360791644E+03  0.70666700341E+03  0.10168998533E+04  0.15294330000E+03 0.  0.
<mgrwt>
<rscale>  0 0.90536367E+03</rscale>
<asrwt>0</asrwt>
<pdfrwt beam="1">  1        1 0.30122138E+00 0.97217571E+03</pdfrwt>
<pdfrwt beam="2">  1       -1 0.15274544E+00 0.97217571E+03</pdfrwt>
<totfact> 0.10729757E+00</totfact>
</mgrwt>
</event>
<event>
 4    5  0.7176259E-008  0.8784031E+03  0.7818608E-02  0.9561631E-01
          1   -1    0    0  501    0  0.00000000000E+00  0.00000000000E+00  0.18935406892E+04  0.18935406892E+04  0.50400000000E-02 0. -1.
         -1   -1    0    0    0  501 -0.00000000000E+00 -0.00000000000E+00 -0.74027837565E+03  0.74027837566E+03  0.50400000000E-02 0.  1.
    8880023    1    1    2    0    0 -0.52507769514E+02  0.57881322636E+03  0.16400200372E+04  0.18604455771E+04  0.65864270000E+03 0.  0.
    8880022    1    1    2    0    0  0.52507769514E+02 -0.57881322636E+03 -0.48675772369E+03  0.77337348768E+03  0.15294330000E+03 0.  0.
<mgrwt>
<rscale>  0 0.79888613E+03</rscale>
<asrwt>0</asrwt>
<pdfrwt beam="1">  1        1 0.29131395E+00 0.87840311E+03</pdfrwt>
<pdfrwt beam="2">  1       -1 0.11388898E+00 0.87840311E+03</pdfrwt>
<totfact> 0.25421870E+00</totfact>
</mgrwt>
</event>
<event>
 4    5  0.7176259E-008  0.1226210E+04  0.7818608E-02  0.9132056E-01
         -1   -1    0    0    0  501 -0.00000000000E+00  0.00000000000E+00  0.99993899886E+03  0.99993899887E+03  0.50400000000E-02 0.  1.
          1   -1    0    0  501    0  0.00000000000E+00 -0.00000000000E+00 -0.23548073793E+04  0.23548073793E+04  0.50400000000E-02 0. -1.
    8880023    1    1    2    0    0 -0.10132978437E+04 -0.20738209459E+03 -0.18327828168E+04  0.22051491816E+04  0.65864270000E+03 0.  0.
    8880022    1    1    2    0    0  0.10132978437E+04  0.20738209459E+03  0.47791443632E+03  0.11495971967E+04  0.15294330000E+03 0.  0.
<mgrwt>
<rscale>  0 0.11783100E+04</rscale>
<asrwt>0</asrwt>
<pdfrwt beam="1">  1        1 0.36227806E+00 0.12262096E+04</pdfrwt>
<pdfrwt beam="2">  1       -1 0.15383677E+00 0.12262096E+04</pdfrwt>
<totfact> 0.54583598E-01</totfact>
</mgrwt>
</event>
<event>
 4    5  0.7176259E-008  0.8463351E+03  0.7818608E-02  0.9618349E-01
          1   -1    0    0  501    0  0.00000000000E+00  0.00000000000E+00  0.34676141678E+04  0.34676141678E+04  0.50400000000E-02 0. -1.
         -1   -1    0    0    0  501 -0.00000000000E+00 -0.00000000000E+00 -0.16963704785E+04  0.16963704785E+04  0.50400000000E-02 0.  1.
    8880023    1    1    2    0    0 -0.30687322141E+03 -0.43393755831E+03  0.33687596782E+04  0.34734456889E+04  0.65864270000E+03 0.  0.
    8880022    1    1    2    0    0  0.30687322141E+03  0.43393755831E+03 -0.15975159889E+04  0.16905389574E+04  0.15294330000E+03 0.  0.
<mgrwt>
<rscale>  0 0.76093567E+03</rscale>
<asrwt>0</asrwt>
<pdfrwt beam="1">  1        1 0.53347909E+00 0.84633515E+03</pdfrwt>
<pdfrwt beam="2">  1       -1 0.26098008E+00 0.84633515E+03</pdfrwt>
<totfact> 0.17067905E-02</totfact>
</mgrwt>
</event>
<event>
 4    5  0.7176259E-008  0.8970473E+03  0.7818608E-02  0.9530788E-01
          1   -1    0    0  501    0  0.00000000000E+00  0.00000000000E+00  0.19801921884E+04  0.19801921884E+04  0.50400000000E-02 0. -1.
         -1   -1    0    0    0  501 -0.00000000000E+00 -0.00000000000E+00 -0.43520451509E+03  0.43520451511E+03  0.50400000000E-02 0.  1.
    8880023    1    1    2    0    0 -0.12213519164E+03  0.59662940294E+03  0.15460915406E+04  0.17874822818E+04  0.65864270000E+03 0.  0.
    8880022    1    1    2    0    0  0.12213519164E+03 -0.59662940294E+03 -0.11038672903E+01  0.62791442174E+03  0.15294330000E+03 0.  0.
<mgrwt>
<rscale>  0 0.82051487E+03</rscale>
<asrwt>0</asrwt>
<pdfrwt beam="1">  1        1 0.30464495E+00 0.89704730E+03</pdfrwt>
<pdfrwt beam="2">  1       -1 0.66954541E-01 0.89704730E+03</pdfrwt>
<totfact> 0.71170038E+00</totfact>
</mgrwt>
</event>
<event>
 4    5  0.7176259E-008  0.6989490E+03  0.7818608E-02  0.1000159E+00
         -1   -1    0    0    0  501 -0.00000000000E+00  0.00000000000E+00  0.99303612959E+03  0.99303612960E+03  0.50400000000E-02 0.  1.
          1   -1    0    0  501    0  0.00000000000E+00 -0.00000000000E+00 -0.58034048510E+03  0.58034048512E+03  0.50400000000E-02 0. -1.
    8880023    1    1    2    0    0  0.44179441743E+02 -0.22971208261E+03 -0.33505113515E+03  0.77510575627E+03  0.65864270000E+03 0. -1.
    8880022    1    1    2    0    0 -0.44179441743E+02  0.22971208261E+03  0.74774677964E+03  0.79827085845E+03  0.15294330000E+03 0.  0.
<mgrwt>
<rscale>  0 0.55580597E+03</rscale>
<asrwt>0</asrwt>
<pdfrwt beam="1">  1        1 0.89283152E-01 0.69894898E+03</pdfrwt>
<pdfrwt beam="2">  1       -1 0.15277479E+00 0.69894898E+03</pdfrwt>
<totfact> 0.12356618E+01</totfact>
</mgrwt>
</event>
<event>
 4    5  0.7176259E-008  0.7194195E+03  0.7818608E-02  0.9924555E-01
         -1   -1    0    0    0  501 -0.00000000000E+00  0.00000000000E+00  0.37452175091E+03  0.37452175094E+03  0.50400000000E-02 0.  1.
          1   -1    0    0  501    0  0.00000000000E+00 -0.00000000000E+00 -0.33726255418E+04  0.33726255418E+04  0.50400000000E-02 0. -1.
    8880023    1    1    2    0    0 -0.27387814974E+03 -0.93514521433E+02 -0.32534236465E+04  0.33320158818E+04  0.65864270000E+03 0.  0.
    8880022    1    1    2    0    0  0.27387814974E+03  0.93514521433E+02  0.25531985565E+03  0.41513141091E+03  0.15294330000E+03 0.  1.
<mgrwt>
<rscale>  0 0.59085862E+03</rscale>
<asrwt>0</asrwt>
<pdfrwt beam="1">  1        1 0.51886545E+00 0.71941950E+03</pdfrwt>
<pdfrwt beam="2">  1       -1 0.57618733E-01 0.71941950E+03</pdfrwt>
<totfact> 0.10498537E+00</totfact>
</mgrwt>
</event>
<event>
 4    5  0.7176259E-008  0.8279591E+03  0.7818608E-02  0.9653316E-01
          1   -1    0    0  501    0  0.00000000000E+00  0.00000000000E+00  0.83533872255E+03  0.83533872257E+03  0.50400000000E-02 0. -1.
         -1   -1    0    0    0  501 -0.00000000000E+00 -0.00000000000E+00 -0.63971380679E+03  0.63971380681E+03  0.50400000000E-02 0.  1.
    8880023    1    1    2    0    0 -0.45493447257E+03  0.21152002502E+03  0.39062303008E+03  0.91547946630E+03  0.65864270000E+03 0. -1.
    8880022    1    1    2    0    0  0.45493447257E+03 -0.21152002502E+03 -0.19499811432E+03  0.55957306308E+03  0.15294330000E+03 0.  0.
<mgrwt>
<rscale>  0 0.73865654E+03</rscale>
<asrwt>0</asrwt>
<pdfrwt beam="1">  1        1 0.12851365E+00 0.82795912E+03</pdfrwt>
<pdfrwt beam="2">  1       -1 0.98417509E-01 0.82795912E+03</pdfrwt>
<totfact> 0.20756055E+01</totfact>
</mgrwt>
</event>
<event>
 4    5  0.7176259E-008  0.1072237E+04  0.7818608E-02  0.9292615E-01
          1   -1    0    0  501    0  0.00000000000E+00  0.00000000000E+00  0.17175197458E+04  0.17175197458E+04  0.50400000000E-02 0. -1.
         -1   -1    0    0    0  501 -0.00000000000E+00 -0.00000000000E+00 -0.84786753574E+03  0.84786753575E+03  0.50400000000E-02 0.  1.
    8880023    1    1    2    0    0  0.61348928622E+03 -0.58267675053E+03  0.12312045514E+04  0.16326531026E+04  0.65864270000E+03 0.  0.
    8880022    1    1    2    0    0 -0.61348928622E+03  0.58267675053E+03 -0.36155234137E+03  0.93273417889E+03  0.15294330000E+03 0.  0.
<mgrwt>
<rscale>  0 0.10146555E+04</rscale>
<asrwt>0</asrwt>
<pdfrwt beam="1">  1        1 0.26423380E+00 0.10722367E+04</pdfrwt>
<pdfrwt beam="2">  1       -1 0.13044116E+00 0.10722367E+04</pdfrwt>
<totfact> 0.23263478E+00</totfact>
</mgrwt>
</event>
<event>
 4    5  0.7176259E-008  0.1012737E+04  0.7818608E-02  0.9365080E-01
          1   -1    0    0  501    0  0.00000000000E+00  0.00000000000E+00  0.94519448115E+03  0.94519448117E+03  0.50400000000E-02 0. -1.
         -1   -1    0    0    0  501 -0.00000000000E+00 -0.00000000000E+00 -0.94224726957E+03  0.94224726959E+03  0.50400000000E-02 0.  1.
    8880023    1    1    2    0    0  0.23744144087E+03 -0.73174277768E+03  0.28800169649E+03  0.10528917865E+04  0.65864270000E+03 0.  1.
    8880022    1    1    2    0    0 -0.23744144087E+03  0.73174277768E+03 -0.28505448491E+03  0.83454996430E+03  0.15294330000E+03 0.  1.
<mgrwt>
<rscale>  0 0.95006011E+03</rscale>
<asrwt>0</asrwt>
<pdfrwt beam="1">  1        1 0.14541454E+00 0.10127370E+04</pdfrwt>
<pdfrwt beam="2">  1       -1 0.14496112E+00 0.10127370E+04</pdfrwt>
<totfact> 0.64005402E+00</totfact>
</mgrwt>
</event>
<event>
 4    5  0.7176259E-008  0.9301107E+03  0.7818608E-02  0.9479327E-01
         -1   -1    0    0    0  501 -0.00000000000E+00  0.00000000000E+00  0.46724661656E+03  0.46724661659E+03  0.50400000000E-02 0.  1.
          1   -1    0    0  501    0  0.00000000000E+00 -0.00000000000E+00 -0.20251570627E+04  0.20251570627E+04  0.50400000000E-02 0. -1.
    8880023    1    1    2    0    0  0.24019161890E+03  0.61123134453E+03 -0.15621548406E+04  0.18180851802E+04  0.65864270000E+03 0.  0.
    8880022    1    1    2    0    0 -0.24019161890E+03 -0.61123134453E+03  0.42443944251E+01  0.67431849910E+03  0.15294330000E+03 0.  0.
<mgrwt>
<rscale>  0 0.85825256E+03</rscale>
<asrwt>0</asrwt>
<pdfrwt beam="1">  1        1 0.31156262E+00 0.93011073E+03</pdfrwt>
<pdfrwt beam="2">  1       -1 0.71884096E-01 0.93011073E+03</pdfrwt>
<totfact> 0.57137203E+00</totfact>
</mgrwt>
</event>
<event>
 4    5  0.7176259E-008  0.8782021E+03  0.7818608E-02  0.9561971E-01
          1   -1    0    0  501    0  0.00000000000E+00  0.00000000000E+00  0.95892487365E+03  0.95892487367E+03  0.50400000000E-02 0. -1.
         -1   -1    0    0    0  501 -0.00000000000E+00 -0.00000000000E+00 -0.77056183893E+03  0.77056183895E+03  0.50400000000E-02 0.  1.
    8880023    1    1    2    0    0  0.19744086714E+03 -0.54630192107E+03  0.54243218492E+03  0.10322168215E+04  0.65864270000E+03 0.  0.
    8880022    1    1    2    0    0 -0.19744086714E+03  0.54630192107E+03 -0.35406915020E+03  0.69726989116E+03  0.15294330000E+03 0.  0.
<mgrwt>
<rscale>  0 0.79865133E+03</rscale>
<asrwt>0</asrwt>
<pdfrwt beam="1">  1        1 0.14752690E+00 0.87820208E+03</pdfrwt>
<pdfrwt beam="2">  1       -1 0.11854797E+00 0.87820208E+03</pdfrwt>
<totfact> 0.10560926E+01</totfact>
</mgrwt>
</event>
<event>
 4    5  0.7176259E-008  0.1028334E+04  0.7818608E-02  0.9345392E-01
         -1   -1    0    0    0  501 -0.00000000000E+00  0.00000000000E+00  0.30810038110E+04  0.30810038110E+04  0.50400000000E-02 0.  1.
          1   -1    0    0  501    0  0.00000000000E+00 -0.00000000000E+00 -0.10189401415E+04  0.10189401415E+04  0.50400000000E-02 0. -1.
    8880023    1    1    2    0    0  0.62191372738E+03 -0.48670656269E+03 -0.68627800467E+03  0.12363040356E+04  0.65864270000E+03 0. -1.
    8880022    1    1    2    0    0 -0.62191372738E+03  0.48670656269E+03  0.27483416742E+04  0.28636399169E+04  0.15294330000E+03 0.  0.
<mgrwt>
<rscale>  0 0.96709227E+03</rscale>
<asrwt>0</asrwt>
<pdfrwt beam="1">  1        1 0.15676002E+00 0.10283337E+04</pdfrwt>
<pdfrwt beam="2">  1       -1 0.47400059E+00 0.10283337E+04</pdfrwt>
<totfact> 0.33029568E-02</totfact>
</mgrwt>
</event>
<event>
 4    5  0.7176259E-008  0.1560702E+04  0.7818608E-02  0.8867921E-01
          1   -1    0    0  501    0  0.00000000000E+00  0.00000000000E+00  0.18718545275E+04  0.18718545275E+04  0.50400000000E-02 0. -1.
         -1   -1    0    0    0  501 -0.00000000000E+00 -0.00000000000E+00 -0.13264066764E+04  0.13264066764E+04  0.50400000000E-02 0.  1.
    8880023    1    1    2    0    0 -0.12308265152E+04  0.69788621596E+03 -0.22999442852E+03  0.15775572016E+04  0.65864270000E+03 0.  1.
    8880022    1    1    2    0    0  0.12308265152E+04 -0.69788621596E+03  0.77544227960E+03  0.16207040023E+04  0.15294330000E+03 0.  0.
<mgrwt>
<rscale>  0 0.15251163E+04</rscale>
<asrwt>0</asrwt>
<pdfrwt beam="1">  1        1 0.28797762E+00 0.15607015E+04</pdfrwt>
<pdfrwt beam="2">  1       -1 0.20406257E+00 0.15607015E+04</pdfrwt>
<totfact> 0.48269187E-01</totfact>
</mgrwt>
</event>
<event>
 4    5  0.7176259E-008  0.1088055E+04  0.7818608E-02  0.9274473E-01
          1   -1    0    0  501    0  0.00000000000E+00  0.00000000000E+00  0.26862672360E+04  0.26862672360E+04  0.50400000000E-02 0. -1.
         -1   -1    0    0    0  501 -0.00000000000E+00 -0.00000000000E+00 -0.11769486213E+04  0.11769486213E+04  0.50400000000E-02 0.  1.
    8880023    1    1    2    0    0 -0.70663998927E+03  0.50071386264E+03  0.23854178659E+04  0.26218472587E+04  0.65864270000E+03 0.  0.
    8880022    1    1    2    0    0  0.70663998927E+03 -0.50071386264E+03 -0.87609925124E+03  0.12413685986E+04  0.15294330000E+03 0.  0.
<mgrwt>
<rscale>  0 0.10316729E+04</rscale>
<asrwt>0</asrwt>
<pdfrwt beam="1">  1        1 0.41327188E+00 0.10880554E+04</pdfrwt>
<pdfrwt beam="2">  1       -1 0.18106902E+00 0.10880554E+04</pdfrwt>
<totfact> 0.20647300E-01</totfact>
</mgrwt>
</event>
<event>
 4    5  0.7176259E-008  0.8688581E+03  0.7818608E-02  0.9577997E-01
         -1   -1    0    0    0  501 -0.00000000000E+00  0.00000000000E+00  0.83870013802E+03  0.83870013804E+03  0.50400000000E-02 0.  1.
          1   -1    0    0  501    0  0.00000000000E+00 -0.00000000000E+00 -0.12635784405E+04  0.12635784405E+04  0.50400000000E-02 0. -1.
    8880023    1    1    2    0    0  0.44842065075E+03  0.34644363782E+03  0.50329186388E+03  0.10041001846E+04  0.65864270000E+03 0.  0.
    8880022    1    1    2    0    0 -0.44842065075E+03 -0.34644363782E+03 -0.92817016637E+03  0.10981783940E+04  0.15294330000E+03 0.  0.
<mgrwt>
<rscale>  0 0.78769787E+03</rscale>
<asrwt>0</asrwt>
<pdfrwt beam="1">  1        1 0.19439668E+00 0.86885815E+03</pdfrwt>
<pdfrwt beam="2">  1       -1 0.12903079E+00 0.86885815E+03</pdfrwt>
<totfact> 0.50673279E+00</totfact>
</mgrwt>
</event>
<event>
 4    5  0.7831880E-008  0.1052726E+04  0.7818608E-02  0.9315612E-01
         -1   -1    0    0    0  501 -0.00000000000E+00  0.00000000000E+00  0.11039092149E+04  0.11039092149E+04  0.50400000000E-02 0.  1.
          1   -1    0    0  501    0  0.00000000000E+00 -0.00000000000E+00 -0.21034279711E+04  0.21034279711E+04  0.50400000000E-02 0. -1.
    8880023    1    1    2    0    0  0.69871080689E+03 -0.43153797781E+03 -0.17774782902E+04  0.20658318170E+04  0.65864270000E+03 0.  0.
    8880022    1    1    2    0    0 -0.69871080689E+03  0.43153797781E+03  0.77795953393E+03  0.11415053690E+04  0.15294330000E+03 0.  0.
<mgrwt>
<rscale>  0 0.99358249E+03</rscale>
<asrwt>0</asrwt>
<pdfrwt beam="1">  1        1 0.32360430E+00 0.10527260E+04</pdfrwt>
<pdfrwt beam="2">  1       -1 0.16983219E+00 0.10527260E+04</pdfrwt>
<totfact> 0.62811828E-01</totfact>
</mgrwt>
</event>
<event>
 4    5  0.7717299E-008  0.1201339E+04  0.7818608E-02  0.9155822E-01
         -1   -1    0    0    0  501 -0.00000000000E+00  0.00000000000E+00  0.15569044273E+04  0.15569044273E+04  0.50400000000E-02 0.  1.
          1   -1    0    0  501    0  0.00000000000E+00 -0.00000000000E+00 -0.22908993033E+04  0.22908993033E+04  0.50400000000E-02 0. -1.
    8880023    1    1    2    0    0  0.10031727852E+04  0.55217225731E+02 -0.19330954138E+04  0.22759772987E+04  0.65864270000E+03 0.  0.
    8880022    1    1    2    0    0 -0.10031727852E+04 -0.55217225731E+02  0.11991005379E+04  0.15718264319E+04  0.15294330000E+03 0.  0.
<mgrwt>
<rscale>  0 0.11521286E+04</rscale>
<asrwt>0</asrwt>
<pdfrwt beam="1">  1        1 0.35244605E+00 0.12013387E+04</pdfrwt>
<pdfrwt beam="2">  1       -1 0.23952376E+00 0.12013387E+04</pdfrwt>
<totfact> 0.15176208E-01</totfact>
</mgrwt>
</event>
<event>
 4    5  0.7176259E-008  0.6614197E+03  0.7818608E-02  0.1022747E+00
          1   -1    0    0  501    0  0.00000000000E+00  0.00000000000E+00  0.38885043949E+03  0.38885043952E+03  0.50400000000E-02 0. -1.
         -1   -1    0    0    0  501 -0.00000000000E+00 -0.00000000000E+00 -0.69699758060E+03  0.69699758061E+03  0.50400000000E-02 0.  1.
    8880023    1    1    2    0    0  0.59888050772E+02 -0.89041180644E+01  0.78117894898E+02  0.66601687194E+03  0.65864270000E+03 0. -1.
    8880022    1    1    2    0    0 -0.59888050772E+02  0.89041180644E+01 -0.38626503600E+03  0.41983114820E+03  0.15294330000E+03 0.  0.
<mgrwt>
<rscale>  0 0.46708277E+03</rscale>
<asrwt>0</asrwt>
<pdfrwt beam="1">  1        1 0.59823144E-01 0.66141974E+03</pdfrwt>
<pdfrwt beam="2">  1       -1 0.10723040E+00 0.66141974E+03</pdfrwt>
<totfact> 0.51922250E+01</totfact>
</mgrwt>
</event>
<event>
 4    5  0.7176259E-008  0.1566801E+04  0.7818608E-02  0.8863851E-01
          1   -1    0    0  501    0  0.00000000000E+00  0.00000000000E+00  0.27429632177E+04  0.27429632177E+04  0.50400000000E-02 0. -1.
         -1   -1    0    0    0  501 -0.00000000000E+00 -0.00000000000E+00 -0.23065215849E+04  0.23065215849E+04  0.50400000000E-02 0.  1.
    8880023    1    1    2    0    0  0.46064803926E+03  0.13449384582E+04  0.22489280393E+04  0.27409019692E+04  0.65864270000E+03 0.  0.
    8880022    1    1    2    0    0 -0.46064803926E+03 -0.13449384582E+04 -0.18124864064E+04  0.23085828335E+04  0.15294330000E+03 0.  0.
<mgrwt>
<rscale>  0 0.15313781E+04</rscale>
<asrwt>0</asrwt>
<pdfrwt beam="1">  1        1 0.42199434E+00 0.15668013E+04</pdfrwt>
<pdfrwt beam="2">  1       -1 0.35484948E+00 0.15668013E+04</pdfrwt>
<totfact> 0.12348897E-02</totfact>
</mgrwt>
</event>
<event>
 4    5  0.7176259E-008  0.6812613E+03  0.7818608E-02  0.1008619E+00
          1   -1    0    0  501    0  0.00000000000E+00  0.00000000000E+00  0.11299443505E+04  0.11299443505E+04  0.50400000000E-02 0. -1.
         -1   -1    0    0    0  501 -0.00000000000E+00 -0.00000000000E+00 -0.36055611982E+03  0.36055611985E+03  0.50400000000E-02 0.  1.
    8880023    1    1    2    0    0 -0.13802924393E+03  0.10608800855E+03  0.96909256857E+03  0.11845916387E+04  0.65864270000E+03 0. -1.
    8880022    1    1    2    0    0  0.13802924393E+03 -0.10608800855E+03 -0.19970433786E+03  0.30590883170E+03  0.15294330000E+03 0.  0.
<mgrwt>
<rscale>  0 0.52027199E+03</rscale>
<asrwt>0</asrwt>
<pdfrwt beam="1">  1        1 0.17383759E+00 0.68126129E+03</pdfrwt>
<pdfrwt beam="2">  1       -1 0.55470173E-01 0.68126129E+03</pdfrwt>
<totfact> 0.40919760E+01</totfact>
</mgrwt>
</event>
<event>
 4    5  0.7176259E-008  0.8193770E+03  0.7818608E-02  0.9670366E-01
          1   -1    0    0  501    0  0.00000000000E+00  0.00000000000E+00  0.10429289887E+04  0.10429289887E+04  0.50400000000E-02 0. -1.
         -1   -1    0    0    0  501 -0.00000000000E+00 -0.00000000000E+00 -0.13921047531E+04  0.13921047531E+04  0.50400000000E-02 0.  1.
    8880023    1    1    2    0    0  0.29926013372E+03 -0.38472309460E+03  0.81994742047E+03  0.11591774954E+04  0.65864270000E+03 0.  0.
    8880022    1    1    2    0    0 -0.29926013372E+03  0.38472309460E+03 -0.11691231849E+04  0.12758562465E+04  0.15294330000E+03 0.  1.
<mgrwt>
<rscale>  0 0.72808923E+03</rscale>
<asrwt>0</asrwt>
<pdfrwt beam="1">  1        1 0.16045061E+00 0.81937702E+03</pdfrwt>
<pdfrwt beam="2">  1       -1 0.21416996E+00 0.81937702E+03</pdfrwt>
<totfact> 0.17437527E+00</totfact>
</mgrwt>
</event>
<event>
 4    5  0.7176259E-008  0.8478019E+03  0.7818608E-02  0.9615641E-01
          1   -1    0    0  501    0  0.00000000000E+00  0.00000000000E+00  0.20564171322E+04  0.20564171322E+04  0.50400000000E-02 0. -1.
         -1   -1    0    0    0  501 -0.00000000000E+00 -0.00000000000E+00 -0.59820047727E+03  0.59820047729E+03  0.50400000000E-02 0.  1.
    8880023    1    1    2    0    0 -0.44064415190E+03 -0.30131462972E+03  0.18089981371E+04  0.19978093605E+04  0.65864270000E+03 0. -1.
    8880022    1    1    2    0    0  0.44064415190E+03  0.30131462972E+03 -0.35078148217E+03  0.65680824898E+03  0.15294330000E+03 0.  0.
<mgrwt>
<rscale>  0 0.76269547E+03</rscale>
<asrwt>0</asrwt>
<pdfrwt beam="1">  1        1 0.31637187E+00 0.84780185E+03</pdfrwt>
<pdfrwt beam="2">  1       -1 0.92030842E-01 0.84780185E+03</pdfrwt>
<totfact> 0.32469609E+00</totfact>
</mgrwt>
</event>
<event>
 4    5  0.7176259E-008  0.6733690E+03  0.7818608E-02  0.1013355E+00
         -1   -1    0    0    0  501 -0.00000000000E+00  0.00000000000E+00  0.18952431523E+04  0.18952431523E+04  0.50400000000E-02 0.  1.
          1   -1    0    0  501    0  0.00000000000E+00 -0.00000000000E+00 -0.23535118578E+03  0.23535118583E+03  0.50400000000E-02 0. -1.
    8880023    1    1    2    0    0  0.41679262458E+02 -0.13371015799E+03  0.27027082079E+03  0.72558396489E+03  0.65864270000E+03 0. -1.
    8880022    1    1    2    0    0 -0.41679262458E+02  0.13371015799E+03  0.13896211457E+04  0.14050103732E+04  0.15294330000E+03 0.  0.
<mgrwt>
<rscale>  0 0.50162884E+03</rscale>
<asrwt>0</asrwt>
<pdfrwt beam="1">  1        1 0.36207874E-01 0.67336897E+03</pdfrwt>
<pdfrwt beam="2">  1       -1 0.29157587E+00 0.67336897E+03</pdfrwt>
<totfact> 0.47590386E+00</totfact>
</mgrwt>
</event>
<event>
 4    5  0.7176259E-008  0.8908610E+03  0.7818608E-02  0.9540865E-01
          1   -1    0    0  501    0  0.00000000000E+00  0.00000000000E+00  0.13738323249E+04  0.13738323249E+04  0.50400000000E-02 0. -1.
         -1   -1    0    0    0  501 -0.00000000000E+00 -0.00000000000E+00 -0.55626578244E+03  0.55626578246E+03  0.50400000000E-02 0.  1.
    8880023    1    1    2    0    0 -0.45887887331E+03  0.38633316533E+03  0.94431102721E+03  0.12982128706E+04  0.65864270000E+03 0.  0.
    8880022    1    1    2    0    0  0.45887887331E+03 -0.38633316533E+03 -0.12674448477E+03  0.63188523676E+03  0.15294330000E+03 0.  0.
<mgrwt>
<rscale>  0 0.81336924E+03</rscale>
<asrwt>0</asrwt>
<pdfrwt beam="1">  1        1 0.21135882E+00 0.89086101E+03</pdfrwt>
<pdfrwt beam="2">  1       -1 0.85579352E-01 0.89086101E+03</pdfrwt>
<totfact> 0.10999881E+01</totfact>
</mgrwt>
</event>
<event>
 4    5  0.7176259E-008  0.1141628E+04  0.7818608E-02  0.9216065E-01
          1   -1    0    0  501    0  0.00000000000E+00  0.00000000000E+00  0.76463988742E+03  0.76463988744E+03  0.50400000000E-02 0. -1.
         -1   -1    0    0    0  501 -0.00000000000E+00 -0.00000000000E+00 -0.15637757853E+04  0.15637757853E+04  0.50400000000E-02 0.  1.
    8880023    1    1    2    0    0  0.77481053326E+03  0.51881911980E+03 -0.86530483872E+02  0.11449027786E+04  0.65864270000E+03 0. -1.
    8880022    1    1    2    0    0 -0.77481053326E+03 -0.51881911980E+03 -0.71260541399E+03  0.11835128941E+04  0.15294330000E+03 0.  0.
<mgrwt>
<rscale>  0 0.10889141E+04</rscale>
<asrwt>0</asrwt>
<pdfrwt beam="1">  1        1 0.11763691E+00 0.11416282E+04</pdfrwt>
<pdfrwt beam="2">  1       -1 0.24058089E+00 0.11416282E+04</pdfrwt>
<totfact> 0.18906672E+00</totfact>
</mgrwt>
</event>
<event>
 4    5  0.7176259E-008  0.6807746E+03  0.7818608E-02  0.1008889E+00
         -1   -1    0    0    0  501 -0.00000000000E+00  0.00000000000E+00  0.10276963234E+04  0.10276963234E+04  0.50400000000E-02 0.  1.
          1   -1    0    0  501    0  0.00000000000E+00 -0.00000000000E+00 -0.46199347822E+03  0.46199347825E+03  0.50400000000E-02 0. -1.
    8880023    1    1    2    0    0  0.39307323809E+01 -0.17212882823E+03 -0.18417346907E+03  0.70524737301E+03  0.65864270000E+03 0.  0.
    8880022    1    1    2    0    0 -0.39307323809E+01  0.17212882823E+03  0.74987631421E+03  0.78444242861E+03  0.15294330000E+03 0.  1.
<mgrwt>
<rscale>  0 0.51918634E+03</rscale>
<asrwt>0</asrwt>
<pdfrwt beam="1">  1        1 0.71075920E-01 0.68077455E+03</pdfrwt>
<pdfrwt beam="2">  1       -1 0.15810713E+00 0.68077455E+03</pdfrwt>
<totfact> 0.15463355E+01</totfact>
</mgrwt>
</event>
<event>
 4    5  0.7176259E-008  0.1094143E+04  0.7818608E-02  0.9267606E-01
          1   -1    0    0  501    0  0.00000000000E+00  0.00000000000E+00  0.22103853184E+04  0.22103853184E+04  0.50400000000E-02 0. -1.
         -1   -1    0    0    0  501 -0.00000000000E+00 -0.00000000000E+00 -0.14992366457E+04  0.14992366457E+04  0.50400000000E-02 0.  1.
    8880023    1    1    2    0    0 -0.79674552707E+03  0.35851688559E+03  0.19202368013E+04  0.22100808518E+04  0.65864270000E+03 0.  0.
    8880022    1    1    2    0    0  0.79674552707E+03 -0.35851688559E+03 -0.12090881285E+04  0.14995411124E+04  0.15294330000E+03 0.  0.
<mgrwt>
<rscale>  0 0.10382062E+04</rscale>
<asrwt>0</asrwt>
<pdfrwt beam="1">  1        1 0.34005928E+00 0.10941426E+04</pdfrwt>
<pdfrwt beam="2">  1       -1 0.23065179E+00 0.10941426E+04</pdfrwt>
<totfact> 0.20045080E-01</totfact>
</mgrwt>
</event>
<event>
 4    5  0.7176259E-008  0.6816105E+03  0.7818608E-02  0.1008427E+00
         -1   -1    0    0    0  501 -0.00000000000E+00  0.00000000000E+00  0.33607244158E+03  0.33607244161E+03  0.50400000000E-02 0.  1.
          1   -1    0    0  501    0  0.00000000000E+00 -0.00000000000E+00 -0.92481278750E+03  0.92481278752E+03  0.50400000000E-02 0. -1.
    8880023    1    1    2    0    0  0.15153752778E+03 -0.88425745418E+02 -0.72181161866E+03  0.99277638664E+03  0.65864270000E+03 0. -1.
    8880022    1    1    2    0    0 -0.15153752778E+03  0.88425745418E+02  0.13307127273E+03  0.26810884249E+03  0.15294330000E+03 0.  0.
<mgrwt>
<rscale>  0 0.52104650E+03</rscale>
<asrwt>0</asrwt>
<pdfrwt beam="1">  1        1 0.14227889E+00 0.68161055E+03</pdfrwt>
<pdfrwt beam="2">  1       -1 0.51703453E-01 0.68161055E+03</pdfrwt>
<totfact> 0.67233806E+01</totfact>
</mgrwt>
</event>
<event>
 4    5  0.7176259E-008  0.7249863E+03  0.7818608E-02  0.9906061E-01
          1   -1    0    0  501    0  0.00000000000E+00  0.00000000000E+00  0.78759501936E+03  0.78759501938E+03  0.50400000000E-02 0. -1.
         -1   -1    0    0    0  501 -0.00000000000E+00 -0.00000000000E+00 -0.21537260783E+04  0.21537260783E+04  0.50400000000E-02 0.  1.
    8880023    1    1    2    0    0  0.22163694460E+03 -0.20657215901E+03  0.60310735560E+03  0.94305020054E+03  0.65864270000E+03 0. -1.
    8880022    1    1    2    0    0 -0.22163694460E+03  0.20657215901E+03 -0.19692384146E+04  0.19982708972E+04  0.15294330000E+03 0.  0.
<mgrwt>
<rscale>  0 0.59968424E+03</rscale>
<asrwt>0</asrwt>
<pdfrwt beam="1">  1        1 0.12116847E+00 0.72498634E+03</pdfrwt>
<pdfrwt beam="2">  1       -1 0.33134247E+00 0.72498634E+03</pdfrwt>
<totfact> 0.50094863E-01</totfact>
</mgrwt>
</event>
<event>
 4    5  0.7176259E-008  0.1248210E+04  0.7818608E-02  0.9111626E-01
         -1   -1    0    0    0  501 -0.00000000000E+00  0.00000000000E+00  0.10886624368E+04  0.10886624368E+04  0.50400000000E-02 0.  1.
          1   -1    0    0  501    0  0.00000000000E+00 -0.00000000000E+00 -0.16835800692E+04  0.16835800692E+04  0.50400000000E-02 0. -1.
    8880023    1    1    2    0    0  0.99687440163E+03 -0.36119153910E+03 -0.10277119108E+04  0.16168549343E+04  0.65864270000E+03 0.  0.
    8880022    1    1    2    0    0 -0.99687440163E+03  0.36119153910E+03  0.43279427843E+03  0.11553875718E+04  0.15294330000E+03 0.  0.
<mgrwt>
<rscale>  0 0.12014066E+04</rscale>
<asrwt>0</asrwt>
<pdfrwt beam="1">  1        1 0.25901232E+00 0.12482100E+04</pdfrwt>
<pdfrwt beam="2">  1       -1 0.16748653E+00 0.12482100E+04</pdfrwt>
<totfact> 0.12246085E+00</totfact>
</mgrwt>
</event>
<event>
 4    5  0.7176259E-008  0.7219436E+03  0.7818608E-02  0.9916064E-01
          1   -1    0    0  501    0  0.00000000000E+00  0.00000000000E+00  0.12775222039E+04  0.12775222039E+04  0.50400000000E-02 0. -1.
         -1   -1    0    0    0  501 -0.00000000000E+00 -0.00000000000E+00 -0.65046618435E+03  0.65046618437E+03  0.50400000000E-02 0.  1.
    8880023    1    1    2    0    0  0.29502636314E+03  0.18755156435E+02 -0.41592580579E+03  0.83318472923E+03  0.65864270000E+03 0.  1.
    8880022    1    1    2    0    0 -0.29502636314E+03 -0.18755156435E+02  0.10429818253E+04  0.10948036590E+04  0.15294330000E+03 0.  0.
<mgrwt>
<rscale>  0 0.59489052E+03</rscale>
<asrwt>0</asrwt>
<pdfrwt beam="1">  1        1 0.19654187E+00 0.72194357E+03</pdfrwt>
<pdfrwt beam="2">  1       -1 0.10007172E+00 0.72194357E+03</pdfrwt>
<totfact> 0.92925598E+00</totfact>
</mgrwt>
</event>
<event>
 4    5  0.7176259E-008  0.8666195E+03  0.7818608E-02  0.9581895E-01
         -1   -1    0    0    0  501 -0.00000000000E+00  0.00000000000E+00  0.12552890612E+04  0.12552890612E+04  0.50400000000E-02 0.  1.
          1   -1    0    0  501    0  0.00000000000E+00 -0.00000000000E+00 -0.73509779820E+03  0.73509779822E+03  0.50400000000E-02 0. -1.
    8880023    1    1    2    0    0  0.26138667832E+03 -0.49889494800E+03 -0.35659938295E+03  0.93711925118E+03  0.65864270000E+03 0.  0.
    8880022    1    1    2    0    0 -0.26138667832E+03  0.49889494800E+03  0.87679064591E+03  0.10532676082E+04  0.15294330000E+03 0.  0.
<mgrwt>
<rscale>  0 0.78506145E+03</rscale>
<asrwt>0</asrwt>
<pdfrwt beam="1">  1        1 0.11309197E+00 0.86661951E+03</pdfrwt>
<pdfrwt beam="2">  1       -1 0.19312139E+00 0.86661951E+03</pdfrwt>
<totfact> 0.43308398E+00</totfact>
</mgrwt>
</event>
<event>
 4    5  0.7176259E-008  0.1333937E+04  0.7818608E-02  0.9036793E-01
          1   -1    0    0  501    0  0.00000000000E+00  0.00000000000E+00  0.36630893562E+04  0.36630893562E+04  0.50400000000E-02 0. -1.
         -1   -1    0    0    0  501 -0.00000000000E+00 -0.00000000000E+00 -0.84824623410E+03  0.84824623411E+03  0.50400000000E-02 0.  1.
    8880023    1    1    2    0    0 -0.46145747498E+03 -0.10642533051E+04  0.30400462460E+04  0.33198297370E+04  0.65864270000E+03 0.  0.
    8880022    1    1    2    0    0  0.46145747498E+03  0.10642533051E+04 -0.22520312383E+03  0.11915058534E+04  0.15294330000E+03 0.  0.
<mgrwt>
<rscale>  0 0.12909242E+04</rscale>
<asrwt>0</asrwt>
<pdfrwt beam="1">  1        1 0.56355220E+00 0.13339371E+04</pdfrwt>
<pdfrwt beam="2">  1       -1 0.13049942E+00 0.13339371E+04</pdfrwt>
<totfact> 0.91362087E-02</totfact>
</mgrwt>
</event>
<event>
 4    5  0.7176259E-008  0.8237460E+03  0.7818608E-02  0.9661626E-01
          1   -1    0    0  501    0  0.00000000000E+00  0.00000000000E+00  0.18326414792E+04  0.18326414792E+04  0.50400000000E-02 0. -1.
         -1   -1    0    0    0  501 -0.00000000000E+00 -0.00000000000E+00 -0.26494590248E+04  0.26494590248E+04  0.50400000000E-02 0.  1.
    8880023    1    1    2    0    0  0.46923604439E+03  0.15673148704E+03  0.17125007967E+04  0.19003200807E+04  0.65864270000E+03 0. -1.
    8880022    1    1    2    0    0 -0.46923604439E+03 -0.15673148704E+03 -0.25293183423E+04  0.25817804233E+04  0.15294330000E+03 0.  0.
<mgrwt>
<rscale>  0 0.73348283E+03</rscale>
<asrwt>0</asrwt>
<pdfrwt beam="1">  1        1 0.28194484E+00 0.82374597E+03</pdfrwt>
<pdfrwt beam="2">  1       -1 0.40760908E+00 0.82374597E+03</pdfrwt>
<totfact> 0.26496786E-02</totfact>
</mgrwt>
</event>
<event>
 4    5  0.7176259E-008  0.7597893E+03  0.7818608E-02  0.9805653E-01
         -1   -1    0    0    0  501 -0.00000000000E+00  0.00000000000E+00  0.86691358050E+03  0.86691358051E+03  0.50400000000E-02 0.  1.
          1   -1    0    0  501    0  0.00000000000E+00 -0.00000000000E+00 -0.58254796034E+03  0.58254796036E+03  0.50400000000E-02 0. -1.
    8880023    1    1    2    0    0 -0.10608524698E+03  0.36361447922E+03 -0.22886844171E+03  0.79351152417E+03  0.65864270000E+03 0. -1.
    8880022    1    1    2    0    0  0.10608524698E+03 -0.36361447922E+03  0.51323406187E+03  0.65595001670E+03  0.15294330000E+03 0.  0.
<mgrwt>
<rscale>  0 0.65060037E+03</rscale>
<asrwt>0</asrwt>
<pdfrwt beam="1">  1        1 0.89622763E-01 0.75978930E+03</pdfrwt>
<pdfrwt beam="2">  1       -1 0.13337132E+00 0.75978930E+03</pdfrwt>
<totfact> 0.17423009E+01</totfact>
</mgrwt>
</event>
<event>
 4    5  0.7176259E-008  0.1514109E+04  0.7818608E-02  0.8899737E-01
         -1   -1    0    0    0  501 -0.00000000000E+00  0.00000000000E+00  0.17179265044E+04  0.17179265044E+04  0.50400000000E-02 0.  1.
          1   -1    0    0  501    0  0.00000000000E+00 -0.00000000000E+00 -0.18919339832E+04  0.18919339832E+04  0.50400000000E-02 0. -1.
    8880023    1    1    2    0    0 -0.24407324209E+03  0.13413212660E+04 -0.11708808038E+04  0.19140236543E+04  0.65864270000E+03 0.  0.
    8880022    1    1    2    0    0  0.24407324209E+03 -0.13413212660E+04  0.99687332498E+03  0.16958368333E+04  0.15294330000E+03 0.  0.
<mgrwt>
<rscale>  0 0.14772305E+04</rscale>
<asrwt>0</asrwt>
<pdfrwt beam="1">  1        1 0.29106677E+00 0.15141085E+04</pdfrwt>
<pdfrwt beam="2">  1       -1 0.26429638E+00 0.15141085E+04</pdfrwt>
<totfact> 0.18699085E-01</totfact>
</mgrwt>
</event>
<event>
 4    5  0.7176259E-008  0.8552904E+03  0.7818608E-02  0.9601997E-01
          1   -1    0    0  501    0  0.00000000000E+00  0.00000000000E+00  0.33354640516E+04  0.33354640516E+04  0.50400000000E-02 0. -1.
         -1   -1    0    0    0  501 -0.00000000000E+00 -0.00000000000E+00 -0.42728667581E+03  0.42728667584E+03  0.50400000000E-02 0.  1.
    8880023    1    1    2    0    0 -0.51332862606E+03 -0.18494621390E+03  0.30590360799E+04  0.31763537783E+04  0.65864270000E+03 0. -1.
    8880022    1    1    2    0    0  0.51332862606E+03  0.18494621390E+03 -0.15085870411E+03  0.58639694916E+03  0.15294330000E+03 0.  0.
<mgrwt>
<rscale>  0 0.77164177E+03</rscale>
<asrwt>0</asrwt>
<pdfrwt beam="1">  1        1 0.51314832E+00 0.85529035E+03</pdfrwt>
<pdfrwt beam="2">  1       -1 0.65736411E-01 0.85529035E+03</pdfrwt>
<totfact> 0.83707991E-01</totfact>
</mgrwt>
</event>
<event>
 4    5  0.7176259E-008  0.1040906E+04  0.7818608E-02  0.9329894E-01
          1   -1    0    0  501    0  0.00000000000E+00  0.00000000000E+00  0.17225448392E+04  0.17225448392E+04  0.50400000000E-02 0. -1.
         -1   -1    0    0    0  501 -0.00000000000E+00 -0.00000000000E+00 -0.78288273664E+03  0.78288273665E+03  0.50400000000E-02 0.  1.
    8880023    1    1    2    0    0  0.73807702238E+03 -0.32391013476E+03  0.12514581519E+04  0.16277693874E+04  0.65864270000E+03 0.  0.
    8880022    1    1    2    0    0 -0.73807702238E+03  0.32391013476E+03 -0.31179604934E+03  0.87765818846E+03  0.15294330000E+03 0.  0.
<mgrwt>
<rscale>  0 0.98076732E+03</rscale>
<asrwt>0</asrwt>
<pdfrwt beam="1">  1        1 0.26500690E+00 0.10409062E+04</pdfrwt>
<pdfrwt beam="2">  1       -1 0.12044350E+00 0.10409062E+04</pdfrwt>
<totfact> 0.28282075E+00</totfact>
</mgrwt>
</event>
<event>
 4    5  0.7176259E-008  0.1084379E+04  0.7818608E-02  0.9278651E-01
          1   -1    0    0  501    0  0.00000000000E+00  0.00000000000E+00  0.22410365275E+04  0.22410365275E+04  0.50400000000E-02 0. -1.
         -1   -1    0    0    0  501 -0.00000000000E+00 -0.00000000000E+00 -0.12089706026E+04  0.12089706026E+04  0.50400000000E-02 0.  1.
    8880023    1    1    2    0    0 -0.68017781117E+03  0.52860670942E+03  0.19189894588E+04  0.22041773199E+04  0.65864270000E+03 0.  0.
    8880022    1    1    2    0    0  0.68017781117E+03 -0.52860670942E+03 -0.88692353396E+03  0.12458298103E+04  0.15294330000E+03 0.  0.
<mgrwt>
<rscale>  0 0.10277227E+04</rscale>
<asrwt>0</asrwt>
<pdfrwt beam="1">  1        1 0.34477485E+00 0.10843787E+04</pdfrwt>
<pdfrwt beam="2">  1       -1 0.18599548E+00 0.10843787E+04</pdfrwt>
<totfact> 0.38555175E-01</totfact>
</mgrwt>
</event>
<event>
 4    5  0.7176259E-008  0.6847108E+03  0.7818608E-02  0.1006775E+00
         -1   -1    0    0    0  501 -0.00000000000E+00  0.00000000000E+00  0.42483955540E+03  0.42483955543E+03  0.50400000000E-02 0.  1.
          1   -1    0    0  501    0  0.00000000000E+00 -0.00000000000E+00 -0.16853554784E+04  0.16853554784E+04  0.50400000000E-02 0. -1.
    8880023    1    1    2    0    0 -0.17971053145E+03 -0.52180120265E+02 -0.15727608771E+04  0.17153441704E+04  0.65864270000E+03 0. -1.
    8880022    1    1    2    0    0  0.17971053145E+03  0.52180120265E+02  0.31224495405E+03  0.39485086350E+03  0.15294330000E+03 0.  0.
<mgrwt>
<rscale>  0 0.52776617E+03</rscale>
<asrwt>0</asrwt>
<pdfrwt beam="1">  1        1 0.25928545E+00 0.68471078E+03</pdfrwt>
<pdfrwt beam="2">  1       -1 0.65359933E-01 0.68471078E+03</pdfrwt>
<totfact> 0.12159845E+01</totfact>
</mgrwt>
</event>
<event>
 4    5  0.7176259E-008  0.8836700E+03  0.7818608E-02  0.9552772E-01
          1   -1    0    0  501    0  0.00000000000E+00  0.00000000000E+00  0.85506240527E+03  0.85506240529E+03  0.50400000000E-02 0. -1.
         -1   -1    0    0    0  501 -0.00000000000E+00 -0.00000000000E+00 -0.97528630453E+03  0.97528630454E+03  0.50400000000E-02 0.  1.
    8880023    1    1    2    0    0  0.46359803929E+03 -0.36350982877E+03  0.45409070334E+03  0.99351452469E+03  0.65864270000E+03 0. -1.
    8880022    1    1    2    0    0 -0.46359803929E+03  0.36350982877E+03 -0.57431460259E+03  0.83683418514E+03  0.15294330000E+03 0.  0.
<mgrwt>
<rscale>  0 0.80502508E+03</rscale>
<asrwt>0</asrwt>
<pdfrwt beam="1">  1        1 0.13154806E+00 0.88367004E+03</pdfrwt>
<pdfrwt beam="2">  1       -1 0.15004405E+00 0.88367004E+03</pdfrwt>
<totfact> 0.70213343E+00</totfact>
</mgrwt>
</event>
<event>
 4    5  0.7176259E-008  0.7608442E+03  0.7818608E-02  0.9802927E-01
          1   -1    0    0  501    0  0.00000000000E+00  0.00000000000E+00  0.10503723537E+04  0.10503723537E+04  0.50400000000E-02 0. -1.
         -1   -1    0    0    0  501 -0.00000000000E+00 -0.00000000000E+00 -0.11958103407E+04  0.11958103407E+04  0.50400000000E-02 0.  1.
    8880023    1    1    2    0    0  0.47893805523E+02  0.37786221309E+03  0.86712253616E+03  0.11535967093E+04  0.65864270000E+03 0. -1.
    8880022    1    1    2    0    0 -0.47893805523E+02 -0.37786221309E+03 -0.10125605232E+04  0.10925859851E+04  0.15294330000E+03 0.  0.
<mgrwt>
<rscale>  0 0.65205707E+03</rscale>
<asrwt>0</asrwt>
<pdfrwt beam="1">  1        1 0.16159575E+00 0.76084419E+03</pdfrwt>
<pdfrwt beam="2">  1       -1 0.18397082E+00 0.76084419E+03</pdfrwt>
<totfact> 0.28018397E+00</totfact>
</mgrwt>
</event>
<event>
 4    5  0.7176259E-008  0.8149728E+03  0.7818608E-02  0.9679310E-01
         -1   -1    0    0    0  501 -0.00000000000E+00  0.00000000000E+00  0.85486054845E+03  0.85486054847E+03  0.50400000000E-02 0.  1.
          1   -1    0    0  501    0  0.00000000000E+00 -0.00000000000E+00 -0.64872754669E+03  0.64872754671E+03  0.50400000000E-02 0. -1.
    8880023    1    1    2    0    0  0.42655935537E+03 -0.22003976734E+03 -0.21959339219E+03  0.84403900800E+03  0.65864270000E+03 0. -1.
    8880022    1    1    2    0    0 -0.42655935537E+03  0.22003976734E+03  0.42572639396E+03  0.65954908718E+03  0.15294330000E+03 0.  0.
<mgrwt>
<rscale>  0 0.72262112E+03</rscale>
<asrwt>0</asrwt>
<pdfrwt beam="1">  1        1 0.99804238E-01 0.81497275E+03</pdfrwt>
<pdfrwt beam="2">  1       -1 0.13151701E+00 0.81497275E+03</pdfrwt>
<totfact> 0.15350413E+01</totfact>
</mgrwt>
</event>
<event>
 4    5  0.7176259E-008  0.9541806E+03  0.7818608E-02  0.9444124E-01
          1   -1    0    0  501    0  0.00000000000E+00  0.00000000000E+00  0.26222380621E+04  0.26222380621E+04  0.50400000000E-02 0. -1.
         -1   -1    0    0    0  501 -0.00000000000E+00 -0.00000000000E+00 -0.61974450185E+03  0.61974450187E+03  0.50400000000E-02 0.  1.
    8880023    1    1    2    0    0  0.25465216284E+02 -0.68992899880E+03  0.22883018376E+04  0.24792712653E+04  0.65864270000E+03 0. -1.
    8880022    1    1    2    0    0 -0.25465216284E+02  0.68992899880E+03 -0.28580827741E+03  0.76271129864E+03  0.15294330000E+03 0.  0.
<mgrwt>
<rscale>  0 0.88531695E+03</rscale>
<asrwt>0</asrwt>
<pdfrwt beam="1">  1        1 0.40342125E+00 0.95418065E+03</pdfrwt>
<pdfrwt beam="2">  1       -1 0.95345307E-01 0.95418065E+03</pdfrwt>
<totfact> 0.12158921E+00</totfact>
</mgrwt>
</event>
<event>
 4    5  0.7176259E-008  0.7575267E+03  0.7818608E-02  0.9811553E-01
          1   -1    0    0  501    0  0.00000000000E+00  0.00000000000E+00  0.52528287127E+03  0.52528287129E+03  0.50400000000E-02 0. -1.
         -1   -1    0    0    0  501 -0.00000000000E+00 -0.00000000000E+00 -0.98398494176E+03  0.98398494177E+03  0.50400000000E-02 0.  1.
    8880023    1    1    2    0    0  0.36248001887E+03  0.92976872316E+02  0.15611875957E+03  0.77344666023E+03  0.65864270000E+03 0.  0.
    8880022    1    1    2    0    0 -0.36248001887E+03 -0.92976872316E+02 -0.61482083006E+03  0.73582115283E+03  0.15294330000E+03 0.  1.
<mgrwt>
<rscale>  0 0.64746202E+03</rscale>
<asrwt>0</asrwt>
<pdfrwt beam="1">  1        1 0.80812749E-01 0.75752668E+03</pdfrwt>
<pdfrwt beam="2">  1       -1 0.15138230E+00 0.75752668E+03</pdfrwt>
<totfact> 0.14467130E+01</totfact>
</mgrwt>
</event>
<event>
 4    5  0.7176259E-008  0.1003254E+04  0.7818608E-02  0.9377313E-01
          1   -1    0    0  501    0  0.00000000000E+00  0.00000000000E+00  0.26483352253E+04  0.26483352253E+04  0.50400000000E-02 0. -1.
         -1   -1    0    0    0  501 -0.00000000000E+00 -0.00000000000E+00 -0.57534465229E+03  0.57534465231E+03  0.50400000000E-02 0.  1.
    8880023    1    1    2    0    0 -0.38474254961E+03  0.65167611623E+03  0.22214231944E+04  0.24374658571E+04  0.65864270000E+03 0. -1.
    8880022    1    1    2    0    0  0.38474254961E+03 -0.65167611623E+03 -0.14843262134E+03  0.78621402050E+03  0.15294330000E+03 0.  0.
<mgrwt>
<rscale>  0 0.93966515E+03</rscale>
<asrwt>0</asrwt>
<pdfrwt beam="1">  1        1 0.40743620E+00 0.10032541E+04</pdfrwt>
<pdfrwt beam="2">  1       -1 0.88514560E-01 0.10032541E+04</pdfrwt>
<totfact> 0.13651025E+00</totfact>
</mgrwt>
</event>
<event>
 4    5  0.7176259E-008  0.6795814E+03  0.7818608E-02  0.1009561E+00
         -1   -1    0    0    0  501 -0.00000000000E+00  0.00000000000E+00  0.45710053286E+03  0.45710053289E+03  0.50400000000E-02 0.  1.
          1   -1    0    0  501    0  0.00000000000E+00 -0.00000000000E+00 -0.10760931259E+04  0.10760931259E+04  0.50400000000E-02 0. -1.
    8880023    1    1    2    0    0 -0.50275432407E+02 -0.15966557184E+03 -0.92781221988E+03  0.11500723610E+04  0.65864270000E+03 0. -1.
    8880022    1    1    2    0    0  0.50275432407E+02  0.15966557184E+03  0.30881962680E+03  0.38312129783E+03  0.15294330000E+03 0.  0.
<mgrwt>
<rscale>  0 0.51649316E+03</rscale>
<asrwt>0</asrwt>
<pdfrwt beam="1">  1        1 0.16555279E+00 0.67958143E+03</pdfrwt>
<pdfrwt beam="2">  1       -1 0.70323159E-01 0.67958143E+03</pdfrwt>
<totfact> 0.28011890E+01</totfact>
</mgrwt>
</event>
<event>
 4    5  0.7176259E-008  0.7343694E+03  0.7818608E-02  0.9876663E-01
          1   -1    0    0  501    0  0.00000000000E+00  0.00000000000E+00  0.28033790912E+04  0.28033790912E+04  0.50400000000E-02 0. -1.
         -1   -1    0    0    0  501 -0.00000000000E+00 -0.00000000000E+00 -0.13693087423E+03  0.13693087432E+03  0.50400000000E-02 0.  1.
    8880023    1    1    2    0    0 -0.57399247025E+02  0.31967727545E+03  0.23489004487E+04  0.24610225025E+04  0.65864270000E+03 0.  0.
    8880022    1    1    2    0    0  0.57399247025E+02 -0.31967727545E+03  0.31754776827E+03  0.47928746295E+03  0.15294330000E+03 0.  0.
<mgrwt>
<rscale>  0 0.61405756E+03</rscale>
<asrwt>0</asrwt>
<pdfrwt beam="1">  1        1 0.43128908E+00 0.73436942E+03</pdfrwt>
<pdfrwt beam="2">  1       -1 0.21066289E-01 0.73436942E+03</pdfrwt>
<totfact> 0.16420387E+01</totfact>
</mgrwt>
</event>
<event>
 4    5  0.7649689E-008  0.9184285E+03  0.7818608E-02  0.9497073E-01
          1   -1    0    0  501    0  0.00000000000E+00  0.00000000000E+00  0.18010091674E+04  0.18010091674E+04  0.50400000000E-02 0. -1.
         -1   -1    0    0    0  501 -0.00000000000E+00 -0.00000000000E+00 -0.10644995895E+04  0.10644995895E+04  0.50400000000E-02 0.  1.
    8880023    1    1    2    0    0  0.63473752462E+03  0.82516916788E+02  0.15606579513E+04  0.18108462701E+04  0.65864270000E+03 0. -1.
    8880022    1    1    2    0    0 -0.63473752462E+03 -0.82516916788E+02 -0.82414837343E+03  0.10546624868E+04  0.15294330000E+03 0.  0.
<mgrwt>
<rscale>  0 0.84499979E+03</rscale>
<asrwt>0</asrwt>
<pdfrwt beam="1">  1        1 0.27707833E+00 0.91842853E+03</pdfrwt>
<pdfrwt beam="2">  1       -1 0.16376917E+00 0.91842853E+03</pdfrwt>
<totfact> 0.11380622E+00</totfact>
</mgrwt>
</event>
<event>
 4    5  0.7176259E-008  0.7250185E+03  0.7818608E-02  0.9905957E-01
          1   -1    0    0  501    0  0.00000000000E+00  0.00000000000E+00  0.55298704003E+03  0.55298704005E+03  0.50400000000E-02 0. -1.
         -1   -1    0    0    0  501 -0.00000000000E+00 -0.00000000000E+00 -0.99479751329E+03  0.99479751330E+03  0.50400000000E-02 0.  1.
    8880023    1    1    2    0    0 -0.65744258544E+02  0.29583662385E+03  0.25834979978E+03  0.76967294408E+03  0.65864270000E+03 0. -1.
    8880022    1    1    2    0    0  0.65744258544E+02 -0.29583662385E+03 -0.70016027303E+03  0.77811160928E+03  0.15294330000E+03 0.  0.
<mgrwt>
<rscale>  0 0.59973452E+03</rscale>
<asrwt>0</asrwt>
<pdfrwt beam="1">  1        1 0.85074929E-01 0.72501850E+03</pdfrwt>
<pdfrwt beam="2">  1       -1 0.15304577E+00 0.72501850E+03</pdfrwt>
<totfact> 0.13122839E+01</totfact>
</mgrwt>
</event>
<event>
 4    5  0.7176259E-008  0.9951865E+03  0.7818608E-02  0.9387882E-01
          1   -1    0    0  501    0  0.00000000000E+00  0.00000000000E+00  0.18307054163E+04  0.18307054163E+04  0.50400000000E-02 0. -1.
         -1   -1    0    0    0  501 -0.00000000000E+00 -0.00000000000E+00 -0.15525268983E+04  0.15525268983E+04  0.50400000000E-02 0.  1.
    8880023    1    1    2    0    0  0.33872693284E+03  0.66471797337E+03  0.15845142347E+04  0.18711177102E+04  0.65864270000E+03 0. -1.
    8880022    1    1    2    0    0 -0.33872693284E+03 -0.66471797337E+03 -0.13063357167E+04  0.15121146044E+04  0.15294330000E+03 0.  0.
<mgrwt>
<rscale>  0 0.93079652E+03</rscale>
<asrwt>0</asrwt>
<pdfrwt beam="1">  1        1 0.28164699E+00 0.99518648E+03</pdfrwt>
<pdfrwt beam="2">  1       -1 0.23885029E+00 0.99518648E+03</pdfrwt>
<totfact> 0.32495078E-01</totfact>
</mgrwt>
</event>
<event>
 4    5  0.7176259E-008  0.1605652E+04  0.7818608E-02  0.8838423E-01
         -1   -1    0    0    0  501 -0.00000000000E+00  0.00000000000E+00  0.23525328059E+04  0.23525328059E+04  0.50400000000E-02 0.  1.
          1   -1    0    0  501    0  0.00000000000E+00 -0.00000000000E+00 -0.13784917156E+04  0.13784917156E+04  0.50400000000E-02 0. -1.
    8880023    1    1    2    0    0 -0.82688167414E+03  0.12085420409E+04 -0.46563929311E+03  0.16718066052E+04  0.65864270000E+03 0.  0.
    8880022    1    1    2    0    0  0.82688167414E+03 -0.12085420409E+04  0.14396803834E+04  0.20592179163E+04  0.15294330000E+03 0.  0.
<mgrwt>
<rscale>  0 0.15712250E+04</rscale>
<asrwt>0</asrwt>
<pdfrwt beam="1">  1        1 0.21207565E+00 0.16056517E+04</pdfrwt>
<pdfrwt beam="2">  1       -1 0.36192813E+00 0.16056517E+04</pdfrwt>
<totfact> 0.96345652E-02</totfact>
</mgrwt>
</event>
<event>
 4    5  0.7176259E-008  0.1510511E+04  0.7818608E-02  0.8902249E-01
         -1   -1    0    0    0  501 -0.00000000000E+00  0.00000000000E+00  0.80498369399E+03  0.80498369400E+03  0.50400000000E-02 0.  1.
          1   -1    0    0  501    0  0.00000000000E+00 -0.00000000000E+00 -0.38191331170E+04  0.38191331170E+04  0.50400000000E-02 0. -1.
    8880023    1    1    2    0    0  0.11616481876E+04  0.70597933196E+03 -0.23786629105E+03  0.15291252099E+04  0.65864270000E+03 0.  0.
    8880022    1    1    2    0    0 -0.11616481876E+04 -0.70597933196E+03 -0.27762831319E+04  0.30949916010E+04  0.15294330000E+03 0.  0.
<mgrwt>
<rscale>  0 0.14735290E+04</rscale>
<asrwt>0</asrwt>
<pdfrwt beam="1">  1        1 0.58755893E+00 0.15105110E+04</pdfrwt>
<pdfrwt beam="2">  1       -1 0.12384365E+00 0.15105110E+04</pdfrwt>
<totfact> 0.75652430E-02</totfact>
</mgrwt>
</event>
<event>
 4    5  0.7431623E-008  0.7946894E+03  0.7818608E-02  0.9722398E-01
         -1   -1    0    0    0  501 -0.00000000000E+00  0.00000000000E+00  0.14293228326E+04  0.14293228326E+04  0.50400000000E-02 0.  1.
          1   -1    0    0  501    0  0.00000000000E+00 -0.00000000000E+00 -0.22632514118E+04  0.22632514118E+04  0.50400000000E-02 0. -1.
    8880023    1    1    2    0    0 -0.41366910729E+03  0.16309169135E+03 -0.21515177683E+04  0.22935910585E+04  0.65864270000E+03 0. -1.
    8880022    1    1    2    0    0  0.41366910729E+03 -0.16309169135E+03  0.13175891891E+04  0.13989831859E+04  0.15294330000E+03 0.  0.
<mgrwt>
<rscale>  0 0.69698715E+03</rscale>
<asrwt>0</asrwt>
<pdfrwt beam="1">  1        1 0.34819253E+00 0.79468940E+03</pdfrwt>
<pdfrwt beam="2">  1       -1 0.21989582E+00 0.79468940E+03</pdfrwt>
<totfact> 0.23112943E-01</totfact>
</mgrwt>
</event>
<event>
 4    5  0.7176259E-008  0.9652478E+03  0.7818608E-02  0.9428507E-01
          1   -1    0    0  501    0  0.00000000000E+00  0.00000000000E+00  0.20679922173E+04  0.20679922173E+04  0.50400000000E-02 0. -1.
         -1   -1    0    0    0  501 -0.00000000000E+00 -0.00000000000E+00 -0.96279089726E+03  0.96279089727E+03  0.50400000000E-02 0.  1.
    8880023    1    1    2    0    0 -0.66982521080E+03  0.22187232684E+03  0.17912816609E+04  0.20347956500E+04  0.65864270000E+03 0. -1.
    8880022    1    1    2    0    0  0.66982521080E+03 -0.22187232684E+03 -0.68608034085E+03  0.99598746456E+03  0.15294330000E+03 0.  0.
<mgrwt>
<rscale>  0 0.89766337E+03</rscale>
<asrwt>0</asrwt>
<pdfrwt beam="1">  1        1 0.31815265E+00 0.96524782E+03</pdfrwt>
<pdfrwt beam="2">  1       -1 0.14812168E+00 0.96524782E+03</pdfrwt>
<totfact> 0.98418381E-01</totfact>
</mgrwt>
</event>
<event>
 4    5  0.7176259E-008  0.7175011E+03  0.7818608E-02  0.9931134E-01
          1   -1    0    0  501    0  0.00000000000E+00  0.00000000000E+00  0.35469854934E+03  0.35469854937E+03  0.50400000000E-02 0. -1.
         -1   -1    0    0    0  501 -0.00000000000E+00 -0.00000000000E+00 -0.17163535598E+04  0.17163535598E+04  0.50400000000E-02 0.  1.
    8880023    1    1    2    0    0  0.27888679359E+03 -0.56743700782E+02 -0.48948260318E+02  0.71916884643E+03  0.65864270000E+03 0.  0.
    8880022    1    1    2    0    0 -0.27888679359E+03  0.56743700782E+02 -0.13127067502E+04  0.13518832628E+04  0.15294330000E+03 0.  0.
<mgrwt>
<rscale>  0 0.58775857E+03</rscale>
<asrwt>0</asrwt>
<pdfrwt beam="1">  1        1 0.54569008E-01 0.71750115E+03</pdfrwt>
<pdfrwt beam="2">  1       -1 0.26405439E+00 0.71750115E+03</pdfrwt>
<totfact> 0.41619115E+00</totfact>
</mgrwt>
</event>
<event>
 4    5  0.7176259E-008  0.7196817E+03  0.7818608E-02  0.9923665E-01
          1   -1    0    0  501    0  0.00000000000E+00  0.00000000000E+00  0.26216551627E+03  0.26216551632E+03  0.50400000000E-02 0. -1.
         -1   -1    0    0    0  501 -0.00000000000E+00 -0.00000000000E+00 -0.22521221316E+04  0.22521221316E+04  0.50400000000E-02 0.  1.
    8880023    1    1    2    0    0 -0.96552801353E+02  0.27351241973E+03 -0.27848009767E+03  0.77168183745E+03  0.65864270000E+03 0. -1.
    8880022    1    1    2    0    0  0.96552801353E+02 -0.27351241973E+03 -0.17114765176E+04  0.17426058104E+04  0.15294330000E+03 0.  0.
<mgrwt>
<rscale>  0 0.59127984E+03</rscale>
<asrwt>0</asrwt>
<pdfrwt beam="1">  1        1 0.40333158E-01 0.71968166E+03</pdfrwt>
<pdfrwt beam="2">  1       -1 0.34648032E+00 0.71968166E+03</pdfrwt>
<totfact> 0.18215325E+00</totfact>
</mgrwt>
</event>
<event>
 4    5  0.7176259E-008  0.6753907E+03  0.7818608E-02  0.1012061E+00
          1   -1    0    0  501    0  0.00000000000E+00  0.00000000000E+00  0.12023493601E+04  0.12023493601E+04  0.50400000000E-02 0. -1.
         -1   -1    0    0    0  501 -0.00000000000E+00 -0.00000000000E+00 -0.25259074624E+03  0.25259074629E+03  0.50400000000E-02 0.  1.
    8880023    1    1    2    0    0 -0.41922853875E+02  0.14347416519E+03  0.10256215912E+04  0.12280277751E+04  0.65864270000E+03 0. -1.
    8880022    1    1    2    0    0  0.41922853875E+02 -0.14347416519E+03 -0.75862977359E+02  0.22691233132E+03  0.15294330000E+03 0.  0.
<mgrwt>
<rscale>  0 0.50663619E+03</rscale>
<asrwt>0</asrwt>
<pdfrwt beam="1">  1        1 0.18497683E+00 0.67539068E+03</pdfrwt>
<pdfrwt beam="2">  1       -1 0.38860115E-01 0.67539068E+03</pdfrwt>
<totfact> 0.70440504E+01</totfact>
</mgrwt>
</event>
<event>
 4    5  0.7176259E-008  0.1138082E+04  0.7818608E-02  0.9219795E-01
          1   -1    0    0  501    0  0.00000000000E+00  0.00000000000E+00  0.19563882823E+04  0.19563882823E+04  0.50400000000E-02 0. -1.
         -1   -1    0    0    0  501 -0.00000000000E+00 -0.00000000000E+00 -0.17086474509E+04  0.17086474509E+04  0.50400000000E-02 0.  1.
    8880023    1    1    2    0    0 -0.12048993391E+03  0.92027341787E+03  0.16330828851E+04  0.19905252834E+04  0.65864270000E+03 0.  0.
    8880022    1    1    2    0    0  0.12048993391E+03 -0.92027341787E+03 -0.13853420537E+04  0.16745104499E+04  0.15294330000E+03 0.  0.
<mgrwt>
<rscale>  0 0.10851422E+04</rscale>
<asrwt>0</asrwt>
<pdfrwt beam="1">  1        1 0.30098281E+00 0.11380822E+04</pdfrwt>
<pdfrwt beam="2">  1       -1 0.26286884E+00 0.11380822E+04</pdfrwt>
<totfact> 0.18210342E-01</totfact>
</mgrwt>
</event>
<event>
 4    5  0.7176259E-008  0.7229645E+03  0.7818608E-02  0.9912680E-01
          1   -1    0    0  501    0  0.00000000000E+00  0.00000000000E+00  0.97822941616E+03  0.97822941617E+03  0.50400000000E-02 0. -1.
         -1   -1    0    0    0  501 -0.00000000000E+00 -0.00000000000E+00 -0.55636827827E+03  0.55636827829E+03  0.50400000000E-02 0.  1.
    8880023    1    1    2    0    0  0.71503082859E+02  0.28940427656E+03  0.76669125071E+03  0.10537994147E+04  0.65864270000E+03 0. -1.
    8880022    1    1    2    0    0 -0.71503082859E+02 -0.28940427656E+03 -0.34483011281E+03  0.48079827981E+03  0.15294330000E+03 0.  0.
<mgrwt>
<rscale>  0 0.59650691E+03</rscale>
<asrwt>0</asrwt>
<pdfrwt beam="1">  1        1 0.15049683E+00 0.72296454E+03</pdfrwt>
<pdfrwt beam="2">  1       -1 0.85595121E-01 0.72296454E+03</pdfrwt>
<totfact> 0.21900135E+01</totfact>
</mgrwt>
</event>
<event>
 4    5  0.7176259E-008  0.1264704E+04  0.7818608E-02  0.9096655E-01
         -1   -1    0    0    0  501 -0.00000000000E+00  0.00000000000E+00  0.69978974745E+03  0.69978974746E+03  0.50400000000E-02 0.  1.
          1   -1    0    0  501    0  0.00000000000E+00 -0.00000000000E+00 -0.25536358350E+04  0.25536358350E+04  0.50400000000E-02 0. -1.
    8880023    1    1    2    0    0 -0.69787141048E+03  0.82379773858E+03 -0.17484485379E+04  0.21579040098E+04  0.65864270000E+03 0.  0.
    8880022    1    1    2    0    0  0.69787141048E+03 -0.82379773858E+03 -0.10539754966E+03  0.10955215727E+04  0.15294330000E+03 0.  0.
<mgrwt>
<rscale>  0 0.12186871E+04</rscale>
<asrwt>0</asrwt>
<pdfrwt beam="1">  1        1 0.39286705E+00 0.12647045E+04</pdfrwt>
<pdfrwt beam="2">  1       -1 0.10765996E+00 0.12647045E+04</pdfrwt>
<totfact> 0.98000217E-01</totfact>
</mgrwt>
</event>
<event>
 4    5  0.7176259E-008  0.6720905E+03  0.7818608E-02  0.1014207E+00
          1   -1    0    0  501    0  0.00000000000E+00  0.00000000000E+00  0.42228559042E+03  0.42228559045E+03  0.50400000000E-02 0. -1.
         -1   -1    0    0    0  501 -0.00000000000E+00 -0.00000000000E+00 -0.78089203558E+03  0.78089203560E+03  0.50400000000E-02 0.  1.
    8880023    1    1    2    0    0 -0.90991767513E+02 -0.98060765392E+02  0.12046074147E+03  0.68280041884E+03  0.65864270000E+03 0. -1.
    8880022    1    1    2    0    0  0.90991767513E+02  0.98060765392E+02 -0.47906718663E+03  0.52037720721E+03  0.15294330000E+03 0. -1.
<mgrwt>
<rscale>  0 0.49836504E+03</rscale>
<asrwt>0</asrwt>
<pdfrwt beam="1">  1        1 0.64967014E-01 0.67209049E+03</pdfrwt>
<pdfrwt beam="2">  1       -1 0.12013724E+00 0.67209049E+03</pdfrwt>
<totfact> 0.35488025E+01</totfact>
</mgrwt>
</event>
<event>
 4    5  0.7176259E-008  0.8238477E+03  0.7818608E-02  0.9661424E-01
          1   -1    0    0  501    0  0.00000000000E+00  0.00000000000E+00  0.14586245654E+04  0.14586245654E+04  0.50400000000E-02 0. -1.
         -1   -1    0    0    0  501 -0.00000000000E+00 -0.00000000000E+00 -0.52119089918E+03  0.52119089920E+03  0.50400000000E-02 0.  1.
    8880023    1    1    2    0    0  0.49224401532E+03  0.51093849375E+02  0.11544016292E+04  0.14182270904E+04  0.65864270000E+03 0. -1.
    8880022    1    1    2    0    0 -0.49224401532E+03 -0.51093849375E+02 -0.21696796302E+03  0.56158837421E+03  0.15294330000E+03 0.  0.
<mgrwt>
<rscale>  0 0.73360801E+03</rscale>
<asrwt>0</asrwt>
<pdfrwt beam="1">  1        1 0.22440378E+00 0.82384765E+03</pdfrwt>
<pdfrwt beam="2">  1       -1 0.80183216E-01 0.82384765E+03</pdfrwt>
<totfact> 0.11140617E+01</totfact>
</mgrwt>
</event>
<event>
 4    5  0.7176259E-008  0.6688730E+03  0.7818608E-02  0.1016484E+00
          1   -1    0    0  501    0  0.00000000000E+00  0.00000000000E+00  0.81985724329E+03  0.81985724331E+03  0.50400000000E-02 0. -1.
         -1   -1    0    0    0  501 -0.00000000000E+00 -0.00000000000E+00 -0.65784056546E+03  0.65784056548E+03  0.50400000000E-02 0.  1.
    8880023    1    1    2    0    0  0.10777095364E+03 -0.44343230333E+02  0.66257012072E+03  0.94148301719E+03  0.65864270000E+03 0. -1.
    8880022    1    1    2    0    0 -0.10777095364E+03  0.44343230333E+02 -0.50055344289E+03  0.53621479159E+03  0.15294330000E+03 0.  0.
<mgrwt>
<rscale>  0 0.48977057E+03</rscale>
<asrwt>0</asrwt>
<pdfrwt beam="1">  1        1 0.12613188E+00 0.66887301E+03</pdfrwt>
<pdfrwt beam="2">  1       -1 0.10120624E+00 0.66887301E+03</pdfrwt>
<totfact> 0.20449495E+01</totfact>
</mgrwt>
</event>
<event>
 4    5  0.7176259E-008  0.8787707E+03  0.7818608E-02  0.9561009E-01
         -1   -1    0    0    0  501 -0.00000000000E+00  0.00000000000E+00  0.48305257396E+03  0.48305257398E+03  0.50400000000E-02 0.  1.
          1   -1    0    0  501    0  0.00000000000E+00 -0.00000000000E+00 -0.19013862360E+04  0.19013862360E+04  0.50400000000E-02 0. -1.
    8880023    1    1    2    0    0 -0.30249598143E+03 -0.49691448419E+03 -0.15377990372E+04  0.17711758548E+04  0.65864270000E+03 0. -1.
    8880022    1    1    2    0    0  0.30249598143E+03  0.49691448419E+03  0.11946537517E+03  0.61326295523E+03  0.15294330000E+03 0.  0.
<mgrwt>
<rscale>  0 0.79931541E+03</rscale>
<asrwt>0</asrwt>
<pdfrwt beam="1">  1        1 0.29252096E+00 0.87877075E+03</pdfrwt>
<pdfrwt beam="2">  1       -1 0.74315782E-01 0.87877075E+03</pdfrwt>
<totfact> 0.65026787E+00</totfact>
</mgrwt>
</event>
<event>
 4    5  0.7176259E-008  0.7418855E+03  0.7818608E-02  0.9854489E-01
          1   -1    0    0  501    0  0.00000000000E+00  0.00000000000E+00  0.18089501689E+04  0.18089501689E+04  0.50400000000E-02 0. -1.
         -1   -1    0    0    0  501 -0.00000000000E+00 -0.00000000000E+00 -0.30876787778E+03  0.30876787782E+03  0.50400000000E-02 0.  1.
    8880023    1    1    2    0    0 -0.15445168443E+03  0.30451354778E+03  0.15706121095E+04  0.17370136523E+04  0.65864270000E+03 0. -1.
    8880022    1    1    2    0    0  0.15445168443E+03 -0.30451354778E+03 -0.70429818357E+02  0.38070439443E+03  0.15294330000E+03 0.  0.
<mgrwt>
<rscale>  0 0.62518585E+03</rscale>
<asrwt>0</asrwt>
<pdfrwt beam="1">  1        1 0.27830003E+00 0.74188546E+03</pdfrwt>
<pdfrwt beam="2">  1       -1 0.47502750E-01 0.74188546E+03</pdfrwt>
<totfact> 0.18485652E+01</totfact>
</mgrwt>
</event>
<event>
 4    5  0.7176259E-008  0.9296153E+03  0.7818608E-02  0.9480071E-01
          1   -1    0    0  501    0  0.00000000000E+00  0.00000000000E+00  0.15865982200E+04  0.15865982200E+04  0.50400000000E-02 0. -1.
         -1   -1    0    0    0  501 -0.00000000000E+00 -0.00000000000E+00 -0.10930222242E+04  0.10930222242E+04  0.50400000000E-02 0.  1.
    8880023    1    1    2    0    0 -0.60660978174E+03  0.24979786520E+03  0.13193388044E+04  0.16139515135E+04  0.65864270000E+03 0.  0.
    8880022    1    1    2    0    0  0.60660978174E+03 -0.24979786520E+03 -0.82576280861E+03  0.10656689307E+04  0.15294330000E+03 0.  0.
<mgrwt>
<rscale>  0 0.85769217E+03</rscale>
<asrwt>0</asrwt>
<pdfrwt beam="1">  1        1 0.24409203E+00 0.92961530E+03</pdfrwt>
<pdfrwt beam="2">  1       -1 0.16815727E+00 0.92961530E+03</pdfrwt>
<totfact> 0.14724591E+00</totfact>
</mgrwt>
</event>
<event>
 4    5  0.7176259E-008  0.1107668E+04  0.7818608E-02  0.9252566E-01
          1   -1    0    0  501    0  0.00000000000E+00  0.00000000000E+00  0.22935054667E+04  0.22935054667E+04  0.50400000000E-02 0. -1.
         -1   -1    0    0    0  501 -0.00000000000E+00 -0.00000000000E+00 -0.65926787564E+03  0.65926787566E+03  0.50400000000E-02 0.  1.
    8880023    1    1    2    0    0 -0.83778938069E+03 -0.30203942698E+03  0.17192459900E+04  0.20451737926E+04  0.65864270000E+03 0. -1.
    8880022    1    1    2    0    0  0.83778938069E+03  0.30203942698E+03 -0.85008398853E+02  0.90759954976E+03  0.15294330000E+03 0.  0.
<mgrwt>
<rscale>  0 0.10526949E+04</rscale>
<asrwt>0</asrwt>
<pdfrwt beam="1">  1        1 0.35284700E+00 0.11076683E+04</pdfrwt>
<pdfrwt beam="2">  1       -1 0.10142583E+00 0.11076683E+04</pdfrwt>
<totfact> 0.17346980E+00</totfact>
</mgrwt>
</event>
<event>
 4    5  0.7176259E-008  0.9082804E+03  0.7818608E-02  0.9512867E-01
          1   -1    0    0  501    0  0.00000000000E+00  0.00000000000E+00  0.22847233446E+04  0.22847233446E+04  0.50400000000E-02 0. -1.
         -1   -1    0    0    0  501 -0.00000000000E+00 -0.00000000000E+00 -0.48651141032E+03  0.48651141035E+03  0.50400000000E-02 0.  1.
    8880023    1    1    2    0    0 -0.57992614659E+03 -0.23419819616E+03  0.19125822299E+04  0.21172964183E+04  0.65864270000E+03 0. -1.
    8880022    1    1    2    0    0  0.57992614659E+03  0.23419819616E+03 -0.11437029563E+03  0.65393833664E+03  0.15294330000E+03 0.  0.
<mgrwt>
<rscale>  0 0.83341768E+03</rscale>
<asrwt>0</asrwt>
<pdfrwt beam="1">  1        1 0.35149590E+00 0.90828043E+03</pdfrwt>
<pdfrwt beam="2">  1       -1 0.74847908E-01 0.90828043E+03</pdfrwt>
<totfact> 0.35224161E+00</totfact>
</mgrwt>
</event>
<event>
 4    5  0.7176259E-008  0.8423372E+03  0.7818608E-02  0.9625789E-01
          1   -1    0    0  501    0  0.00000000000E+00  0.00000000000E+00  0.25064818160E+04  0.25064818160E+04  0.50400000000E-02 0. -1.
         -1   -1    0    0    0  501 -0.00000000000E+00 -0.00000000000E+00 -0.52164166453E+03  0.52164166455E+03  0.50400000000E-02 0.  1.
    8880023    1    1    2    0    0  0.51604724526E+03 -0.97041334881E+02  0.22628951485E+04  0.24145861839E+04  0.65864270000E+03 0. -1.
    8880022    1    1    2    0    0 -0.51604724526E+03  0.97041334881E+02 -0.27805499704E+03  0.61353729667E+03  0.15294330000E+03 0.  0.
<mgrwt>
<rscale>  0 0.75612567E+03</rscale>
<asrwt>0</asrwt>
<pdfrwt beam="1">  1        1 0.38561259E+00 0.84233722E+03</pdfrwt>
<pdfrwt beam="2">  1       -1 0.80252563E-01 0.84233722E+03</pdfrwt>
<totfact> 0.21714559E+00</totfact>
</mgrwt>
</event>
<event>
 4    5  0.7176259E-008  0.1203929E+04  0.7818608E-02  0.9153312E-01
          1   -1    0    0  501    0  0.00000000000E+00  0.00000000000E+00  0.19778093228E+04  0.19778093229E+04  0.50400000000E-02 0. -1.
         -1   -1    0    0    0  501 -0.00000000000E+00 -0.00000000000E+00 -0.10394594576E+04  0.10394594576E+04  0.50400000000E-02 0.  1.
    8880023    1    1    2    0    0  0.86196880021E+03  0.52215414966E+03  0.14434784695E+04  0.18796476975E+04  0.65864270000E+03 0.  0.
    8880022    1    1    2    0    0 -0.86196880021E+03 -0.52215414966E+03 -0.50512860430E+03  0.11376210830E+04  0.15294330000E+03 0.  0.
<mgrwt>
<rscale>  0 0.11548592E+04</rscale>
<asrwt>0</asrwt>
<pdfrwt beam="1">  1        1 0.30427835E+00 0.12039291E+04</pdfrwt>
<pdfrwt beam="2">  1       -1 0.15991684E+00 0.12039291E+04</pdfrwt>
<totfact> 0.88650412E-01</totfact>
</mgrwt>
</event>
<event>
 4    5  0.7176259E-008  0.8020051E+03  0.7818608E-02  0.9706477E-01
          1   -1    0    0  501    0  0.00000000000E+00  0.00000000000E+00  0.76429016744E+03  0.76429016746E+03  0.50400000000E-02 0. -1.
         -1   -1    0    0    0  501 -0.00000000000E+00 -0.00000000000E+00 -0.83207713349E+03  0.83207713350E+03  0.50400000000E-02 0.  1.
    8880023    1    1    2    0    0  0.25021488321E+03  0.38313765624E+03  0.42419749567E+03  0.90727926958E+03  0.65864270000E+03 0.  0.
    8880022    1    1    2    0    0 -0.25021488321E+03 -0.38313765624E+03 -0.49198446171E+03  0.68908803138E+03  0.15294330000E+03 0.  0.
<mgrwt>
<rscale>  0 0.70632442E+03</rscale>
<asrwt>0</asrwt>
<pdfrwt beam="1">  1        1 0.11758310E+00 0.80200509E+03</pdfrwt>
<pdfrwt beam="2">  1       -1 0.12801187E+00 0.80200509E+03</pdfrwt>
<totfact> 0.12826157E+01</totfact>
</mgrwt>
</event>
<event>
 4    5  0.7176259E-008  0.2171157E+04  0.7818608E-02  0.8541000E-01
         -1   -1    0    0    0  501 -0.00000000000E+00  0.00000000000E+00  0.28719062823E+04  0.28719062823E+04  0.50400000000E-02 0.  1.
          1   -1    0    0  501    0  0.00000000000E+00 -0.00000000000E+00 -0.19842049008E+04  0.19842049008E+04  0.50400000000E-02 0. -1.
    8880023    1    1    2    0    0  0.17975899394E+04  0.10241001531E+04 -0.65846424896E+03  0.22688093986E+04  0.65864270000E+03 0.  0.
    8880022    1    1    2    0    0 -0.17975899394E+04 -0.10241001531E+04  0.15461656305E+04  0.25873017845E+04  0.15294330000E+03 0.  0.
<mgrwt>
<rscale>  0 0.21465752E+04</rscale>
<asrwt>0</asrwt>
<pdfrwt beam="1">  1        1 0.30526229E+00 0.21711566E+04</pdfrwt>
<pdfrwt beam="2">  1       -1 0.44183173E+00 0.21711566E+04</pdfrwt>
<totfact> 0.97804861E-03</totfact>
</mgrwt>
</event>
<event>
 4    5  0.7176259E-008  0.7371784E+03  0.7818608E-02  0.9868244E-01
         -1   -1    0    0    0  501 -0.00000000000E+00  0.00000000000E+00  0.28332220618E+03  0.28332220622E+03  0.50400000000E-02 0.  1.
          1   -1    0    0  501    0  0.00000000000E+00 -0.00000000000E+00 -0.13891098829E+04  0.13891098829E+04  0.50400000000E-02 0. -1.
    8880023    1    1    2    0    0  0.13717822571E+03 -0.30133690783E+03 -0.10789467318E+04  0.13067356481E+04  0.65864270000E+03 0. -1.
    8880022    1    1    2    0    0 -0.13717822571E+03  0.30133690783E+03 -0.26840944885E+02  0.36569644101E+03  0.15294330000E+03 0.  0.
<mgrwt>
<rscale>  0 0.61825324E+03</rscale>
<asrwt>0</asrwt>
<pdfrwt beam="1">  1        1 0.21370921E+00 0.73717841E+03</pdfrwt>
<pdfrwt beam="2">  1       -1 0.43588032E-01 0.73717841E+03</pdfrwt>
<totfact> 0.41855718E+01</totfact>
</mgrwt>
</event>
<event>
 4    5  0.7176259E-008  0.1091112E+04  0.7818608E-02  0.9271017E-01
          1   -1    0    0  501    0  0.00000000000E+00  0.00000000000E+00  0.11981525723E+04  0.11981525723E+04  0.50400000000E-02 0. -1.
         -1   -1    0    0    0  501 -0.00000000000E+00 -0.00000000000E+00 -0.12424528311E+04  0.12424528312E+04  0.50400000000E-02 0.  1.
    8880023    1    1    2    0    0  0.45142128384E+03 -0.74359483941E+03  0.69086700539E+03  0.12914417858E+04  0.65864270000E+03 0. -1.
    8880022    1    1    2    0    0 -0.45142128384E+03  0.74359483941E+03 -0.73516726425E+03  0.11491636177E+04  0.15294330000E+03 0.  0.
<mgrwt>
<rscale>  0 0.10349541E+04</rscale>
<asrwt>0</asrwt>
<pdfrwt beam="1">  1        1 0.18433117E+00 0.10911117E+04</pdfrwt>
<pdfrwt beam="2">  1       -1 0.19114659E+00 0.10911117E+04</pdfrwt>
<totfact> 0.18459323E+00</totfact>
</mgrwt>
</event>
<event>
 4    5  0.7176259E-008  0.1355627E+04  0.7818608E-02  0.9018952E-01
         -1   -1    0    0    0  501 -0.00000000000E+00  0.00000000000E+00  0.12209460451E+04  0.12209460451E+04  0.50400000000E-02 0.  1.
          1   -1    0    0  501    0  0.00000000000E+00 -0.00000000000E+00 -0.20008901327E+04  0.20008901327E+04  0.50400000000E-02 0. -1.
    8880023    1    1    2    0    0  0.11103833809E+04 -0.41347763799E+03 -0.13366694635E+04  0.19037884522E+04  0.65864270000E+03 0.  0.
    8880022    1    1    2    0    0 -0.11103833809E+04  0.41347763799E+03  0.55672537601E+03  0.13180477256E+04  0.15294330000E+03 0.  1.
<mgrwt>
<rscale>  0 0.13134692E+04</rscale>
<asrwt>0</asrwt>
<pdfrwt beam="1">  1        1 0.30782925E+00 0.13556272E+04</pdfrwt>
<pdfrwt beam="2">  1       -1 0.18783785E+00 0.13556272E+04</pdfrwt>
<totfact> 0.52400167E-01</totfact>
</mgrwt>
</event>
<event>
 4    5  0.9008969E-008  0.7513658E+03  0.7818608E-02  0.9827996E-01
         -1   -1    0    0    0  501 -0.00000000000E+00  0.00000000000E+00  0.13803502650E+04  0.13803502650E+04  0.50400000000E-02 0.  1.
          1   -1    0    0  501    0  0.00000000000E+00 -0.00000000000E+00 -0.14019225116E+04  0.14019225116E+04  0.50400000000E-02 0. -1.
    8880023    1    1    2    0    0  0.49470567176E+02 -0.35818013350E+03 -0.12688707147E+04  0.14746468872E+04  0.65864270000E+03 0. -1.
    8880022    1    1    2    0    0 -0.49470567176E+02  0.35818013350E+03  0.12472984681E+04  0.13076258894E+04  0.15294330000E+03 0.  0.
<mgrwt>
<rscale>  0 0.63881509E+03</rscale>
<asrwt>0</asrwt>
<pdfrwt beam="1">  1        1 0.21568039E+00 0.75136579E+03</pdfrwt>
<pdfrwt beam="2">  1       -1 0.21236158E+00 0.75136579E+03</pdfrwt>
<totfact> 0.99854564E-01</totfact>
</mgrwt>
</event>
<event>
 4    5  0.7176259E-008  0.1347557E+04  0.7818608E-02  0.9025542E-01
          1   -1    0    0  501    0  0.00000000000E+00  0.00000000000E+00  0.34640885169E+04  0.34640885169E+04  0.50400000000E-02 0. -1.
         -1   -1    0    0    0  501 -0.00000000000E+00 -0.00000000000E+00 -0.89039620733E+03  0.89039620735E+03  0.50400000000E-02 0.  1.
    8880023    1    1    2    0    0 -0.11190705973E+04 -0.36025144472E+03  0.28363615769E+04  0.31402002016E+04  0.65864270000E+03 0.  0.
    8880022    1    1    2    0    0  0.11190705973E+04  0.36025144472E+03 -0.26266926726E+03  0.12142845227E+04  0.15294330000E+03 0.  0.
<mgrwt>
<rscale>  0 0.13050854E+04</rscale>
<asrwt>0</asrwt>
<pdfrwt beam="1">  1        1 0.53293670E+00 0.13475572E+04</pdfrwt>
<pdfrwt beam="2">  1       -1 0.13698403E+00 0.13475572E+04</pdfrwt>
<totfact> 0.11570571E-01</totfact>
</mgrwt>
</event>
<event>
 4    5  0.7176259E-008  0.6699262E+03  0.7818608E-02  0.1015716E+00
          1   -1    0    0  501    0  0.00000000000E+00  0.00000000000E+00  0.84369167568E+03  0.84369167569E+03  0.50400000000E-02 0. -1.
         -1   -1    0    0    0  501 -0.00000000000E+00 -0.00000000000E+00 -0.85033819783E+03  0.85033819785E+03  0.50400000000E-02 0.  1.
    8880023    1    1    2    0    0 -0.30564978052E+02  0.11856081586E+03  0.69513871880E+03  0.96541127484E+03  0.65864270000E+03 0. -1.
    8880022    1    1    2    0    0  0.30564978052E+02 -0.11856081586E+03 -0.70178524096E+03  0.72861859870E+03  0.15294330000E+03 0.  0.
<mgrwt>
<rscale>  0 0.49264823E+03</rscale>
<asrwt>0</asrwt>
<pdfrwt beam="1">  1        1 0.12979872E+00 0.66992618E+03</pdfrwt>
<pdfrwt beam="2">  1       -1 0.13082126E+00 0.66992618E+03</pdfrwt>
<totfact> 0.10554038E+01</totfact>
</mgrwt>
</event>
<event>
 4    5  0.7176259E-008  0.7674469E+03  0.7818608E-02  0.9786196E-01
         -1   -1    0    0    0  501 -0.00000000000E+00  0.00000000000E+00  0.58717539928E+03  0.58717539930E+03  0.50400000000E-02 0.  1.
          1   -1    0    0  501    0  0.00000000000E+00 -0.00000000000E+00 -0.11757009613E+04  0.11757009613E+04  0.50400000000E-02 0. -1.
    8880023    1    1    2    0    0 -0.38789758659E+03 -0.68556244887E+02 -0.93982456049E+03  0.12133609962E+04  0.65864270000E+03 0. -1.
    8880022    1    1    2    0    0  0.38789758659E+03  0.68556244887E+02  0.35129899845E+03  0.54951536441E+03  0.15294330000E+03 0.  0.
<mgrwt>
<rscale>  0 0.66108620E+03</rscale>
<asrwt>0</asrwt>
<pdfrwt beam="1">  1        1 0.18087707E+00 0.76744687E+03</pdfrwt>
<pdfrwt beam="2">  1       -1 0.90334677E-01 0.76744687E+03</pdfrwt>
<totfact> 0.13744792E+01</totfact>
</mgrwt>
</event>
<event>
 4    5  0.7176259E-008  0.8172210E+03  0.7818608E-02  0.9674728E-01
          1   -1    0    0  501    0  0.00000000000E+00  0.00000000000E+00  0.27167498222E+03  0.27167498226E+03  0.50400000000E-02 0. -1.
         -1   -1    0    0    0  501 -0.00000000000E+00 -0.00000000000E+00 -0.17838380356E+04  0.17838380357E+04  0.50400000000E-02 0.  1.
    8880023    1    1    2    0    0  0.39998861713E+03 -0.27211948283E+03 -0.60751206607E+03  0.10182931913E+04  0.65864270000E+03 0.  0.
    8880022    1    1    2    0    0 -0.39998861713E+03  0.27211948283E+03 -0.90465098736E+03  0.10372198266E+04  0.15294330000E+03 0.  0.
<mgrwt>
<rscale>  0 0.72541637E+03</rscale>
<asrwt>0</asrwt>
<pdfrwt beam="1">  1        1 0.41796152E-01 0.81722097E+03</pdfrwt>
<pdfrwt beam="2">  1       -1 0.27443661E+00 0.81722097E+03</pdfrwt>
<totfact> 0.49831842E+00</totfact>
</mgrwt>
</event>
<event>
 4    5  0.7176259E-008  0.8721851E+03  0.7818608E-02  0.9572245E-01
          1   -1    0    0  501    0  0.00000000000E+00  0.00000000000E+00  0.16487115136E+04  0.16487115136E+04  0.50400000000E-02 0. -1.
         -1   -1    0    0    0  501 -0.00000000000E+00 -0.00000000000E+00 -0.47059651618E+03  0.47059651621E+03  0.50400000000E-02 0.  1.
    8880023    1    1    2    0    0 -0.57143501352E+03  0.18939605347E+02  0.12488291822E+04  0.15232469320E+04  0.65864270000E+03 0.  0.
    8880022    1    1    2    0    0  0.57143501352E+03 -0.18939605347E+02 -0.70714184806E+02  0.59606109777E+03  0.15294330000E+03 0.  0.
<mgrwt>
<rscale>  0 0.79160716E+03</rscale>
<asrwt>0</asrwt>
<pdfrwt beam="1">  1        1 0.25364792E+00 0.87218512E+03</pdfrwt>
<pdfrwt beam="2">  1       -1 0.72399465E-01 0.87218512E+03</pdfrwt>
<totfact> 0.10169728E+01</totfact>
</mgrwt>
</event>
<event>
 4    5  0.7176259E-008  0.8211807E+03  0.7818608E-02  0.9666742E-01
         -1   -1    0    0    0  501 -0.00000000000E+00  0.00000000000E+00  0.14713594977E+04  0.14713594977E+04  0.50400000000E-02 0.  1.
          1   -1    0    0  501    0  0.00000000000E+00 -0.00000000000E+00 -0.46610276616E+03  0.46610276619E+03  0.50400000000E-02 0. -1.
    8880023    1    1    2    0    0 -0.48919081673E+03 -0.34926056405E+02  0.14355443076E+02  0.82130613634E+03  0.65864270000E+03 0. -1.
    8880022    1    1    2    0    0  0.48919081673E+03  0.34926056405E+02  0.99090128847E+03  0.11161561276E+04  0.15294330000E+03 0.  0.
<mgrwt>
<rscale>  0 0.73031950E+03</rscale>
<asrwt>0</asrwt>
<pdfrwt beam="1">  1        1 0.71708119E-01 0.82118067E+03</pdfrwt>
<pdfrwt beam="2">  1       -1 0.22636300E+00 0.82118067E+03</pdfrwt>
<totfact> 0.50056849E+00</totfact>
</mgrwt>
</event>
<event>
 4    5  0.7176259E-008  0.1428098E+04  0.7818608E-02  0.8962152E-01
         -1   -1    0    0    0  501 -0.00000000000E+00  0.00000000000E+00  0.11515381467E+04  0.11515381467E+04  0.50400000000E-02 0.  1.
          1   -1    0    0  501    0  0.00000000000E+00 -0.00000000000E+00 -0.19380222192E+04  0.19380222192E+04  0.50400000000E-02 0. -1.
    8880023    1    1    2    0    0  0.10272173854E+04  0.74194143784E+03 -0.10670940714E+04  0.17827373945E+04  0.65864270000E+03 0.  0.
    8880022    1    1    2    0    0 -0.10272173854E+04 -0.74194143784E+03  0.28060999889E+03  0.13068229714E+04  0.15294330000E+03 0.  0.
<mgrwt>
<rscale>  0 0.13885453E+04</rscale>
<asrwt>0</asrwt>
<pdfrwt beam="1">  1        1 0.29815726E+00 0.14280976E+04</pdfrwt>
<pdfrwt beam="2">  1       -1 0.17715972E+00 0.14280976E+04</pdfrwt>
<totfact> 0.68384421E-01</totfact>
</mgrwt>
</event>
<event>
 4    5  0.7176259E-008  0.7220040E+03  0.7818608E-02  0.9915863E-01
          1   -1    0    0  501    0  0.00000000000E+00  0.00000000000E+00  0.24135897620E+04  0.24135897620E+04  0.50400000000E-02 0. -1.
         -1   -1    0    0    0  501 -0.00000000000E+00 -0.00000000000E+00 -0.79814091509E+03  0.79814091510E+03  0.50400000000E-02 0.  1.
    8880023    1    1    2    0    0 -0.19503271132E+03  0.22235510179E+03  0.23214568855E+04  0.24311420829E+04  0.65864270000E+03 0. -1.
    8880022    1    1    2    0    0  0.19503271132E+03 -0.22235510179E+03 -0.70600803861E+03  0.78058859418E+03  0.15294330000E+03 0.  0.
<mgrwt>
<rscale>  0 0.59498640E+03</rscale>
<asrwt>0</asrwt>
<pdfrwt beam="1">  1        1 0.37132150E+00 0.72200399E+03</pdfrwt>
<pdfrwt beam="2">  1       -1 0.12279091E+00 0.72200399E+03</pdfrwt>
<totfact> 0.97563914E-01</totfact>
</mgrwt>
</event>
<event>
 4    5  0.7176259E-008  0.8599946E+03  0.7818608E-02  0.9593573E-01
          1   -1    0    0  501    0  0.00000000000E+00  0.00000000000E+00  0.73479632442E+03  0.73479632444E+03  0.50400000000E-02 0. -1.
         -1   -1    0    0    0  501 -0.00000000000E+00 -0.00000000000E+00 -0.17074931515E+04  0.17074931515E+04  0.50400000000E-02 0.  1.
    8880023    1    1    2    0    0  0.35272927574E+03  0.42586674163E+03  0.40449214546E+03  0.95037073061E+03  0.65864270000E+03 0.  0.
    8880022    1    1    2    0    0 -0.35272927574E+03 -0.42586674163E+03 -0.13771889726E+04  0.14919187453E+04  0.15294330000E+03 0.  0.
<mgrwt>
<rscale>  0 0.77723017E+03</rscale>
<asrwt>0</asrwt>
<pdfrwt beam="1">  1        1 0.11304559E+00 0.85999455E+03</pdfrwt>
<pdfrwt beam="2">  1       -1 0.26269125E+00 0.85999455E+03</pdfrwt>
<totfact> 0.15010407E+00</totfact>
</mgrwt>
</event>
<event>
 4    5  0.7176259E-008  0.8800489E+03  0.7818608E-02  0.9558850E-01
          1   -1    0    0  501    0  0.00000000000E+00  0.00000000000E+00  0.17960716383E+04  0.17960716383E+04  0.50400000000E-02 0. -1.
         -1   -1    0    0    0  501 -0.00000000000E+00 -0.00000000000E+00 -0.56920424646E+03  0.56920424648E+03  0.50400000000E-02 0.  1.
    8880023    1    1    2    0    0  0.56845723945E+03 -0.13240929959E+03  0.14711807656E+04  0.17143100382E+04  0.65864270000E+03 0.  0.
    8880022    1    1    2    0    0 -0.56845723945E+03  0.13240929959E+03 -0.24431337383E+03  0.65096584653E+03  0.15294330000E+03 0.  0.
<mgrwt>
<rscale>  0 0.80080697E+03</rscale>
<asrwt>0</asrwt>
<pdfrwt beam="1">  1        1 0.27631871E+00 0.88004890E+03</pdfrwt>
<pdfrwt beam="2">  1       -1 0.87569886E-01 0.88004890E+03</pdfrwt>
<totfact> 0.53905566E+00</totfact>
</mgrwt>
</event>
<event>
 4    5  0.7176259E-008  0.7689249E+03  0.7818608E-02  0.9782527E-01
          1   -1    0    0  501    0  0.00000000000E+00  0.00000000000E+00  0.80227878331E+03  0.80227878332E+03  0.50400000000E-02 0. -1.
         -1   -1    0    0    0  501 -0.00000000000E+00 -0.00000000000E+00 -0.66621111211E+03  0.66621111213E+03  0.50400000000E-02 0.  1.
    8880023    1    1    2    0    0 -0.39445134729E+03  0.42935625982E+02  0.49292396708E+03  0.91335621580E+03  0.65864270000E+03 0.  0.
    8880022    1    1    2    0    0  0.39445134729E+03 -0.42935625982E+02 -0.35685629589E+03  0.55513367965E+03  0.15294330000E+03 0.  0.
<mgrwt>
<rscale>  0 0.66308753E+03</rscale>
<asrwt>0</asrwt>
<pdfrwt beam="1">  1        1 0.12342750E+00 0.76892492E+03</pdfrwt>
<pdfrwt beam="2">  1       -1 0.10249402E+00 0.76892492E+03</pdfrwt>
<totfact> 0.20319685E+01</totfact>
</mgrwt>
</event>
<event>
 4    5  0.7176259E-008  0.7144773E+03  0.7818608E-02  0.9941736E-01
          1   -1    0    0  501    0  0.00000000000E+00  0.00000000000E+00  0.17133844367E+04  0.17133844367E+04  0.50400000000E-02 0. -1.
         -1   -1    0    0    0  501 -0.00000000000E+00 -0.00000000000E+00 -0.23582340030E+03  0.23582340035E+03  0.50400000000E-02 0.  1.
    8880023    1    1    2    0    0  0.27572969241E+03 -0.25312011128E+02  0.14681214419E+04  0.16327456432E+04  0.65864270000E+03 0. -1.
    8880022    1    1    2    0    0 -0.27572969241E+03  0.25312011128E+02  0.94395945728E+01  0.31646219386E+03  0.15294330000E+03 0.  0.
<mgrwt>
<rscale>  0 0.58280524E+03</rscale>
<asrwt>0</asrwt>
<pdfrwt beam="1">  1        1 0.26359762E+00 0.71447727E+03</pdfrwt>
<pdfrwt beam="2">  1       -1 0.36280521E-01 0.71447727E+03</pdfrwt>
<totfact> 0.35218154E+01</totfact>
</mgrwt>
</event>
<event>
 4    5  0.7176259E-008  0.1551462E+04  0.7818608E-02  0.8874126E-01
          1   -1    0    0  501    0  0.00000000000E+00  0.00000000000E+00  0.15332157736E+04  0.15332157736E+04  0.50400000000E-02 0. -1.
         -1   -1    0    0    0  501 -0.00000000000E+00 -0.00000000000E+00 -0.15202866072E+04  0.15202866072E+04  0.50400000000E-02 0.  1.
    8880023    1    1    2    0    0 -0.36490468952E+03  0.13564912038E+04  0.37229201354E+03  0.15955047377E+04  0.65864270000E+03 0.  0.
    8880022    1    1    2    0    0  0.36490468952E+03 -0.13564912038E+04 -0.35936284711E+03  0.14579976431E+04  0.15294330000E+03 0.  0.
<mgrwt>
<rscale>  0 0.15156281E+04</rscale>
<asrwt>0</asrwt>
<pdfrwt beam="1">  1        1 0.23587935E+00 0.15514619E+04</pdfrwt>
<pdfrwt beam="2">  1       -1 0.23389025E+00 0.15514619E+04</pdfrwt>
<totfact> 0.51925464E-01</totfact>
</mgrwt>
</event>
<event>
 4    5  0.7176259E-008  0.6643105E+03  0.7818608E-02  0.1020119E+00
         -1   -1    0    0    0  501 -0.00000000000E+00  0.00000000000E+00  0.28364763430E+03  0.28364763435E+03  0.50400000000E-02 0.  1.
          1   -1    0    0  501    0  0.00000000000E+00 -0.00000000000E+00 -0.12946738694E+04  0.12946738695E+04  0.50400000000E-02 0. -1.
    8880023    1    1    2    0    0  0.87600328709E+01 -0.86148442896E+02 -0.11673293751E+04  0.13431181514E+04  0.65864270000E+03 0. -1.
    8880022    1    1    2    0    0 -0.87600328709E+01  0.86148442896E+02  0.15630313998E+03  0.23520335238E+03  0.15294330000E+03 0.  0.
<mgrwt>
<rscale>  0 0.47643702E+03</rscale>
<asrwt>0</asrwt>
<pdfrwt beam="1">  1        1 0.19918059E+00 0.66431054E+03</pdfrwt>
<pdfrwt beam="2">  1       -1 0.43638098E-01 0.66431054E+03</pdfrwt>
<totfact> 0.49049651E+01</totfact>
</mgrwt>
</event>
<event>
 4    5  0.7176259E-008  0.8119624E+03  0.7818608E-02  0.9685504E-01
         -1   -1    0    0    0  501 -0.00000000000E+00  0.00000000000E+00  0.48146768503E+03  0.48146768505E+03  0.50400000000E-02 0.  1.
          1   -1    0    0  501    0  0.00000000000E+00 -0.00000000000E+00 -0.16678118793E+04  0.16678118793E+04  0.50400000000E-02 0. -1.
    8880023    1    1    2    0    0 -0.44702908160E+03 -0.16011805142E+03 -0.13905395433E+04  0.16102432170E+04  0.65864270000E+03 0.  0.
    8880022    1    1    2    0    0  0.44702908160E+03  0.16011805142E+03  0.20419534902E+03  0.53903634735E+03  0.15294330000E+03 0.  0.
<mgrwt>
<rscale>  0 0.71886495E+03</rscale>
<asrwt>0</asrwt>
<pdfrwt beam="1">  1        1 0.25658644E+00 0.81196244E+03</pdfrwt>
<pdfrwt beam="2">  1       -1 0.74071952E-01 0.81196244E+03</pdfrwt>
<totfact> 0.94916641E+00</totfact>
</mgrwt>
</event>
<event>
 4    5  0.7176259E-008  0.9613402E+03  0.7818608E-02  0.9433982E-01
          1   -1    0    0  501    0  0.00000000000E+00  0.00000000000E+00  0.18986794837E+04  0.18986794837E+04  0.50400000000E-02 0. -1.
         -1   -1    0    0    0  501 -0.00000000000E+00 -0.00000000000E+00 -0.73284837079E+03  0.73284837081E+03  0.50400000000E-02 0.  1.
    8880023    1    1    2    0    0  0.46496617475E+03 -0.52361358911E+03  0.15457426718E+04  0.18203008949E+04  0.65864270000E+03 0.  0.
    8880022    1    1    2    0    0 -0.46496617475E+03  0.52361358911E+03 -0.37991155890E+03  0.81122695959E+03  0.15294330000E+03 0.  0.
<mgrwt>
<rscale>  0 0.89331057E+03</rscale>
<asrwt>0</asrwt>
<pdfrwt beam="1">  1        1 0.29210454E+00 0.96134018E+03</pdfrwt>
<pdfrwt beam="2">  1       -1 0.11274590E+00 0.96134018E+03</pdfrwt>
<totfact> 0.25512957E+00</totfact>
</mgrwt>
</event>
<event>
 4    5  0.7176261E-008  0.7583826E+03  0.7818608E-02  0.9809313E-01
          1   -1    0    0  501    0  0.00000000000E+00  0.00000000000E+00  0.28911969671E+04  0.28911969671E+04  0.50400000000E-02 0. -1.
         -1   -1    0    0    0  501 -0.00000000000E+00 -0.00000000000E+00 -0.69114041467E+03  0.69114041469E+03  0.50400000000E-02 0.  1.
    8880023    1    1    2    0    0  0.16390693071E+03  0.33833190933E+03  0.27760149276E+04  0.28777427000E+04  0.65864270000E+03 0.  0.
    8880022    1    1    2    0    0 -0.16390693071E+03 -0.33833190933E+03 -0.57595837513E+03  0.70459468185E+03  0.15294330000E+03 0.  0.
<mgrwt>
<rscale>  0 0.64865148E+03</rscale>
<asrwt>0</asrwt>
<pdfrwt beam="1">  1        1 0.44479954E+00 0.75838260E+03</pdfrwt>
<pdfrwt beam="2">  1       -1 0.10632929E+00 0.75838260E+03</pdfrwt>
<totfact> 0.63793779E-01</totfact>
</mgrwt>
</event>
<event>
 4    5  0.7176259E-008  0.7620375E+03  0.7818608E-02  0.9799861E-01
          1   -1    0    0  501    0  0.00000000000E+00  0.00000000000E+00  0.65087947389E+03  0.65087947391E+03  0.50400000000E-02 0. -1.
         -1   -1    0    0    0  501 -0.00000000000E+00 -0.00000000000E+00 -0.63152414973E+03  0.63152414975E+03  0.50400000000E-02 0.  1.
    8880023    1    1    2    0    0  0.37751019126E+03 -0.66159086031E+02  0.25943958188E+03  0.80499072795E+03  0.65864270000E+03 0. -1.
    8880022    1    1    2    0    0 -0.37751019126E+03  0.66159086031E+02 -0.24008425772E+03  0.47741289571E+03  0.15294330000E+03 0.  0.
<mgrwt>
<rscale>  0 0.65370011E+03</rscale>
<asrwt>0</asrwt>
<pdfrwt beam="1">  1        1 0.10013530E+00 0.76203752E+03</pdfrwt>
<pdfrwt beam="2">  1       -1 0.97157561E-01 0.76203752E+03</pdfrwt>
<totfact> 0.31652904E+01</totfact>
</mgrwt>
</event>
<event>
 4    5  0.7176259E-008  0.6860410E+03  0.7818608E-02  0.1006094E+00
         -1   -1    0    0    0  501 -0.00000000000E+00  0.00000000000E+00  0.13858947561E+04  0.13858947561E+04  0.50400000000E-02 0.  1.
          1   -1    0    0  501    0  0.00000000000E+00 -0.00000000000E+00 -0.16071050679E+03  0.16071050687E+03  0.50400000000E-02 0. -1.
    8880023    1    1    2    0    0  0.16268828952E+03  0.10185558943E+03  0.78424500842E+03  0.10419656809E+04  0.65864270000E+03 0. -1.
    8880022    1    1    2    0    0 -0.16268828952E+03 -0.10185558943E+03  0.44093924092E+03  0.50463958212E+03  0.15294330000E+03 0. -1.
<mgrwt>
<rscale>  0 0.53056975E+03</rscale>
<asrwt>0</asrwt>
<pdfrwt beam="1">  1        1 0.24724694E-01 0.68604100E+03</pdfrwt>
<pdfrwt beam="2">  1       -1 0.21321458E+00 0.68604100E+03</pdfrwt>
<totfact> 0.25018158E+01</totfact>
</mgrwt>
</event>
<event>
 4    5  0.7176259E-008  0.7216710E+03  0.7818608E-02  0.9916972E-01
          1   -1    0    0  501    0  0.00000000000E+00  0.00000000000E+00  0.61984013129E+03  0.61984013132E+03  0.50400000000E-02 0. -1.
         -1   -1    0    0    0  501 -0.00000000000E+00 -0.00000000000E+00 -0.59274429465E+03  0.59274429467E+03  0.50400000000E-02 0.  1.
    8880023    1    1    2    0    0 -0.59110461836E+02  0.28897195109E+03  0.30105881542E+03  0.78194977577E+03  0.65864270000E+03 0. -1.
    8880022    1    1    2    0    0  0.59110461836E+02 -0.28897195109E+03 -0.27396297878E+03  0.43063465022E+03  0.15294330000E+03 0.  0.
<mgrwt>
<rscale>  0 0.59445762E+03</rscale>
<asrwt>0</asrwt>
<pdfrwt beam="1">  1        1 0.95360021E-01 0.72167101E+03</pdfrwt>
<pdfrwt beam="2">  1       -1 0.91191430E-01 0.72167101E+03</pdfrwt>
<totfact> 0.39316820E+01</totfact>
</mgrwt>
</event>
<event>
 4    5  0.7176259E-008  0.1094523E+04  0.7818608E-02  0.9267179E-01
         -1   -1    0    0    0  501 -0.00000000000E+00  0.00000000000E+00  0.79616248111E+03  0.79616248113E+03  0.50400000000E-02 0.  1.
          1   -1    0    0  501    0  0.00000000000E+00 -0.00000000000E+00 -0.14903524605E+04  0.14903524605E+04  0.50400000000E-02 0. -1.
    8880023    1    1    2    0    0 -0.67064452515E+03  0.56071869056E+03  0.95375661259E+02  0.10986702199E+04  0.65864270000E+03 0.  0.
    8880022    1    1    2    0    0  0.67064452515E+03 -0.56071869056E+03 -0.78956564062E+03  0.11878447217E+04  0.15294330000E+03 0.  0.
<mgrwt>
<rscale>  0 0.10386138E+04</rscale>
<asrwt>0</asrwt>
<pdfrwt beam="1">  1        1 0.22928499E+00 0.10945226E+04</pdfrwt>
<pdfrwt beam="2">  1       -1 0.12248654E+00 0.10945226E+04</pdfrwt>
<totfact> 0.38866178E+00</totfact>
</mgrwt>
</event>
<event>
 4    5  0.8738283E-008  0.7921866E+03  0.7818608E-02  0.9727952E-01
         -1   -1    0    0    0  501 -0.00000000000E+00  0.00000000000E+00  0.12780356327E+04  0.12780356327E+04  0.50400000000E-02 0.  1.
          1   -1    0    0  501    0  0.00000000000E+00 -0.00000000000E+00 -0.17954925990E+04  0.17954925990E+04  0.50400000000E-02 0. -1.
    8880023    1    1    2    0    0  0.32398328002E+03 -0.29796693558E+03 -0.16601513292E+04  0.18394733220E+04  0.65864270000E+03 0.  0.
    8880022    1    1    2    0    0 -0.32398328002E+03  0.29796693558E+03  0.11426943629E+04  0.12340549098E+04  0.15294330000E+03 0.  0.
<mgrwt>
<rscale>  0 0.69376661E+03</rscale>
<asrwt>0</asrwt>
<pdfrwt beam="1">  1        1 0.27622963E+00 0.79218664E+03</pdfrwt>
<pdfrwt beam="2">  1       -1 0.19662087E+00 0.79218664E+03</pdfrwt>
<totfact> 0.68398187E-01</totfact>
</mgrwt>
</event>
<event>
 4    5  0.7176259E-008  0.7420323E+03  0.7818608E-02  0.9854066E-01
         -1   -1    0    0    0  501 -0.00000000000E+00  0.00000000000E+00  0.74392905764E+03  0.74392905765E+03  0.50400000000E-02 0.  1.
          1   -1    0    0  501    0  0.00000000000E+00 -0.00000000000E+00 -0.11043924669E+04  0.11043924669E+04  0.50400000000E-02 0. -1.
    8880023    1    1    2    0    0 -0.10771135344E+03  0.32434547072E+03 -0.91571592273E+03  0.11786210491E+04  0.65864270000E+03 0. -1.
    8880022    1    1    2    0    0  0.10771135344E+03 -0.32434547072E+03  0.55525251348E+03  0.66970047542E+03  0.15294330000E+03 0.  0.
<mgrwt>
<rscale>  0 0.62540024E+03</rscale>
<asrwt>0</asrwt>
<pdfrwt beam="1">  1        1 0.16990654E+00 0.74203229E+03</pdfrwt>
<pdfrwt beam="2">  1       -1 0.11445062E+00 0.74203229E+03</pdfrwt>
<totfact> 0.90448743E+00</totfact>
</mgrwt>
</event>
<event>
 4    5  0.7176259E-008  0.1232500E+04  0.7818608E-02  0.9126159E-01
         -1   -1    0    0    0  501 -0.00000000000E+00  0.00000000000E+00  0.18426928923E+04  0.18426928923E+04  0.50400000000E-02 0.  1.
          1   -1    0    0  501    0  0.00000000000E+00 -0.00000000000E+00 -0.76096540465E+03  0.76096540467E+03  0.50400000000E-02 0. -1.
    8880023    1    1    2    0    0 -0.10406892246E+04 -0.47040523372E+02  0.24001497186E+03  0.12556529241E+04  0.65864270000E+03 0. -1.
    8880022    1    1    2    0    0  0.10406892246E+04  0.47040523372E+02  0.84171251582E+03  0.13480053729E+04  0.15294330000E+03 0.  0.
<mgrwt>
<rscale>  0 0.11849200E+04</rscale>
<asrwt>0</asrwt>
<pdfrwt beam="1">  1        1 0.11707160E+00 0.12325003E+04</pdfrwt>
<pdfrwt beam="2">  1       -1 0.28349121E+00 0.12325003E+04</pdfrwt>
<totfact> 0.99379237E-01</totfact>
</mgrwt>
</event>
<event>
 4    5  0.7176259E-008  0.8279304E+03  0.7818608E-02  0.9653373E-01
         -1   -1    0    0    0  501 -0.00000000000E+00  0.00000000000E+00  0.11268182409E+04  0.11268182409E+04  0.50400000000E-02 0.  1.
          1   -1    0    0  501    0  0.00000000000E+00 -0.00000000000E+00 -0.13897630729E+04  0.13897630729E+04  0.50400000000E-02 0. -1.
    8880023    1    1    2    0    0 -0.48425261122E+03 -0.13098851940E+03 -0.11910535298E+04  0.14505437949E+04  0.65864270000E+03 0. -1.
    8880022    1    1    2    0    0  0.48425261122E+03  0.13098851940E+03  0.92810869784E+03  0.10660375189E+04  0.15294330000E+03 0.  0.
<mgrwt>
<rscale>  0 0.73862140E+03</rscale>
<asrwt>0</asrwt>
<pdfrwt beam="1">  1        1 0.21380970E+00 0.82793043E+03</pdfrwt>
<pdfrwt beam="2">  1       -1 0.17335665E+00 0.82793043E+03</pdfrwt>
<totfact> 0.18745008E+00</totfact>
</mgrwt>
</event>
<event>
 4    5  0.7419397E-008  0.8530784E+03  0.7818608E-02  0.9605996E-01
          1   -1    0    0  501    0  0.00000000000E+00  0.00000000000E+00  0.22462692524E+04  0.22462692524E+04  0.50400000000E-02 0. -1.
         -1   -1    0    0    0  501 -0.00000000000E+00 -0.00000000000E+00 -0.83698854448E+03  0.83698854450E+03  0.50400000000E-02 0.  1.
    8880023    1    1    2    0    0  0.25689038731E+03  0.47743045227E+03  0.20557903805E+04  0.22257620723E+04  0.65864270000E+03 0.  0.
    8880022    1    1    2    0    0 -0.25689038731E+03 -0.47743045227E+03 -0.64650967260E+03  0.85749572455E+03  0.15294330000E+03 0.  0.
<mgrwt>
<rscale>  0 0.76900576E+03</rscale>
<asrwt>0</asrwt>
<pdfrwt beam="1">  1        1 0.34557988E+00 0.85307838E+03</pdfrwt>
<pdfrwt beam="2">  1       -1 0.12876747E+00 0.85307838E+03</pdfrwt>
<totfact> 0.10947261E+00</totfact>
</mgrwt>
</event>
<event>
 4    5  0.7176259E-008  0.7845222E+03  0.7818608E-02  0.9745319E-01
          1   -1    0    0  501    0  0.00000000000E+00  0.00000000000E+00  0.68466257482E+03  0.68466257484E+03  0.50400000000E-02 0. -1.
         -1   -1    0    0    0  501 -0.00000000000E+00 -0.00000000000E+00 -0.71108626334E+03  0.71108626336E+03  0.50400000000E-02 0.  1.
    8880023    1    1    2    0    0 -0.24487515131E+03  0.34885683734E+03  0.29744825834E+03  0.83901764304E+03  0.65864270000E+03 0.  0.
    8880022    1    1    2    0    0  0.24487515131E+03 -0.34885683734E+03 -0.32387194685E+03  0.55673119515E+03  0.15294330000E+03 0.  0.
<mgrwt>
<rscale>  0 0.68381427E+03</rscale>
<asrwt>0</asrwt>
<pdfrwt beam="1">  1        1 0.10533270E+00 0.78452224E+03</pdfrwt>
<pdfrwt beam="2">  1       -1 0.10939789E+00 0.78452224E+03</pdfrwt>
<totfact> 0.22274501E+01</totfact>
</mgrwt>
</event>
<event>
 4    5  0.7176259E-008  0.6692068E+03  0.7818608E-02  0.1016238E+00
          1   -1    0    0  501    0  0.00000000000E+00  0.00000000000E+00  0.16947667133E+04  0.16947667133E+04  0.50400000000E-02 0. -1.
         -1   -1    0    0    0  501 -0.00000000000E+00 -0.00000000000E+00 -0.11129528113E+03  0.11129528124E+03  0.50400000000E-02 0.  1.
    8880023    1    1    2    0    0 -0.11271130205E+03 -0.36383119146E+02  0.13107736433E+04  0.14717218892E+04  0.65864270000E+03 0. -1.
    8880022    1    1    2    0    0  0.11271130205E+03  0.36383119146E+02  0.27269778893E+03  0.33434010539E+03  0.15294330000E+03 0. -1.
<mgrwt>
<rscale>  0 0.49068990E+03</rscale>
<asrwt>0</asrwt>
<pdfrwt beam="1">  1        1 0.26073336E+00 0.66920683E+03</pdfrwt>
<pdfrwt beam="2">  1       -1 0.17122350E-01 0.66920683E+03</pdfrwt>
<totfact> 0.13121733E+02</totfact>
</mgrwt>
</event>
<event>
 4    5  0.7176259E-008  0.1664284E+04  0.7818608E-02  0.8801575E-01
         -1   -1    0    0    0  501 -0.00000000000E+00  0.00000000000E+00  0.23873753714E+04  0.23873753715E+04  0.50400000000E-02 0.  1.
          1   -1    0    0  501    0  0.00000000000E+00 -0.00000000000E+00 -0.13287452392E+04  0.13287452393E+04  0.50400000000E-02 0. -1.
    8880023    1    1    2    0    0  0.14851867342E+04  0.36090507401E+03 -0.26895066075E+03  0.16858756692E+04  0.65864270000E+03 0.  0.
    8880022    1    1    2    0    0 -0.14851867342E+04 -0.36090507401E+03  0.13275807930E+04  0.20302449415E+04  0.15294330000E+03 0.  0.
<mgrwt>
<rscale>  0 0.16312532E+04</rscale>
<asrwt>0</asrwt>
<pdfrwt beam="1">  1        1 0.20442235E+00 0.16642843E+04</pdfrwt>
<pdfrwt beam="2">  1       -1 0.36728852E+00 0.16642843E+04</pdfrwt>
<totfact> 0.95631621E-02</totfact>
</mgrwt>
</event>
<event>
 4    5  0.7176259E-008  0.6818966E+03  0.7818608E-02  0.1008271E+00
          1   -1    0    0  501    0  0.00000000000E+00  0.00000000000E+00  0.38055698873E+03  0.38055698877E+03  0.50400000000E-02 0. -1.
         -1   -1    0    0    0  501 -0.00000000000E+00 -0.00000000000E+00 -0.40369714986E+04  0.40369714986E+04  0.50400000000E-02 0.  1.
    8880023    1    1    2    0    0  0.57468485402E+02 -0.16694342398E+03  0.68471210844E+02  0.68532565004E+03  0.65864270000E+03 0. -1.
    8880022    1    1    2    0    0 -0.57468485402E+02  0.16694342398E+03 -0.37248857207E+04  0.37322028373E+04  0.15294330000E+03 0.  0.
<mgrwt>
<rscale>  0 0.52167802E+03</rscale>
<asrwt>0</asrwt>
<pdfrwt beam="1">  1        1 0.58547232E-01 0.68189658E+03</pdfrwt>
<pdfrwt beam="2">  1       -1 0.62107251E+00 0.68189658E+03</pdfrwt>
<totfact> 0.24510110E-02</totfact>
</mgrwt>
</event>
<event>
 4    5  0.7176259E-008  0.8839825E+03  0.7818608E-02  0.9552250E-01
          1   -1    0    0  501    0  0.00000000000E+00  0.00000000000E+00  0.19299511314E+04  0.19299511314E+04  0.50400000000E-02 0. -1.
         -1   -1    0    0    0  501 -0.00000000000E+00 -0.00000000000E+00 -0.40008715660E+03  0.40008715663E+03  0.50400000000E-02 0.  1.
    8880023    1    1    2    0    0 -0.46857527846E+03  0.35784362721E+03  0.14735155356E+04  0.17183343950E+04  0.65864270000E+03 0. -1.
    8880022    1    1    2    0    0  0.46857527846E+03 -0.35784362721E+03  0.56348439175E+02  0.61170389302E+03  0.15294330000E+03 0.  0.
<mgrwt>
<rscale>  0 0.80538853E+03</rscale>
<asrwt>0</asrwt>
<pdfrwt beam="1">  1        1 0.29691556E+00 0.88398250E+03</pdfrwt>
<pdfrwt beam="2">  1       -1 0.61551870E-01 0.88398250E+03</pdfrwt>
<totfact> 0.91242029E+00</totfact>
</mgrwt>
</event>
<event>
 4    5  0.7176259E-008  0.8404423E+03  0.7818608E-02  0.9629347E-01
         -1   -1    0    0    0  501 -0.00000000000E+00  0.00000000000E+00  0.35933837335E+03  0.35933837339E+03  0.50400000000E-02 0.  1.
          1   -1    0    0  501    0  0.00000000000E+00 -0.00000000000E+00 -0.19316199321E+04  0.19316199321E+04  0.50400000000E-02 0. -1.
    8880023    1    1    2    0    0  0.24209194639E+03  0.46251982871E+03 -0.27508589238E+03  0.88431643482E+03  0.65864270000E+03 0.  0.
    8880022    1    1    2    0    0 -0.24209194639E+03 -0.46251982871E+03 -0.12971956664E+04  0.14066418707E+04  0.15294330000E+03 0.  0.
<mgrwt>
<rscale>  0 0.75383900E+03</rscale>
<asrwt>0</asrwt>
<pdfrwt beam="1">  1        1 0.29717229E+00 0.84044233E+03</pdfrwt>
<pdfrwt beam="2">  1       -1 0.55282828E-01 0.84044233E+03</pdfrwt>
<totfact> 0.11303329E+01</totfact>
</mgrwt>
</event>
<event>
 4    5  0.7176259E-008  0.1256132E+04  0.7818608E-02  0.9104400E-01
          1   -1    0    0  501    0  0.00000000000E+00  0.00000000000E+00  0.31316467893E+04  0.31316467893E+04  0.50400000000E-02 0. -1.
         -1   -1    0    0    0  501 -0.00000000000E+00 -0.00000000000E+00 -0.75977454767E+03  0.75977454768E+03  0.50400000000E-02 0.  1.
    8880023    1    1    2    0    0  0.20663162679E+03 -0.10494573629E+04  0.25054564701E+04  0.28027093527E+04  0.65864270000E+03 0. -1.
    8880022    1    1    2    0    0 -0.20663162679E+03  0.10494573629E+04 -0.13358422839E+03  0.10887119844E+04  0.15294330000E+03 0.  0.
<mgrwt>
<rscale>  0 0.12097098E+04</rscale>
<asrwt>0</asrwt>
<pdfrwt beam="1">  1        1 0.48179181E+00 0.12561320E+04</pdfrwt>
<pdfrwt beam="2">  1       -1 0.11688839E+00 0.12561320E+04</pdfrwt>
<totfact> 0.31186746E-01</totfact>
</mgrwt>
</event>
<event>
 4    5  0.7176259E-008  0.8461040E+03  0.7818608E-02  0.9618776E-01
          1   -1    0    0  501    0  0.00000000000E+00  0.00000000000E+00  0.78088956492E+03  0.78088956494E+03  0.50400000000E-02 0. -1.
         -1   -1    0    0    0  501 -0.00000000000E+00 -0.00000000000E+00 -0.18103493824E+04  0.18103493824E+04  0.50400000000E-02 0.  1.
    8880023    1    1    2    0    0 -0.52587502745E+03 -0.74412294424E+02  0.48766100410E+03  0.97657830983E+03  0.65864270000E+03 0. -1.
    8880022    1    1    2    0    0  0.52587502745E+03  0.74412294424E+02 -0.15171208216E+04  0.16146606375E+04  0.15294330000E+03 0.  0.
<mgrwt>
<rscale>  0 0.76065807E+03</rscale>
<asrwt>0</asrwt>
<pdfrwt beam="1">  1        1 0.12013686E+00 0.84610398E+03</pdfrwt>
<pdfrwt beam="2">  1       -1 0.27851529E+00 0.84610398E+03</pdfrwt>
<totfact> 0.10827604E+00</totfact>
</mgrwt>
</event>
<event>
 4    5  0.7176259E-008  0.7920938E+03  0.7818608E-02  0.9728159E-01
          1   -1    0    0  501    0  0.00000000000E+00  0.00000000000E+00  0.10582228696E+04  0.10582228696E+04  0.50400000000E-02 0. -1.
         -1   -1    0    0    0  501 -0.00000000000E+00 -0.00000000000E+00 -0.75880078507E+03  0.75880078509E+03  0.50400000000E-02 0.  1.
    8880023    1    1    2    0    0 -0.33968422590E+03 -0.27967311482E+03  0.80514469141E+03  0.11294558888E+04  0.65864270000E+03 0. -1.
    8880022    1    1    2    0    0  0.33968422590E+03  0.27967311482E+03 -0.50572260690E+03  0.68756776584E+03  0.15294330000E+03 0.  0.
<mgrwt>
<rscale>  0 0.69364691E+03</rscale>
<asrwt>0</asrwt>
<pdfrwt beam="1">  1        1 0.16280352E+00 0.79209383E+03</pdfrwt>
<pdfrwt beam="2">  1       -1 0.11673858E+00 0.79209383E+03</pdfrwt>
<totfact> 0.92788317E+00</totfact>
</mgrwt>
</event>
<event>
 4    5  0.7176259E-008  0.7265969E+03  0.7818608E-02  0.9900865E-01
          1   -1    0    0  501    0  0.00000000000E+00  0.00000000000E+00  0.15499923455E+04  0.15499923455E+04  0.50400000000E-02 0. -1.
         -1   -1    0    0    0  501 -0.00000000000E+00 -0.00000000000E+00 -0.23322501098E+03  0.23322501104E+03  0.50400000000E-02 0.  1.
    8880023    1    1    2    0    0 -0.21028895553E+03 -0.22340852930E+03  0.12316315146E+04  0.14299857376E+04  0.65864270000E+03 0.  0.
    8880022    1    1    2    0    0  0.21028895553E+03  0.22340852930E+03  0.85135819963E+02  0.35323161897E+03  0.15294330000E+03 0.  0.
<mgrwt>
<rscale>  0 0.60219366E+03</rscale>
<asrwt>0</asrwt>
<pdfrwt beam="1">  1        1 0.23846035E+00 0.72659688E+03</pdfrwt>
<pdfrwt beam="2">  1       -1 0.35880772E-01 0.72659688E+03</pdfrwt>
<totfact> 0.46250915E+01</totfact>
</mgrwt>
</event>
<event>
 4    5  0.7176259E-008  0.2341557E+04  0.7818608E-02  0.8470508E-01
         -1   -1    0    0    0  501 -0.00000000000E+00  0.00000000000E+00  0.24850908017E+04  0.24850908017E+04  0.50400000000E-02 0.  1.
          1   -1    0    0  501    0  0.00000000000E+00 -0.00000000000E+00 -0.30978908540E+04  0.30978908540E+04  0.50400000000E-02 0. -1.
    8880023    1    1    2    0    0  0.18278434232E+04 -0.13069300499E+04 -0.18762956346E+04  0.30005621556E+04  0.65864270000E+03 0. -1.
    8880022    1    1    2    0    0 -0.18278434232E+04  0.13069300499E+04  0.12634955823E+04  0.25824195001E+04  0.15294330000E+03 0.  0.
<mgrwt>
<rscale>  0 0.23188942E+04</rscale>
<asrwt>0</asrwt>
<pdfrwt beam="1">  1        1 0.47659859E+00 0.23415567E+04</pdfrwt>
<pdfrwt beam="2">  1       -1 0.38232166E+00 0.23415567E+04</pdfrwt>
<totfact> 0.40522496E-03</totfact>
</mgrwt>
</event>
<event>
 4    5  0.7176259E-008  0.9784851E+03  0.7818608E-02  0.9410263E-01
          1   -1    0    0  501    0  0.00000000000E+00  0.00000000000E+00  0.23176927928E+04  0.23176927928E+04  0.50400000000E-02 0. -1.
         -1   -1    0    0    0  501 -0.00000000000E+00 -0.00000000000E+00 -0.64987032649E+03  0.64987032651E+03  0.50400000000E-02 0.  1.
    8880023    1    1    2    0    0  0.71413969130E+03 -0.11673625175E+03  0.19453754159E+04  0.21775946744E+04  0.65864270000E+03 0. -1.
    8880022    1    1    2    0    0 -0.71413969130E+03  0.11673625175E+03 -0.27755294953E+03  0.78996844492E+03  0.15294330000E+03 0.  0.
<mgrwt>
<rscale>  0 0.91235848E+03</rscale>
<asrwt>0</asrwt>
<pdfrwt beam="1">  1        1 0.35656812E+00 0.97848508E+03</pdfrwt>
<pdfrwt beam="2">  1       -1 0.99980049E-01 0.97848508E+03</pdfrwt>
<totfact> 0.17586638E+00</totfact>
</mgrwt>
</event>
<event>
 4    5  0.7176259E-008  0.1197963E+04  0.7818608E-02  0.9159105E-01
         -1   -1    0    0    0  501 -0.00000000000E+00  0.00000000000E+00  0.14917556425E+04  0.14917556425E+04  0.50400000000E-02 0.  1.
          1   -1    0    0  501    0  0.00000000000E+00 -0.00000000000E+00 -0.35163585194E+04  0.35163585194E+04  0.50400000000E-02 0. -1.
    8880023    1    1    2    0    0 -0.17131291782E+03  0.98587916448E+03 -0.32235684066E+04  0.34389692236E+04  0.65864270000E+03 0.  0.
    8880022    1    1    2    0    0  0.17131291782E+03 -0.98587916448E+03  0.11989655297E+04  0.15691449382E+04  0.15294330000E+03 0.  0.
<mgrwt>
<rscale>  0 0.11485690E+04</rscale>
<asrwt>0</asrwt>
<pdfrwt beam="1">  1        1 0.54097823E+00 0.11979633E+04</pdfrwt>
<pdfrwt beam="2">  1       -1 0.22950087E+00 0.11979633E+04</pdfrwt>
<totfact> 0.23090434E-02</totfact>
</mgrwt>
</event>
<event>
 4    5  0.7176259E-008  0.7636710E+03  0.7818608E-02  0.9795695E-01
          1   -1    0    0  501    0  0.00000000000E+00  0.00000000000E+00  0.14638946291E+04  0.14638946291E+04  0.50400000000E-02 0. -1.
         -1   -1    0    0    0  501 -0.00000000000E+00 -0.00000000000E+00 -0.82967327015E+03  0.82967327016E+03  0.50400000000E-02 0.  1.
    8880023    1    1    2    0    0  0.30435981626E+02 -0.38530092245E+03  0.13005711266E+04  0.15082037699E+04  0.65864270000E+03 0. -1.
    8880022    1    1    2    0    0 -0.30435981626E+02  0.38530092245E+03 -0.66634976768E+03  0.78536412938E+03  0.15294330000E+03 0.  0.
<mgrwt>
<rscale>  0 0.65594098E+03</rscale>
<asrwt>0</asrwt>
<pdfrwt beam="1">  1        1 0.22521456E+00 0.76367097E+03</pdfrwt>
<pdfrwt beam="2">  1       -1 0.12764204E+00 0.76367097E+03</pdfrwt>
<totfact> 0.38297925E+00</totfact>
</mgrwt>
</event>
<event>
 4    5  0.7176259E-008  0.6935918E+03  0.7818608E-02  0.1002490E+00
         -1   -1    0    0    0  501 -0.00000000000E+00  0.00000000000E+00  0.52045420767E+03  0.52045420770E+03  0.50400000000E-02 0.  1.
          1   -1    0    0  501    0  0.00000000000E+00 -0.00000000000E+00 -0.46386496307E+03  0.46386496309E+03  0.50400000000E-02 0. -1.
    8880023    1    1    2    0    0 -0.38262658105E+02  0.21399858403E+03  0.13622556594E+03  0.70684300665E+03  0.65864270000E+03 0.  1.
    8880022    1    1    2    0    0  0.38262658105E+02 -0.21399858403E+03 -0.79636321336E+02  0.27747616414E+03  0.15294330000E+03 0.  0.
<mgrwt>
<rscale>  0 0.54571743E+03</rscale>
<asrwt>0</asrwt>
<pdfrwt beam="1">  1        1 0.71363840E-01 0.69359183E+03</pdfrwt>
<pdfrwt beam="2">  1       -1 0.80069878E-01 0.69359183E+03</pdfrwt>
<totfact> 0.78278964E+01</totfact>
</mgrwt>
</event>
<event>
 4    5  0.7176259E-008  0.8530618E+03  0.7818608E-02  0.9606026E-01
         -1   -1    0    0    0  501 -0.00000000000E+00  0.00000000000E+00  0.15025511266E+04  0.15025511266E+04  0.50400000000E-02 0.  1.
          1   -1    0    0  501    0  0.00000000000E+00 -0.00000000000E+00 -0.99296747711E+03  0.99296747712E+03  0.50400000000E-02 0. -1.
    8880023    1    1    2    0    0 -0.11367550053E+03 -0.53007738575E+03 -0.73715430872E+03  0.11274355128E+04  0.65864270000E+03 0. -1.
    8880022    1    1    2    0    0  0.11367550053E+03  0.53007738575E+03  0.12467379582E+04  0.13680830910E+04  0.15294330000E+03 0.  0.
<mgrwt>
<rscale>  0 0.76898593E+03</rscale>
<asrwt>0</asrwt>
<pdfrwt beam="1">  1        1 0.15276423E+00 0.85306176E+03</pdfrwt>
<pdfrwt beam="2">  1       -1 0.23116171E+00 0.85306176E+03</pdfrwt>
<totfact> 0.14621337E+00</totfact>
</mgrwt>
</event>
<event>
 4    5  0.7176259E-008  0.6606089E+03  0.7818608E-02  0.1023541E+00
          1   -1    0    0  501    0  0.00000000000E+00  0.00000000000E+00  0.18147514496E+04  0.18147514496E+04  0.50400000000E-02 0. -1.
         -1   -1    0    0    0  501 -0.00000000000E+00 -0.00000000000E+00 -0.30023074597E+03  0.30023074601E+03  0.50400000000E-02 0.  1.
    8880023    1    1    2    0    0  0.27653883505E+02  0.42769543303E+02  0.17265599791E+04  0.18486247696E+04  0.65864270000E+03 0. -1.
    8880022    1    1    2    0    0 -0.27653883505E+02 -0.42769543303E+02 -0.21203927540E+03  0.26635742609E+03  0.15294330000E+03 0.  0.
<mgrwt>
<rscale>  0 0.46430139E+03</rscale>
<asrwt>0</asrwt>
<pdfrwt beam="1">  1        1 0.27919253E+00 0.66060894E+03</pdfrwt>
<pdfrwt beam="2">  1       -1 0.46189345E-01 0.66060894E+03</pdfrwt>
<totfact> 0.19542622E+01</totfact>
</mgrwt>
</event>
<event>
 4    5  0.7176259E-008  0.9471487E+03  0.7818608E-02  0.9454228E-01
          1   -1    0    0  501    0  0.00000000000E+00  0.00000000000E+00  0.34903754224E+04  0.34903754224E+04  0.50400000000E-02 0. -1.
         -1   -1    0    0    0  501 -0.00000000000E+00 -0.00000000000E+00 -0.24463880201E+03  0.24463880206E+03  0.50400000000E-02 0.  1.
    8880023    1    1    2    0    0 -0.48770965390E+03  0.47478386471E+03  0.97405896270E+03  0.13586322143E+04  0.65864270000E+03 0.  0.
    8880022    1    1    2    0    0  0.48770965390E+03 -0.47478386471E+03  0.22716776577E+04  0.23763820101E+04  0.15294330000E+03 0.  0.
<mgrwt>
<rscale>  0 0.87744151E+03</rscale>
<asrwt>0</asrwt>
<pdfrwt beam="1">  1        1 0.53698082E+00 0.94714868E+03</pdfrwt>
<pdfrwt beam="2">  1       -1 0.37636739E-01 0.94714868E+03</pdfrwt>
<totfact> 0.18122893E+00</totfact>
</mgrwt>
</event>
<event>
 4    5  0.7176259E-008  0.9950382E+03  0.7818608E-02  0.9388078E-01
          1   -1    0    0  501    0  0.00000000000E+00  0.00000000000E+00  0.22915912020E+04  0.22915912020E+04  0.50400000000E-02 0. -1.
         -1   -1    0    0    0  501 -0.00000000000E+00 -0.00000000000E+00 -0.36918773435E+03  0.36918773439E+03  0.50400000000E-02 0.  1.
    8880023    1    1    2    0    0  0.29691299120E+03 -0.68420285220E+03  0.14701160772E+04  0.17752020601E+04  0.65864270000E+03 0.  0.
    8880022    1    1    2    0    0 -0.29691299120E+03  0.68420285220E+03  0.45228739042E+03  0.88557687631E+03  0.15294330000E+03 0.  0.
<mgrwt>
<rscale>  0 0.93063332E+03</rscale>
<asrwt>0</asrwt>
<pdfrwt beam="1">  1        1 0.35255250E+00 0.99503823E+03</pdfrwt>
<pdfrwt beam="2">  1       -1 0.56798112E-01 0.99503823E+03</pdfrwt>
<totfact> 0.60129952E+00</totfact>
</mgrwt>
</event>
<event>
 4    5  0.7176259E-008  0.6790050E+03  0.7818608E-02  0.1009892E+00
         -1   -1    0    0    0  501 -0.00000000000E+00  0.00000000000E+00  0.48424731240E+03  0.48424731242E+03  0.50400000000E-02 0.  1.
          1   -1    0    0  501    0  0.00000000000E+00 -0.00000000000E+00 -0.10022474312E+04  0.10022474313E+04  0.50400000000E-02 0. -1.
    8880023    1    1    2    0    0 -0.90990829750E+02  0.13768872821E+03 -0.84845793048E+03  0.10867053801E+04  0.65864270000E+03 0. -1.
    8880022    1    1    2    0    0  0.90990829750E+02 -0.13768872821E+03  0.33045781164E+03  0.39978936362E+03  0.15294330000E+03 0.  0.
<mgrwt>
<rscale>  0 0.51517503E+03</rscale>
<asrwt>0</asrwt>
<pdfrwt beam="1">  1        1 0.15419191E+00 0.67900495E+03</pdfrwt>
<pdfrwt beam="2">  1       -1 0.74499587E-01 0.67900495E+03</pdfrwt>
<totfact> 0.28309767E+01</totfact>
</mgrwt>
</event>
<event>
 4    5  0.7176259E-008  0.1001277E+04  0.7818608E-02  0.9379889E-01
         -1   -1    0    0    0  501 -0.00000000000E+00  0.00000000000E+00  0.94939447977E+03  0.94939447978E+03  0.50400000000E-02 0.  1.
          1   -1    0    0  501    0  0.00000000000E+00 -0.00000000000E+00 -0.12014511704E+04  0.12014511705E+04  0.50400000000E-02 0. -1.
    8880023    1    1    2    0    0 -0.74598844628E+03  0.11066706679E+03 -0.73523003895E+03  0.12422235620E+04  0.65864270000E+03 0.  0.
    8880022    1    1    2    0    0  0.74598844628E+03 -0.11066706679E+03  0.48317334827E+03  0.90862208819E+03  0.15294330000E+03 0.  0.
<mgrwt>
<rscale>  0 0.93749422E+03</rscale>
<asrwt>0</asrwt>
<pdfrwt beam="1">  1        1 0.18483864E+00 0.10012773E+04</pdfrwt>
<pdfrwt beam="2">  1       -1 0.14606069E+00 0.10012773E+04</pdfrwt>
<totfact> 0.40073819E+00</totfact>
</mgrwt>
</event>
<event>
 4    5  0.7176259E-008  0.1138099E+04  0.7818608E-02  0.9219777E-01
         -1   -1    0    0    0  501 -0.00000000000E+00  0.00000000000E+00  0.15520496936E+04  0.15520496936E+04  0.50400000000E-02 0.  1.
          1   -1    0    0  501    0  0.00000000000E+00 -0.00000000000E+00 -0.18120320471E+04  0.18120320472E+04  0.50400000000E-02 0. -1.
    8880023    1    1    2    0    0  0.55440280692E+03 -0.74437740583E+03 -0.14524653637E+04  0.18452441664E+04  0.65864270000E+03 0. -1.
    8880022    1    1    2    0    0 -0.55440280692E+03  0.74437740583E+03  0.11924830101E+04  0.15188375743E+04  0.15294330000E+03 0.  0.
<mgrwt>
<rscale>  0 0.10851605E+04</rscale>
<asrwt>0</asrwt>
<pdfrwt beam="1">  1        1 0.27877416E+00 0.11380995E+04</pdfrwt>
<pdfrwt beam="2">  1       -1 0.23877688E+00 0.11380995E+04</pdfrwt>
<totfact> 0.32708146E-01</totfact>
</mgrwt>
</event>
<event>
 4    5  0.7341246E-008  0.7079457E+03  0.7818608E-02  0.9965710E-01
         -1   -1    0    0    0  501 -0.00000000000E+00  0.00000000000E+00  0.76094135599E+03  0.76094135601E+03  0.50400000000E-02 0.  1.
          1   -1    0    0  501    0  0.00000000000E+00 -0.00000000000E+00 -0.15504125764E+04  0.15504125764E+04  0.50400000000E-02 0. -1.
    8880023    1    1    2    0    0  0.15070361777E+03  0.21134177897E+03 -0.14343630406E+04  0.15995575846E+04  0.65864270000E+03 0. -1.
    8880022    1    1    2    0    0 -0.15070361777E+03 -0.21134177897E+03  0.64489182021E+03  0.71179634780E+03  0.15294330000E+03 0.  0.
<mgrwt>
<rscale>  0 0.57179705E+03</rscale>
<asrwt>0</asrwt>
<pdfrwt beam="1">  1        1 0.23852501E+00 0.70794571E+03</pdfrwt>
<pdfrwt beam="2">  1       -1 0.11706790E+00 0.70794571E+03</pdfrwt>
<totfact> 0.41733669E+00</totfact>
</mgrwt>
</event>
<event>
 4    5  0.7176259E-008  0.6897192E+03  0.7818608E-02  0.1004286E+00
          1   -1    0    0  501    0  0.00000000000E+00  0.00000000000E+00  0.82754150460E+03  0.82754150462E+03  0.50400000000E-02 0. -1.
         -1   -1    0    0    0  501 -0.00000000000E+00 -0.00000000000E+00 -0.11509051636E+04  0.11509051636E+04  0.50400000000E-02 0.  1.
    8880023    1    1    2    0    0 -0.13858111441E+03  0.15065715479E+03  0.66469639596E+03  0.95787985083E+03  0.65864270000E+03 0. -1.
    8880022    1    1    2    0    0  0.13858111441E+03 -0.15065715479E+03 -0.98806005496E+03  0.10205668174E+04  0.15294330000E+03 0.  0.
<mgrwt>
<rscale>  0 0.53810043E+03</rscale>
<asrwt>0</asrwt>
<pdfrwt beam="1">  1        1 0.12731408E+00 0.68971915E+03</pdfrwt>
<pdfrwt beam="2">  1       -1 0.17706233E+00 0.68971915E+03</pdfrwt>
<totfact> 0.47853112E+00</totfact>
</mgrwt>
</event>
<event>
 4    5  0.7176259E-008  0.1142495E+04  0.7818608E-02  0.9215155E-01
         -1   -1    0    0    0  501 -0.00000000000E+00  0.00000000000E+00  0.45710302122E+03  0.45710302125E+03  0.50400000000E-02 0.  1.
          1   -1    0    0  501    0  0.00000000000E+00 -0.00000000000E+00 -0.27662388771E+04  0.27662388771E+04  0.50400000000E-02 0. -1.
    8880023    1    1    2    0    0  0.38160143893E+03 -0.85197712986E+03 -0.18438713727E+04  0.21691372786E+04  0.65864270000E+03 0.  0.
    8880022    1    1    2    0    0 -0.38160143893E+03  0.85197712986E+03 -0.46526448316E+03  0.10542046197E+04  0.15294330000E+03 0.  0.
<mgrwt>
<rscale>  0 0.10898359E+04</rscale>
<asrwt>0</asrwt>
<pdfrwt beam="1">  1        1 0.42557520E+00 0.11424950E+04</pdfrwt>
<pdfrwt beam="2">  1       -1 0.70323543E-01 0.11424950E+04</pdfrwt>
<totfact> 0.18060113E+00</totfact>
</mgrwt>
</event>
<event>
 4    5  0.7176259E-008  0.6816371E+03  0.7818608E-02  0.1008412E+00
         -1   -1    0    0    0  501 -0.00000000000E+00  0.00000000000E+00  0.43060105354E+03  0.43060105357E+03  0.50400000000E-02 0.  1.
          1   -1    0    0  501    0  0.00000000000E+00 -0.00000000000E+00 -0.13081116948E+04  0.13081116948E+04  0.50400000000E-02 0. -1.
    8880023    1    1    2    0    0 -0.11396295991E+02  0.17518294667E+03 -0.11765368329E+04  0.13597308799E+04  0.65864270000E+03 0. -1.
    8880022    1    1    2    0    0  0.11396295991E+02 -0.17518294667E+03  0.29902619160E+03  0.37898186849E+03  0.15294330000E+03 0.  0.
<mgrwt>
<rscale>  0 0.52110524E+03</rscale>
<asrwt>0</asrwt>
<pdfrwt beam="1">  1        1 0.20124795E+00 0.68163711E+03</pdfrwt>
<pdfrwt beam="2">  1       -1 0.66246317E-01 0.68163711E+03</pdfrwt>
<totfact> 0.21463962E+01</totfact>
</mgrwt>
</event>
<event>
 4    5  0.7176259E-008  0.8300168E+03  0.7818608E-02  0.9649300E-01
          1   -1    0    0  501    0  0.00000000000E+00  0.00000000000E+00  0.16768620044E+04  0.16768620044E+04  0.50400000000E-02 0. -1.
         -1   -1    0    0    0  501 -0.00000000000E+00 -0.00000000000E+00 -0.31532316749E+03  0.31532316753E+03  0.50400000000E-02 0.  1.
    8880023    1    1    2    0    0  0.22762881472E+03 -0.45089110604E+03  0.11619703954E+04  0.14279716639E+04  0.65864270000E+03 0.  0.
    8880022    1    1    2    0    0 -0.22762881472E+03  0.45089110604E+03  0.19956844147E+03  0.56421350803E+03  0.15294330000E+03 0.  0.
<mgrwt>
<rscale>  0 0.74117391E+03</rscale>
<asrwt>0</asrwt>
<pdfrwt beam="1">  1        1 0.25797878E+00 0.83001679E+03</pdfrwt>
<pdfrwt beam="2">  1       -1 0.48511255E-01 0.83001679E+03</pdfrwt>
<totfact> 0.21554706E+01</totfact>
</mgrwt>
</event>
<event>
 4    5  0.7176259E-008  0.6588789E+03  0.7818608E-02  0.1025336E+00
         -1   -1    0    0    0  501 -0.00000000000E+00  0.00000000000E+00  0.17623908122E+03  0.17623908130E+03  0.50400000000E-02 0.  1.
          1   -1    0    0  501    0  0.00000000000E+00 -0.00000000000E+00 -0.10400685230E+04  0.10400685230E+04  0.50400000000E-02 0. -1.
    8880023    1    1    2    0    0  0.14480886671E+02 -0.10071655003E+02 -0.82813483342E+03  0.10582668108E+04  0.65864270000E+03 0. -1.
    8880022    1    1    2    0    0 -0.14480886671E+02  0.10071655003E+02 -0.35694608316E+02  0.15804079344E+03  0.15294330000E+03 0.  0.
<mgrwt>
<rscale>  0 0.45809347E+03</rscale>
<asrwt>0</asrwt>
<pdfrwt beam="1">  1        1 0.16001054E+00 0.65887885E+03</pdfrwt>
<pdfrwt beam="2">  1       -1 0.27113705E-01 0.65887885E+03</pdfrwt>
<totfact> 0.17517301E+02</totfact>
</mgrwt>
</event>
<event>
 4    5  0.7176259E-008  0.1047130E+04  0.7818608E-02  0.9322340E-01
          1   -1    0    0  501    0  0.00000000000E+00  0.00000000000E+00  0.91668115097E+03  0.91668115098E+03  0.50400000000E-02 0. -1.
         -1   -1    0    0    0  501 -0.00000000000E+00 -0.00000000000E+00 -0.10099268243E+04  0.10099268243E+04  0.50400000000E-02 0.  1.
    8880023    1    1    2    0    0 -0.76529233211E+03 -0.27748535927E+03 -0.26624032001E+03  0.10804464783E+04  0.65864270000E+03 0.  0.
    8880022    1    1    2    0    0  0.76529233211E+03  0.27748535927E+03  0.17299464669E+03  0.84616149699E+03  0.15294330000E+03 0.  0.
<mgrwt>
<rscale>  0 0.98751977E+03</rscale>
<asrwt>0</asrwt>
<pdfrwt beam="1">  1        1 0.14102787E+00 0.10471297E+04</pdfrwt>
<pdfrwt beam="2">  1       -1 0.15537336E+00 0.10471297E+04</pdfrwt>
<totfact> 0.55757018E+00</totfact>
</mgrwt>
</event>
<event>
 4    5  0.7176259E-008  0.7736240E+03  0.7818608E-02  0.9771033E-01
         -1   -1    0    0    0  501 -0.00000000000E+00  0.00000000000E+00  0.96223582718E+03  0.96223582719E+03  0.50400000000E-02 0.  1.
          1   -1    0    0  501    0  0.00000000000E+00 -0.00000000000E+00 -0.45280960976E+03  0.45280960979E+03  0.50400000000E-02 0. -1.
    8880023    1    1    2    0    0 -0.35231753610E+03 -0.20138573525E+03  0.59128529577E+03  0.97371061813E+03  0.65864270000E+03 0. -1.
    8880022    1    1    2    0    0  0.35231753610E+03  0.20138573525E+03 -0.81859078348E+02  0.44133481885E+03  0.15294330000E+03 0.  0.
<mgrwt>
<rscale>  0 0.66940504E+03</rscale>
<asrwt>0</asrwt>
<pdfrwt beam="1">  1        1 0.69663017E-01 0.77362398E+03</pdfrwt>
<pdfrwt beam="2">  1       -1 0.14803628E+00 0.77362398E+03</pdfrwt>
<totfact> 0.18790598E+01</totfact>
</mgrwt>
</event>
<event>
 4    5  0.7176259E-008  0.1000554E+04  0.7818608E-02  0.9380834E-01
         -1   -1    0    0    0  501 -0.00000000000E+00  0.00000000000E+00  0.46896711371E+03  0.46896711374E+03  0.50400000000E-02 0.  1.
          1   -1    0    0  501    0  0.00000000000E+00 -0.00000000000E+00 -0.20360058914E+04  0.20360058914E+04  0.50400000000E-02 0. -1.
    8880023    1    1    2    0    0  0.41310883239E+03  0.62979222870E+03 -0.13961246896E+04  0.17176354427E+04  0.65864270000E+03 0.  0.
    8880022    1    1    2    0    0 -0.41310883239E+03 -0.62979222870E+03 -0.17091408804E+03  0.78733756244E+03  0.15294330000E+03 0.  0.
<mgrwt>
<rscale>  0 0.93669907E+03</rscale>
<asrwt>0</asrwt>
<pdfrwt beam="1">  1        1 0.31323167E+00 0.10005535E+04</pdfrwt>
<pdfrwt beam="2">  1       -1 0.72148788E-01 0.10005535E+04</pdfrwt>
<totfact> 0.55245126E+00</totfact>
</mgrwt>
</event>
<event>
 4    5  0.7176259E-008  0.8124008E+03  0.7818608E-02  0.9684598E-01
         -1   -1    0    0    0  501 -0.00000000000E+00  0.00000000000E+00  0.59811639321E+03  0.59811639323E+03  0.50400000000E-02 0.  1.
          1   -1    0    0  501    0  0.00000000000E+00 -0.00000000000E+00 -0.77007511416E+03  0.77007511418E+03  0.50400000000E-02 0. -1.
    8880023    1    1    2    0    0  0.26030289415E+03  0.39802926402E+03 -0.27579482317E+03  0.85793815772E+03  0.65864270000E+03 0.  0.
    8880022    1    1    2    0    0 -0.26030289415E+03 -0.39802926402E+03  0.10383610222E+03  0.51025334969E+03  0.15294330000E+03 0.  0.
<mgrwt>
<rscale>  0 0.71941293E+03</rscale>
<asrwt>0</asrwt>
<pdfrwt beam="1">  1        1 0.11847309E+00 0.81240082E+03</pdfrwt>
<pdfrwt beam="2">  1       -1 0.92017906E-01 0.81240082E+03</pdfrwt>
<totfact> 0.27538901E+01</totfact>
</mgrwt>
</event>
<event>
 4    5  0.8897873E-008  0.7725810E+03  0.7818608E-02  0.9773562E-01
         -1   -1    0    0    0  501 -0.00000000000E+00  0.00000000000E+00  0.10138552999E+04  0.10138552999E+04  0.50400000000E-02 0.  1.
          1   -1    0    0  501    0  0.00000000000E+00 -0.00000000000E+00 -0.17818160334E+04  0.17818160334E+04  0.50400000000E-02 0. -1.
    8880023    1    1    2    0    0  0.35952337012E+03  0.18388622759E+03 -0.16453896690E+04  0.18177427121E+04  0.65864270000E+03 0. -1.
    8880022    1    1    2    0    0 -0.35952337012E+03 -0.18388622759E+03  0.87742893550E+03  0.97792862123E+03  0.15294330000E+03 0.  0.
<mgrwt>
<rscale>  0 0.66800861E+03</rscale>
<asrwt>0</asrwt>
<pdfrwt beam="1">  1        1 0.27412554E+00 0.77258100E+03</pdfrwt>
<pdfrwt beam="2">  1       -1 0.15597774E+00 0.77258100E+03</pdfrwt>
<totfact> 0.13785914E+00</totfact>
</mgrwt>
</event>
<event>
 4    5  0.7176259E-008  0.1224727E+04  0.7818608E-02  0.9133453E-01
         -1   -1    0    0    0  501 -0.00000000000E+00  0.00000000000E+00  0.55179295450E+03  0.55179295453E+03  0.50400000000E-02 0.  1.
          1   -1    0    0  501    0  0.00000000000E+00 -0.00000000000E+00 -0.28246111213E+04  0.28246111213E+04  0.50400000000E-02 0. -1.
    8880023    1    1    2    0    0  0.23516410455E+03 -0.10054070828E+04 -0.50777908587E+03  0.13258187525E+04  0.65864270000E+03 0.  0.
    8880022    1    1    2    0    0 -0.23516410455E+03  0.10054070828E+04 -0.17650390810E+04  0.20505853234E+04  0.15294330000E+03 0.  0.
<mgrwt>
<rscale>  0 0.11767513E+04</rscale>
<asrwt>0</asrwt>
<pdfrwt beam="1">  1        1 0.43455555E+00 0.12247268E+04</pdfrwt>
<pdfrwt beam="2">  1       -1 0.84891225E-01 0.12247268E+04</pdfrwt>
<totfact> 0.10899003E+00</totfact>
</mgrwt>
</event>
<event>
 4    5  0.7176259E-008  0.1128622E+04  0.7818608E-02  0.9229838E-01
          1   -1    0    0  501    0  0.00000000000E+00  0.00000000000E+00  0.15702315029E+04  0.15702315029E+04  0.50400000000E-02 0. -1.
         -1   -1    0    0    0  501 -0.00000000000E+00 -0.00000000000E+00 -0.79491294652E+03  0.79491294654E+03  0.50400000000E-02 0.  1.
    8880023    1    1    2    0    0  0.69471668833E+02  0.91386661728E+03  0.87853908789E+03  0.14302516010E+04  0.65864270000E+03 0.  0.
    8880022    1    1    2    0    0 -0.69471668833E+02 -0.91386661728E+03 -0.10322053151E+03  0.93489284845E+03  0.15294330000E+03 0.  0.
<mgrwt>
<rscale>  0 0.10750685E+04</rscale>
<asrwt>0</asrwt>
<pdfrwt beam="1">  1        1 0.24157407E+00 0.11286225E+04</pdfrwt>
<pdfrwt beam="2">  1       -1 0.12229430E+00 0.11286225E+04</pdfrwt>
<totfact> 0.34235696E+00</totfact>
</mgrwt>
</event>
<event>
 4    5  0.7176259E-008  0.8743973E+03  0.7818608E-02  0.9568449E-01
         -1   -1    0    0    0  501 -0.00000000000E+00  0.00000000000E+00  0.38171406116E+03  0.38171406120E+03  0.50400000000E-02 0.  1.
          1   -1    0    0  501    0  0.00000000000E+00 -0.00000000000E+00 -0.16021921118E+04  0.16021921118E+04  0.50400000000E-02 0. -1.
    8880023    1    1    2    0    0  0.10891025832E+03 -0.56471147875E+03 -0.10468477091E+04  0.13639871080E+04  0.65864270000E+03 0. -1.
    8880022    1    1    2    0    0 -0.10891025832E+03  0.56471147875E+03 -0.17363034155E+03  0.61991906498E+03  0.15294330000E+03 0.  0.
<mgrwt>
<rscale>  0 0.79420086E+03</rscale>
<asrwt>0</asrwt>
<pdfrwt beam="1">  1        1 0.24649109E+00 0.87439734E+03</pdfrwt>
<pdfrwt beam="2">  1       -1 0.58725241E-01 0.87439734E+03</pdfrwt>
<totfact> 0.16678176E+01</totfact>
</mgrwt>
</event>
<event>
 4    5  0.7176259E-008  0.9303477E+03  0.7818608E-02  0.9478972E-01
         -1   -1    0    0    0  501 -0.00000000000E+00  0.00000000000E+00  0.10375225277E+04  0.10375225277E+04  0.50400000000E-02 0.  1.
          1   -1    0    0  501    0  0.00000000000E+00 -0.00000000000E+00 -0.12448593821E+04  0.12448593821E+04  0.50400000000E-02 0. -1.
    8880023    1    1    2    0    0 -0.65100810290E+03 -0.89023015285E+02 -0.91483832763E+03  0.13047896456E+04  0.65864270000E+03 0. -1.
    8880022    1    1    2    0    0  0.65100810290E+03  0.89023015285E+02  0.70750147322E+03  0.97759226414E+03  0.15294330000E+03 0.  0.
<mgrwt>
<rscale>  0 0.85852056E+03</rscale>
<asrwt>0</asrwt>
<pdfrwt beam="1">  1        1 0.19151683E+00 0.93034771E+03</pdfrwt>
<pdfrwt beam="2">  1       -1 0.15961885E+00 0.93034771E+03</pdfrwt>
<totfact> 0.29543071E+00</totfact>
</mgrwt>
</event>
<event>
 4    5  0.7176259E-008  0.9034917E+03  0.7818608E-02  0.9520449E-01
         -1   -1    0    0    0  501 -0.00000000000E+00  0.00000000000E+00  0.91413516449E+03  0.91413516450E+03  0.50400000000E-02 0.  1.
          1   -1    0    0  501    0  0.00000000000E+00 -0.00000000000E+00 -0.17530604292E+04  0.17530604292E+04  0.50400000000E-02 0. -1.
    8880023    1    1    2    0    0  0.41382613687E+03  0.45960309801E+03 -0.14987412621E+04  0.17500064732E+04  0.65864270000E+03 0. -1.
    8880022    1    1    2    0    0 -0.41382613687E+03 -0.45960309801E+03  0.65981599742E+03  0.91718912048E+03  0.15294330000E+03 0.  0.
<mgrwt>
<rscale>  0 0.82792819E+03</rscale>
<asrwt>0</asrwt>
<pdfrwt beam="1">  1        1 0.26970160E+00 0.90349172E+03</pdfrwt>
<pdfrwt beam="2">  1       -1 0.14063618E+00 0.90349172E+03</pdfrwt>
<totfact> 0.18576886E+00</totfact>
</mgrwt>
</event>
<event>
 4    5  0.7176259E-008  0.7484957E+03  0.7818608E-02  0.9835857E-01
         -1   -1    0    0    0  501 -0.00000000000E+00  0.00000000000E+00  0.37704621071E+03  0.37704621075E+03  0.50400000000E-02 0.  1.
          1   -1    0    0  501    0  0.00000000000E+00 -0.00000000000E+00 -0.22673102369E+04  0.22673102369E+04  0.50400000000E-02 0. -1.
    8880023    1    1    2    0    0 -0.29661843357E+03 -0.19609463233E+03 -0.20819552370E+04  0.22124157419E+04  0.65864270000E+03 0.  0.
    8880022    1    1    2    0    0  0.29661843357E+03  0.19609463233E+03  0.19169121080E+03  0.43194070574E+03  0.15294330000E+03 0.  0.
<mgrwt>
<rscale>  0 0.63473264E+03</rscale>
<asrwt>0</asrwt>
<pdfrwt beam="1">  1        1 0.34881695E+00 0.74849570E+03</pdfrwt>
<pdfrwt beam="2">  1       -1 0.58007111E-01 0.74849570E+03</pdfrwt>
<totfact> 0.62158280E+00</totfact>
</mgrwt>
</event>
<event>
 4    5  0.7176259E-008  0.7081946E+03  0.7818608E-02  0.9964767E-01
          1   -1    0    0  501    0  0.00000000000E+00  0.00000000000E+00  0.68112508168E+03  0.68112508170E+03  0.50400000000E-02 0. -1.
         -1   -1    0    0    0  501 -0.00000000000E+00 -0.00000000000E+00 -0.81865039851E+03  0.81865039853E+03  0.50400000000E-02 0.  1.
    8880023    1    1    2    0    0 -0.22726370646E+03 -0.12680904585E+03  0.45011885737E+03  0.83913438638E+03  0.65864270000E+03 0. -1.
    8880022    1    1    2    0    0  0.22726370646E+03  0.12680904585E+03 -0.58764417421E+03  0.66064109385E+03  0.15294330000E+03 0.  0.
<mgrwt>
<rscale>  0 0.57222488E+03</rscale>
<asrwt>0</asrwt>
<pdfrwt beam="1">  1        1 0.10478847E+00 0.70819456E+03</pdfrwt>
<pdfrwt beam="2">  1       -1 0.12594622E+00 0.70819456E+03</pdfrwt>
<totfact> 0.16112608E+01</totfact>
</mgrwt>
</event>
<event>
 4    5  0.7176259E-008  0.8721970E+03  0.7818608E-02  0.9572225E-01
         -1   -1    0    0    0  501 -0.00000000000E+00  0.00000000000E+00  0.10386406270E+04  0.10386406270E+04  0.50400000000E-02 0.  1.
          1   -1    0    0  501    0  0.00000000000E+00 -0.00000000000E+00 -0.12872208921E+04  0.12872208921E+04  0.50400000000E-02 0. -1.
    8880023    1    1    2    0    0 -0.47594457741E+03  0.31685050046E+03 -0.10273812627E+04  0.13476794669E+04  0.65864270000E+03 0. -1.
    8880022    1    1    2    0    0  0.47594457741E+03 -0.31685050046E+03  0.77880099759E+03  0.97818205221E+03  0.15294330000E+03 0.  0.
<mgrwt>
<rscale>  0 0.79162115E+03</rscale>
<asrwt>0</asrwt>
<pdfrwt beam="1">  1        1 0.19803398E+00 0.87219705E+03</pdfrwt>
<pdfrwt beam="2">  1       -1 0.15979087E+00 0.87219705E+03</pdfrwt>
<totfact> 0.27696862E+00</totfact>
</mgrwt>
</event>
<event>
 4    5  0.7176259E-008  0.8801026E+03  0.7818608E-02  0.9558759E-01
          1   -1    0    0  501    0  0.00000000000E+00  0.00000000000E+00  0.16744113092E+04  0.16744113093E+04  0.50400000000E-02 0. -1.
         -1   -1    0    0    0  501 -0.00000000000E+00 -0.00000000000E+00 -0.66656228548E+03  0.66656228550E+03  0.50400000000E-02 0.  1.
    8880023    1    1    2    0    0  0.31733529119E+03 -0.48996801457E+03  0.13765081991E+04  0.16338161986E+04  0.65864270000E+03 0. -1.
    8880022    1    1    2    0    0 -0.31733529119E+03  0.48996801457E+03 -0.36865917535E+03  0.70715739615E+03  0.15294330000E+03 0.  0.
<mgrwt>
<rscale>  0 0.80086958E+03</rscale>
<asrwt>0</asrwt>
<pdfrwt beam="1">  1        1 0.25760174E+00 0.88010258E+03</pdfrwt>
<pdfrwt beam="2">  1       -1 0.10254804E+00 0.88010258E+03</pdfrwt>
<totfact> 0.45683629E+00</totfact>
</mgrwt>
</event>
<event>
 4    5  0.7176259E-008  0.8376714E+03  0.7818608E-02  0.9634587E-01
         -1   -1    0    0    0  501 -0.00000000000E+00  0.00000000000E+00  0.63159713485E+03  0.63159713487E+03  0.50400000000E-02 0.  1.
          1   -1    0    0  501    0  0.00000000000E+00 -0.00000000000E+00 -0.16473299296E+04  0.16473299296E+04  0.50400000000E-02 0. -1.
    8880023    1    1    2    0    0  0.22080172649E+03 -0.46811297493E+03 -0.13894793150E+04  0.16224506565E+04  0.65864270000E+03 0.  0.
    8880022    1    1    2    0    0 -0.22080172649E+03  0.46811297493E+03  0.37374652030E+03  0.65647640793E+03  0.15294330000E+03 0.  0.
<mgrwt>
<rscale>  0 0.75048693E+03</rscale>
<asrwt>0</asrwt>
<pdfrwt beam="1">  1        1 0.25343537E+00 0.83767139E+03</pdfrwt>
<pdfrwt beam="2">  1       -1 0.97168791E-01 0.83767139E+03</pdfrwt>
<totfact> 0.54235318E+00</totfact>
</mgrwt>
</event>
<event>
 4    5  0.7176259E-008  0.8079550E+03  0.7818608E-02  0.9693852E-01
          1   -1    0    0  501    0  0.00000000000E+00  0.00000000000E+00  0.42395770985E+03  0.42395770988E+03  0.50400000000E-02 0. -1.
         -1   -1    0    0    0  501 -0.00000000000E+00 -0.00000000000E+00 -0.10028247494E+04  0.10028247494E+04  0.50400000000E-02 0.  1.
    8880023    1    1    2    0    0 -0.46623387078E+03 -0.40088013450E+02 -0.30641160945E+03  0.86410609983E+03  0.65864270000E+03 0.  0.
    8880022    1    1    2    0    0  0.46623387078E+03  0.40088013450E+02 -0.27245543006E+03  0.56267635944E+03  0.15294330000E+03 0.  1.
<mgrwt>
<rscale>  0 0.71383995E+03</rscale>
<asrwt>0</asrwt>
<pdfrwt beam="1">  1        1 0.65224263E-01 0.80795500E+03</pdfrwt>
<pdfrwt beam="2">  1       -1 0.15428073E+00 0.80795500E+03</pdfrwt>
<totfact> 0.18302398E+01</totfact>
</mgrwt>
</event>
<event>
 4    5  0.7176259E-008  0.1081736E+04  0.7818608E-02  0.9281668E-01
         -1   -1    0    0    0  501 -0.00000000000E+00  0.00000000000E+00  0.69195698909E+03  0.69195698911E+03  0.50400000000E-02 0.  1.
          1   -1    0    0  501    0  0.00000000000E+00 -0.00000000000E+00 -0.22619302925E+04  0.22619302925E+04  0.50400000000E-02 0. -1.
    8880023    1    1    2    0    0 -0.66856931689E+03 -0.53791989489E+03 -0.17561718826E+04  0.20625936663E+04  0.65864270000E+03 0.  0.
    8880022    1    1    2    0    0  0.66856931689E+03  0.53791989489E+03  0.18619857917E+03  0.89129361532E+03  0.15294330000E+03 0.  0.
<mgrwt>
<rscale>  0 0.10248816E+04</rscale>
<asrwt>0</asrwt>
<pdfrwt beam="1">  1        1 0.34798927E+00 0.10817361E+04</pdfrwt>
<pdfrwt beam="2">  1       -1 0.10645492E+00 0.10817361E+04</pdfrwt>
<totfact> 0.16339613E+00</totfact>
</mgrwt>
</event>
<event>
 4    5  0.7176259E-008  0.8396165E+03  0.7818608E-02  0.9630904E-01
         -1   -1    0    0    0  501 -0.00000000000E+00  0.00000000000E+00  0.13343435536E+04  0.13343435536E+04  0.50400000000E-02 0.  1.
          1   -1    0    0  501    0  0.00000000000E+00 -0.00000000000E+00 -0.63264046182E+03  0.63264046184E+03  0.50400000000E-02 0. -1.
    8880023    1    1    2    0    0  0.44142488240E+03 -0.27620608714E+03 -0.24597672669E+03  0.87490598678E+03  0.65864270000E+03 0. -1.
    8880022    1    1    2    0    0 -0.44142488240E+03  0.27620608714E+03  0.94767981845E+03  0.10920780287E+04  0.15294330000E+03 0.  0.
<mgrwt>
<rscale>  0 0.75284105E+03</rscale>
<asrwt>0</asrwt>
<pdfrwt beam="1">  1        1 0.97329303E-01 0.83961654E+03</pdfrwt>
<pdfrwt beam="2">  1       -1 0.20528362E+00 0.83961654E+03</pdfrwt>
<totfact> 0.44941938E+00</totfact>
</mgrwt>
</event>
<event>
 4    5  0.7176259E-008  0.1745338E+04  0.7818608E-02  0.8753392E-01
         -1   -1    0    0    0  501 -0.00000000000E+00  0.00000000000E+00  0.14407401372E+04  0.14407401372E+04  0.50400000000E-02 0.  1.
          1   -1    0    0  501    0  0.00000000000E+00 -0.00000000000E+00 -0.34530905545E+04  0.34530905545E+04  0.50400000000E-02 0. -1.
    8880023    1    1    2    0    0 -0.10792180524E+04  0.12031964222E+04 -0.26303040754E+04  0.31566917763E+04  0.65864270000E+03 0.  0.
    8880022    1    1    2    0    0  0.10792180524E+04 -0.12031964222E+04  0.61795365805E+03  0.17371389155E+04  0.15294330000E+03 0.  0.
<mgrwt>
<rscale>  0 0.17140494E+04</rscale>
<asrwt>0</asrwt>
<pdfrwt beam="1">  1        1 0.53124470E+00 0.17453376E+04</pdfrwt>
<pdfrwt beam="2">  1       -1 0.22165233E+00 0.17453376E+04</pdfrwt>
<totfact> 0.26813070E-02</totfact>
</mgrwt>
</event>
<event>
 4    5  0.7176259E-008  0.7121131E+03  0.7818608E-02  0.9950236E-01
          1   -1    0    0  501    0  0.00000000000E+00  0.00000000000E+00  0.15421604769E+04  0.15421604769E+04  0.50400000000E-02 0. -1.
         -1   -1    0    0    0  501 -0.00000000000E+00 -0.00000000000E+00 -0.21656630814E+03  0.21656630820E+03  0.50400000000E-02 0.  1.
    8880023    1    1    2    0    0 -0.11317095498E+03 -0.24594153218E+03  0.12501784587E+04  0.14387672804E+04  0.65864270000E+03 0.  0.
    8880022    1    1    2    0    0  0.11317095498E+03  0.24594153218E+03  0.75415710048E+02  0.31995950469E+03  0.15294330000E+03 0.  0.
<mgrwt>
<rscale>  0 0.57887195E+03</rscale>
<asrwt>0</asrwt>
<pdfrwt beam="1">  1        1 0.23725546E+00 0.71211313E+03</pdfrwt>
<pdfrwt beam="2">  1       -1 0.33317893E-01 0.71211313E+03</pdfrwt>
<totfact> 0.53499756E+01</totfact>
</mgrwt>
</event>
<event>
 4    5  0.7176259E-008  0.1769980E+04  0.7818608E-02  0.8739326E-01
          1   -1    0    0  501    0  0.00000000000E+00  0.00000000000E+00  0.16020040452E+04  0.16020040452E+04  0.50400000000E-02 0. -1.
         -1   -1    0    0    0  501 -0.00000000000E+00 -0.00000000000E+00 -0.28471246656E+04  0.28471246656E+04  0.50400000000E-02 0.  1.
    8880023    1    1    2    0    0  0.91075767023E+03 -0.13673115911E+04  0.69564873814E+03  0.19017775617E+04  0.65864270000E+03 0. -1.
    8880022    1    1    2    0    0 -0.91075767023E+03  0.13673115911E+04 -0.19407693586E+04  0.25473511492E+04  0.15294330000E+03 0.  0.
<mgrwt>
<rscale>  0 0.17391842E+04</rscale>
<asrwt>0</asrwt>
<pdfrwt beam="1">  1        1 0.24646216E+00 0.17699804E+04</pdfrwt>
<pdfrwt beam="2">  1       -1 0.43801918E+00 0.17699804E+04</pdfrwt>
<totfact> 0.19882307E-02</totfact>
</mgrwt>
</event>
<event>
 4    5  0.7176259E-008  0.1470595E+04  0.7818608E-02  0.8930684E-01
          1   -1    0    0  501    0  0.00000000000E+00  0.00000000000E+00  0.13925152797E+04  0.13925152797E+04  0.50400000000E-02 0. -1.
         -1   -1    0    0    0  501 -0.00000000000E+00 -0.00000000000E+00 -0.27091573624E+04  0.27091573624E+04  0.50400000000E-02 0.  1.
    8880023    1    1    2    0    0 -0.72450986913E+03  0.10972353399E+04  0.74740706253E+03  0.16496264622E+04  0.65864270000E+03 0.  0.
    8880022    1    1    2    0    0  0.72450986913E+03 -0.10972353399E+04 -0.20640491452E+04  0.24520461799E+04  0.15294330000E+03 0.  0.
<mgrwt>
<rscale>  0 0.14324148E+04</rscale>
<asrwt>0</asrwt>
<pdfrwt beam="1">  1        1 0.21423312E+00 0.14705952E+04</pdfrwt>
<pdfrwt beam="2">  1       -1 0.41679344E+00 0.14705952E+04</pdfrwt>
<totfact> 0.40585839E-02</totfact>
</mgrwt>
</event>
<event>
 4    5  0.7176259E-008  0.7009462E+03  0.7818608E-02  0.9993299E-01
          1   -1    0    0  501    0  0.00000000000E+00  0.00000000000E+00  0.23671657419E+04  0.23671657419E+04  0.50400000000E-02 0. -1.
         -1   -1    0    0    0  501 -0.00000000000E+00 -0.00000000000E+00 -0.16750461356E+03  0.16750461364E+03  0.50400000000E-02 0.  1.
    8880023    1    1    2    0    0  0.15884542030E+03 -0.17967591162E+03  0.21292295507E+04  0.22416386833E+04  0.65864270000E+03 0. -1.
    8880022    1    1    2    0    0 -0.15884542030E+03  0.17967591162E+03  0.70431577623E+02  0.29303167219E+03  0.15294330000E+03 0.  0.
<mgrwt>
<rscale>  0 0.55945057E+03</rscale>
<asrwt>0</asrwt>
<pdfrwt beam="1">  1        1 0.36417934E+00 0.70094615E+03</pdfrwt>
<pdfrwt beam="2">  1       -1 0.25769941E-01 0.70094615E+03</pdfrwt>
<totfact> 0.23406218E+01</totfact>
</mgrwt>
</event>
<event>
 4    5  0.7176259E-008  0.6995881E+03  0.7818608E-02  0.9998914E-01
          1   -1    0    0  501    0  0.00000000000E+00  0.00000000000E+00  0.25325353511E+04  0.25325353511E+04  0.50400000000E-02 0. -1.
         -1   -1    0    0    0  501 -0.00000000000E+00 -0.00000000000E+00 -0.23499070133E+03  0.23499070138E+03  0.50400000000E-02 0.  1.
    8880023    1    1    2    0    0 -0.83071911425E+01 -0.23567849943E+03  0.23750632730E+04  0.24759541840E+04  0.65864270000E+03 0. -1.
    8880022    1    1    2    0    0  0.83071911425E+01  0.23567849943E+03 -0.77518623196E+02  0.29157186846E+03  0.15294330000E+03 0.  0.
<mgrwt>
<rscale>  0 0.55697880E+03</rscale>
<asrwt>0</asrwt>
<pdfrwt beam="1">  1        1 0.38962081E+00 0.69958814E+03</pdfrwt>
<pdfrwt beam="2">  1       -1 0.36152416E-01 0.69958814E+03</pdfrwt>
<totfact> 0.10008043E+01</totfact>
</mgrwt>
</event>
<event>
 4    5  0.7176259E-008  0.9401989E+03  0.7818608E-02  0.9464358E-01
         -1   -1    0    0    0  501 -0.00000000000E+00  0.00000000000E+00  0.56235741886E+03  0.56235741888E+03  0.50400000000E-02 0.  1.
          1   -1    0    0  501    0  0.00000000000E+00 -0.00000000000E+00 -0.14616353343E+04  0.14616353343E+04  0.50400000000E-02 0. -1.
    8880023    1    1    2    0    0 -0.24871212971E+03 -0.62314208881E+03 -0.64885117098E+02  0.94243518132E+03  0.65864270000E+03 0.  0.
    8880022    1    1    2    0    0  0.24871212971E+03  0.62314208881E+03 -0.83439279833E+03  0.10815575719E+04  0.15294330000E+03 0.  0.
<mgrwt>
<rscale>  0 0.86963330E+03</rscale>
<asrwt>0</asrwt>
<pdfrwt beam="1">  1        1 0.22486697E+00 0.94019891E+03</pdfrwt>
<pdfrwt beam="2">  1       -1 0.86516527E-01 0.94019891E+03</pdfrwt>
<totfact> 0.92770638E+00</totfact>
</mgrwt>
</event>
<event>
 4    5  0.7176259E-008  0.1507522E+04  0.7818608E-02  0.8904342E-01
         -1   -1    0    0    0  501 -0.00000000000E+00  0.00000000000E+00  0.15280883579E+04  0.15280883579E+04  0.50400000000E-02 0.  1.
          1   -1    0    0  501    0  0.00000000000E+00 -0.00000000000E+00 -0.15396872541E+04  0.15396872541E+04  0.50400000000E-02 0. -1.
    8880023    1    1    2    0    0  0.12571812621E+04 -0.50824071621E+03  0.53231797306E+03  0.15987451273E+04  0.65864270000E+03 0.  0.
    8880022    1    1    2    0    0 -0.12571812621E+04  0.50824071621E+03 -0.54391686927E+03  0.14690304847E+04  0.15294330000E+03 0.  0.
<mgrwt>
<rscale>  0 0.14704533E+04</rscale>
<asrwt>0</asrwt>
<pdfrwt beam="1">  1        1 0.23687496E+00 0.15075223E+04</pdfrwt>
<pdfrwt beam="2">  1       -1 0.23509052E+00 0.15075223E+04</pdfrwt>
<totfact> 0.50689068E-01</totfact>
</mgrwt>
</event>
<event>
 4    5  0.7176259E-008  0.1241574E+04  0.7818608E-02  0.9117732E-01
         -1   -1    0    0    0  501 -0.00000000000E+00  0.00000000000E+00  0.16425253136E+04  0.16425253136E+04  0.50400000000E-02 0.  1.
          1   -1    0    0  501    0  0.00000000000E+00 -0.00000000000E+00 -0.11812389559E+04  0.11812389559E+04  0.50400000000E-02 0. -1.
    8880023    1    1    2    0    0  0.10011775929E+04 -0.32456133220E+03 -0.54839302180E+03  0.13572920627E+04  0.65864270000E+03 0. -1.
    8880022    1    1    2    0    0 -0.10011775929E+04  0.32456133220E+03  0.10096793796E+04  0.14664722068E+04  0.15294330000E+03 0.  0.
<mgrwt>
<rscale>  0 0.11944462E+04</rscale>
<asrwt>0</asrwt>
<pdfrwt beam="1">  1        1 0.18172907E+00 0.12415743E+04</pdfrwt>
<pdfrwt beam="2">  1       -1 0.25269620E+00 0.12415743E+04</pdfrwt>
<totfact> 0.72101195E-01</totfact>
</mgrwt>
</event>
<event>
 4    5  0.7176259E-008  0.2230012E+04  0.7818608E-02  0.8515881E-01
         -1   -1    0    0    0  501 -0.00000000000E+00  0.00000000000E+00  0.21544984275E+04  0.21544984275E+04  0.50400000000E-02 0.  1.
          1   -1    0    0  501    0  0.00000000000E+00 -0.00000000000E+00 -0.33341223258E+04  0.33341223258E+04  0.50400000000E-02 0. -1.
    8880023    1    1    2    0    0  0.21288733741E+04 -0.83917282774E+02 -0.21901339830E+04  0.31256424976E+04  0.65864270000E+03 0.  0.
    8880022    1    1    2    0    0 -0.21288733741E+04  0.83917282774E+02  0.10105100847E+04  0.23629782558E+04  0.15294330000E+03 0.  0.
<mgrwt>
<rscale>  0 0.22061305E+04</rscale>
<asrwt>0</asrwt>
<pdfrwt beam="1">  1        1 0.51294189E+00 0.22300121E+04</pdfrwt>
<pdfrwt beam="2">  1       -1 0.33146130E+00 0.22300121E+04</pdfrwt>
<totfact> 0.59580878E-03</totfact>
</mgrwt>
</event>
<event>
 4    5  0.7176259E-008  0.1163520E+04  0.7818608E-02  0.9193426E-01
         -1   -1    0    0    0  501 -0.00000000000E+00  0.00000000000E+00  0.19927391338E+04  0.19927391338E+04  0.50400000000E-02 0.  1.
          1   -1    0    0  501    0  0.00000000000E+00 -0.00000000000E+00 -0.73558628451E+03  0.73558628453E+03  0.50400000000E-02 0. -1.
    8880023    1    1    2    0    0  0.95843615765E+03 -0.37001863712E+02  0.30783951684E+02  0.11639273449E+04  0.65864270000E+03 0.  0.
    8880022    1    1    2    0    0 -0.95843615765E+03  0.37001863712E+02  0.12263688976E+04  0.15643980734E+04  0.15294330000E+03 0.  1.
<mgrwt>
<rscale>  0 0.11121546E+04</rscale>
<asrwt>0</asrwt>
<pdfrwt beam="1">  1        1 0.11316712E+00 0.11635202E+04</pdfrwt>
<pdfrwt beam="2">  1       -1 0.30657525E+00 0.11635202E+04</pdfrwt>
<totfact> 0.75001953E-01</totfact>
</mgrwt>
</event>
<event>
 4    5  0.7176259E-008  0.6697008E+03  0.7818608E-02  0.1015878E+00
          1   -1    0    0  501    0  0.00000000000E+00  0.00000000000E+00  0.13364429832E+04  0.13364429832E+04  0.50400000000E-02 0. -1.
         -1   -1    0    0    0  501 -0.00000000000E+00 -0.00000000000E+00 -0.89078772021E+03  0.89078772023E+03  0.50400000000E-02 0.  1.
    8880023    1    1    2    0    0 -0.12113287046E+03  0.39798090144E+01  0.12399875296E+04  0.14092793517E+04  0.65864270000E+03 0. -1.
    8880022    1    1    2    0    0  0.12113287046E+03 -0.39798090144E+01 -0.79433226658E+03  0.81795135181E+03  0.15294330000E+03 0.  0.
<mgrwt>
<rscale>  0 0.49203806E+03</rscale>
<asrwt>0</asrwt>
<pdfrwt beam="1">  1        1 0.20560661E+00 0.66970084E+03</pdfrwt>
<pdfrwt beam="2">  1       -1 0.13704426E+00 0.66970084E+03</pdfrwt>
<totfact> 0.39880253E+00</totfact>
</mgrwt>
</event>
<event>
 4    5  0.7436769E-008  0.6958004E+03  0.7818608E-02  0.1001509E+00
          1   -1    0    0  501    0  0.00000000000E+00  0.00000000000E+00  0.19908300385E+04  0.19908300385E+04  0.50400000000E-02 0. -1.
         -1   -1    0    0    0  501 -0.00000000000E+00 -0.00000000000E+00 -0.15505141571E+04  0.15505141571E+04  0.50400000000E-02 0.  1.
    8880023    1    1    2    0    0 -0.22409350366E+03 -0.10489883606E+02  0.19172792066E+04  0.20396317555E+04  0.65864270000E+03 0. -1.
    8880022    1    1    2    0    0  0.22409350366E+03  0.10489883606E+02 -0.14769633251E+04  0.15017124401E+04  0.15294330000E+03 0.  0.
<mgrwt>
<rscale>  0 0.54993499E+03</rscale>
<asrwt>0</asrwt>
<pdfrwt beam="1">  1        1 0.30628154E+00 0.69580036E+03</pdfrwt>
<pdfrwt beam="2">  1       -1 0.23854064E+00 0.69580036E+03</pdfrwt>
<totfact> 0.27222824E-01</totfact>
</mgrwt>
</event>
<event>
 4    5  0.7176259E-008  0.1105538E+04  0.7818608E-02  0.9254915E-01
         -1   -1    0    0    0  501 -0.00000000000E+00  0.00000000000E+00  0.13532794903E+04  0.13532794903E+04  0.50400000000E-02 0.  1.
          1   -1    0    0  501    0  0.00000000000E+00 -0.00000000000E+00 -0.15508912053E+04  0.15508912053E+04  0.50400000000E-02 0. -1.
    8880023    1    1    2    0    0  0.84976432394E+03  0.25749749329E+03 -0.11485550545E+04  0.15941747975E+04  0.65864270000E+03 0.  0.
    8880022    1    1    2    0    0 -0.84976432394E+03 -0.25749749329E+03  0.95094333954E+03  0.13099958982E+04  0.15294330000E+03 0.  0.
<mgrwt>
<rscale>  0 0.10504156E+04</rscale>
<asrwt>0</asrwt>
<pdfrwt beam="1">  1        1 0.23859865E+00 0.11055381E+04</pdfrwt>
<pdfrwt beam="2">  1       -1 0.20819684E+00 0.11055381E+04</pdfrwt>
<totfact> 0.79171046E-01</totfact>
</mgrwt>
</event>
<event>
 4    5  0.7176259E-008  0.8293788E+03  0.7818608E-02  0.9650542E-01
         -1   -1    0    0    0  501 -0.00000000000E+00  0.00000000000E+00  0.36082962038E+03  0.36082962042E+03  0.50400000000E-02 0.  1.
          1   -1    0    0  501    0  0.00000000000E+00 -0.00000000000E+00 -0.13702013706E+04  0.13702013706E+04  0.50400000000E-02 0. -1.
    8880023    1    1    2    0    0 -0.39124414880E+03  0.31778444535E+03 -0.38566934146E+03  0.91466386442E+03  0.65864270000E+03 0.  1.
    8880022    1    1    2    0    0  0.39124414880E+03 -0.31778444535E+03 -0.62370240874E+03  0.81636712658E+03  0.15294330000E+03 0. -1.
<mgrwt>
<rscale>  0 0.74039400E+03</rscale>
<asrwt>0</asrwt>
<pdfrwt beam="1">  1        1 0.21080021E+00 0.82937877E+03</pdfrwt>
<pdfrwt beam="2">  1       -1 0.55512250E-01 0.82937877E+03</pdfrwt>
<totfact> 0.27035416E+01</totfact>
</mgrwt>
</event>
<event>
 4    5  0.7176259E-008  0.8326630E+03  0.7818608E-02  0.9644173E-01
          1   -1    0    0  501    0  0.00000000000E+00  0.00000000000E+00  0.44761998123E+04  0.44761998123E+04  0.50400000000E-02 0. -1.
         -1   -1    0    0    0  501 -0.00000000000E+00 -0.00000000000E+00 -0.14686043110E+03  0.14686043118E+03  0.50400000000E-02 0.  1.
    8880023    1    1    2    0    0  0.35182941184E+03  0.36842037318E+03  0.37296877445E+04  0.38215047277E+04  0.65864270000E+03 0.  0.
    8880022    1    1    2    0    0 -0.35182941184E+03 -0.36842037318E+03  0.59965163670E+03  0.80155551575E+03  0.15294330000E+03 0.  0.
<mgrwt>
<rscale>  0 0.74440252E+03</rscale>
<asrwt>0</asrwt>
<pdfrwt beam="1">  1        1 0.68864611E+00 0.83266302E+03</pdfrwt>
<pdfrwt beam="2">  1       -1 0.22593913E-01 0.83266302E+03</pdfrwt>
<totfact> 0.62657894E-01</totfact>
</mgrwt>
</event>
<event>
 4    5  0.7176259E-008  0.7271888E+03  0.7818608E-02  0.9898972E-01
         -1   -1    0    0    0  501 -0.00000000000E+00  0.00000000000E+00  0.23051929756E+03  0.23051929762E+03  0.50400000000E-02 0.  1.
          1   -1    0    0  501    0  0.00000000000E+00 -0.00000000000E+00 -0.22366249581E+04  0.22366249582E+04  0.50400000000E-02 0. -1.
    8880023    1    1    2    0    0 -0.30246251343E+03 -0.59243636362E+02 -0.19944412989E+04  0.21228753335E+04  0.65864270000E+03 0.  0.
    8880022    1    1    2    0    0  0.30246251343E+03  0.59243636362E+02 -0.11664361634E+02  0.34426892225E+03  0.15294330000E+03 0.  1.
<mgrwt>
<rscale>  0 0.60311134E+03</rscale>
<asrwt>0</asrwt>
<pdfrwt beam="1">  1        1 0.34409613E+00 0.72718882E+03</pdfrwt>
<pdfrwt beam="2">  1       -1 0.35464509E-01 0.72718882E+03</pdfrwt>
<totfact> 0.16352233E+01</totfact>
</mgrwt>
</event>
<event>
 4    5  0.7176259E-008  0.7310113E+03  0.7818608E-02  0.9886949E-01
         -1   -1    0    0    0  501 -0.00000000000E+00  0.00000000000E+00  0.18648369294E+04  0.18648369294E+04  0.50400000000E-02 0.  1.
          1   -1    0    0  501    0  0.00000000000E+00 -0.00000000000E+00 -0.14471680229E+04  0.14471680229E+04  0.50400000000E-02 0. -1.
    8880023    1    1    2    0    0 -0.17355457456E+03  0.26541688770E+03 -0.13362294807E+04  0.15231174433E+04  0.65864270000E+03 0. -1.
    8880022    1    1    2    0    0  0.17355457456E+03 -0.26541688770E+03  0.17538983872E+04  0.17888875091E+04  0.15294330000E+03 0.  0.
<mgrwt>
<rscale>  0 0.60897969E+03</rscale>
<asrwt>0</asrwt>
<pdfrwt beam="1">  1        1 0.22264123E+00 0.73101130E+03</pdfrwt>
<pdfrwt beam="2">  1       -1 0.28689799E+00 0.73101130E+03</pdfrwt>
<totfact> 0.30682992E-01</totfact>
</mgrwt>
</event>
<event>
 4    5  0.7176259E-008  0.9054951E+03  0.7818608E-02  0.9517267E-01
          1   -1    0    0  501    0  0.00000000000E+00  0.00000000000E+00  0.36480894336E+04  0.36480894336E+04  0.50400000000E-02 0. -1.
         -1   -1    0    0    0  501 -0.00000000000E+00 -0.00000000000E+00 -0.19912784638E+03  0.19912784644E+03  0.50400000000E-02 0.  1.
    8880023    1    1    2    0    0 -0.15002483469E+03  0.60299566723E+03  0.27698709394E+04  0.29141219008E+04  0.65864270000E+03 0.  0.
    8880022    1    1    2    0    0  0.15002483469E+03 -0.60299566723E+03  0.67909064780E+03  0.93309537919E+03  0.15294330000E+03 0.  0.
<mgrwt>
<rscale>  0 0.83022673E+03</rscale>
<asrwt>0</asrwt>
<pdfrwt beam="1">  1        1 0.56124451E+00 0.90549513E+03</pdfrwt>
<pdfrwt beam="2">  1       -1 0.30635054E-01 0.90549513E+03</pdfrwt>
<totfact> 0.19783701E+00</totfact>
</mgrwt>
</event>
<event>
 4    5  0.7176259E-008  0.6719778E+03  0.7818608E-02  0.1014283E+00
         -1   -1    0    0    0  501 -0.00000000000E+00  0.00000000000E+00  0.76540318182E+03  0.76540318184E+03  0.50400000000E-02 0.  1.
          1   -1    0    0  501    0  0.00000000000E+00 -0.00000000000E+00 -0.25002577079E+03  0.25002577084E+03  0.50400000000E-02 0. -1.
    8880023    1    1    2    0    0 -0.13177969667E+03  0.19444074552E+02  0.38871263622E+03  0.77630643454E+03  0.65864270000E+03 0.  1.
    8880022    1    1    2    0    0  0.13177969667E+03 -0.19444074552E+02  0.12666477481E+03  0.23912251814E+03  0.15294330000E+03 0. -1.
<mgrwt>
<rscale>  0 0.49807351E+03</rscale>
<asrwt>0</asrwt>
<pdfrwt beam="1">  1        1 0.38465504E-01 0.67197780E+03</pdfrwt>
<pdfrwt beam="2">  1       -1 0.11775433E+00 0.67197780E+03</pdfrwt>
<totfact> 0.73756721E+01</totfact>
</mgrwt>
</event>
<event>
 4    5  0.7176259E-008  0.9002873E+03  0.7818608E-02  0.9525571E-01
         -1   -1    0    0    0  501 -0.00000000000E+00  0.00000000000E+00  0.27855577214E+03  0.27855577219E+03  0.50400000000E-02 0.  1.
          1   -1    0    0  501    0  0.00000000000E+00 -0.00000000000E+00 -0.27044035708E+04  0.27044035708E+04  0.50400000000E-02 0. -1.
    8880023    1    1    2    0    0  0.41767460812E+03  0.44972765587E+03 -0.20697587677E+04  0.22570818783E+04  0.65864270000E+03 0.  0.
    8880022    1    1    2    0    0 -0.41767460812E+03 -0.44972765587E+03 -0.35608903095E+03  0.72587746466E+03  0.15294330000E+03 0.  0.
<mgrwt>
<rscale>  0 0.82424579E+03</rscale>
<asrwt>0</asrwt>
<pdfrwt beam="1">  1        1 0.41606207E+00 0.90028731E+03</pdfrwt>
<pdfrwt beam="2">  1       -1 0.42854736E-01 0.90028731E+03</pdfrwt>
<totfact> 0.54139004E+00</totfact>
</mgrwt>
</event>
<event>
 4    5  0.7176259E-008  0.7027424E+03  0.7818608E-02  0.9986009E-01
         -1   -1    0    0    0  501 -0.00000000000E+00  0.00000000000E+00  0.48851912080E+03  0.48851912082E+03  0.50400000000E-02 0.  1.
          1   -1    0    0  501    0  0.00000000000E+00 -0.00000000000E+00 -0.69710359228E+03  0.69710359230E+03  0.50400000000E-02 0. -1.
    8880023    1    1    2    0    0 -0.85524412804E+02 -0.22961322141E+03 -0.42806756770E+03  0.82285400006E+03  0.65864270000E+03 0. -1.
    8880022    1    1    2    0    0  0.85524412804E+02  0.22961322141E+03  0.21948309622E+03  0.36276871306E+03  0.15294330000E+03 0.  0.
<mgrwt>
<rscale>  0 0.56267976E+03</rscale>
<asrwt>0</asrwt>
<pdfrwt beam="1">  1        1 0.10724671E+00 0.70274239E+03</pdfrwt>
<pdfrwt beam="2">  1       -1 0.75156788E-01 0.70274239E+03</pdfrwt>
<totfact> 0.50113103E+01</totfact>
</mgrwt>
</event>
<event>
 4    5  0.7176259E-008  0.7294245E+03  0.7818608E-02  0.9891898E-01
          1   -1    0    0  501    0  0.00000000000E+00  0.00000000000E+00  0.78958473122E+03  0.78958473124E+03  0.50400000000E-02 0. -1.
         -1   -1    0    0    0  501 -0.00000000000E+00 -0.00000000000E+00 -0.17887258579E+04  0.17887258579E+04  0.50400000000E-02 0.  1.
    8880023    1    1    2    0    0 -0.26146795123E+03 -0.17287090974E+03  0.59819359286E+03  0.94334279123E+03  0.65864270000E+03 0.  0.
    8880022    1    1    2    0    0  0.26146795123E+03  0.17287090974E+03 -0.15973347196E+04  0.16349677979E+04  0.15294330000E+03 0.  0.
<mgrwt>
<rscale>  0 0.60655538E+03</rscale>
<asrwt>0</asrwt>
<pdfrwt beam="1">  1        1 0.12147457E+00 0.72942446E+03</pdfrwt>
<pdfrwt beam="2">  1       -1 0.27518859E+00 0.72942446E+03</pdfrwt>
<totfact> 0.11412896E+00</totfact>
</mgrwt>
</event>
<event>
 4    5  0.7176259E-008  0.8433175E+03  0.7818608E-02  0.9623956E-01
         -1   -1    0    0    0  501 -0.00000000000E+00  0.00000000000E+00  0.76707669886E+03  0.76707669888E+03  0.50400000000E-02 0.  1.
          1   -1    0    0  501    0  0.00000000000E+00 -0.00000000000E+00 -0.22397029135E+04  0.22397029135E+04  0.50400000000E-02 0. -1.
    8880023    1    1    2    0    0 -0.28552770426E+03 -0.44254726121E+03 -0.20462246613E+04  0.22131922011E+04  0.65864270000E+03 0.  0.
    8880022    1    1    2    0    0  0.28552770426E+03  0.44254726121E+03  0.57359844666E+03  0.79358741127E+03  0.15294330000E+03 0.  1.
<mgrwt>
<rscale>  0 0.75730684E+03</rscale>
<asrwt>0</asrwt>
<pdfrwt beam="1">  1        1 0.34456968E+00 0.84331747E+03</pdfrwt>
<pdfrwt beam="2">  1       -1 0.11801180E+00 0.84331747E+03</pdfrwt>
<totfact> 0.13745645E+00</totfact>
</mgrwt>
</event>
<event>
 4    5  0.9273794E-008  0.8541315E+03  0.7818608E-02  0.9604089E-01
          1   -1    0    0  501    0  0.00000000000E+00  0.00000000000E+00  0.14519182908E+04  0.14519182908E+04  0.50400000000E-02 0. -1.
         -1   -1    0    0    0  501 -0.00000000000E+00 -0.00000000000E+00 -0.16522546205E+04  0.16522546205E+04  0.50400000000E-02 0.  1.
    8880023    1    1    2    0    0  0.19462256724E+03 -0.50779175163E+03  0.12691759043E+04  0.15298196263E+04  0.65864270000E+03 0.  0.
    8880022    1    1    2    0    0 -0.19462256724E+03  0.50779175163E+03 -0.14695122340E+04  0.15743532849E+04  0.15294330000E+03 0.  1.
<mgrwt>
<rscale>  0 0.77026144E+03</rscale>
<asrwt>0</asrwt>
<pdfrwt beam="1">  1        1 0.22337204E+00 0.85413150E+03</pdfrwt>
<pdfrwt beam="2">  1       -1 0.25419302E+00 0.85413150E+03</pdfrwt>
<totfact> 0.48019906E-01</totfact>
</mgrwt>
</event>
<event>
 4    5  0.7176259E-008  0.6919552E+03  0.7818608E-02  0.1003237E+00
         -1   -1    0    0    0  501 -0.00000000000E+00  0.00000000000E+00  0.65795260206E+03  0.65795260208E+03  0.50400000000E-02 0.  1.
          1   -1    0    0  501    0  0.00000000000E+00 -0.00000000000E+00 -0.85435077835E+03  0.85435077836E+03  0.50400000000E-02 0. -1.
    8880023    1    1    2    0    0  0.11241203331E+03 -0.17987582884E+03 -0.67516642214E+03  0.96677385302E+03  0.65864270000E+03 0.  0.
    8880022    1    1    2    0    0 -0.11241203331E+03  0.17987582884E+03  0.47876824586E+03  0.54552952742E+03  0.15294330000E+03 0.  0.
<mgrwt>
<rscale>  0 0.54253447E+03</rscale>
<asrwt>0</asrwt>
<pdfrwt beam="1">  1        1 0.13143858E+00 0.69195519E+03</pdfrwt>
<pdfrwt beam="2">  1       -1 0.10122348E+00 0.69195519E+03</pdfrwt>
<totfact> 0.19061176E+01</totfact>
</mgrwt>
</event>
<event>
 4    5  0.8501493E-008  0.8166039E+03  0.7818608E-02  0.9675982E-01
          1   -1    0    0  501    0  0.00000000000E+00  0.00000000000E+00  0.14334157768E+04  0.14334157768E+04  0.50400000000E-02 0. -1.
         -1   -1    0    0    0  501 -0.00000000000E+00 -0.00000000000E+00 -0.12520098850E+04  0.12520098850E+04  0.50400000000E-02 0.  1.
    8880023    1    1    2    0    0  0.31071894086E+03 -0.36943943860E+03  0.12556394499E+04  0.14978225507E+04  0.65864270000E+03 0.  0.
    8880022    1    1    2    0    0 -0.31071894086E+03  0.36943943860E+03 -0.10742335582E+04  0.11876031111E+04  0.15294330000E+03 0.  0.
<mgrwt>
<rscale>  0 0.72465001E+03</rscale>
<asrwt>0</asrwt>
<pdfrwt beam="1">  1        1 0.22052550E+00 0.81660392E+03</pdfrwt>
<pdfrwt beam="2">  1       -1 0.19261691E+00 0.81660392E+03</pdfrwt>
<totfact> 0.12785168E+00</totfact>
</mgrwt>
</event>
<event>
 4    5  0.7176259E-008  0.7866551E+03  0.7818608E-02  0.9740430E-01
          1   -1    0    0  501    0  0.00000000000E+00  0.00000000000E+00  0.16386822917E+04  0.16386822917E+04  0.50400000000E-02 0. -1.
         -1   -1    0    0    0  501 -0.00000000000E+00 -0.00000000000E+00 -0.81179142287E+03  0.81179142288E+03  0.50400000000E-02 0.  1.
    8880023    1    1    2    0    0 -0.33488019584E+03  0.26994688431E+03  0.14667897563E+04  0.16644213593E+04  0.65864270000E+03 0. -1.
    8880022    1    1    2    0    0  0.33488019584E+03 -0.26994688431E+03 -0.63989888751E+03  0.78605235523E+03  0.15294330000E+03 0.  0.
<mgrwt>
<rscale>  0 0.68659795E+03</rscale>
<asrwt>0</asrwt>
<pdfrwt beam="1">  1        1 0.25210497E+00 0.78665512E+03</pdfrwt>
<pdfrwt beam="2">  1       -1 0.12489099E+00 0.78665512E+03</pdfrwt>
<totfact> 0.30609941E+00</totfact>
</mgrwt>
</event>
<event>
 4    5  0.7176259E-008  0.7695967E+03  0.7818608E-02  0.9780868E-01
          1   -1    0    0  501    0  0.00000000000E+00  0.00000000000E+00  0.27583111689E+04  0.27583111689E+04  0.50400000000E-02 0. -1.
         -1   -1    0    0    0  501 -0.00000000000E+00 -0.00000000000E+00 -0.30938280895E+03  0.30938280899E+03  0.50400000000E-02 0.  1.
    8880023    1    1    2    0    0  0.32687690674E+02  0.39673717052E+03  0.25204144583E+04  0.26352927951E+04  0.65864270000E+03 0. -1.
    8880022    1    1    2    0    0 -0.32687690674E+02 -0.39673717052E+03 -0.71486098437E+02  0.43240118279E+03  0.15294330000E+03 0.  1.
<mgrwt>
<rscale>  0 0.66399483E+03</rscale>
<asrwt>0</asrwt>
<pdfrwt beam="1">  1        1 0.42435557E+00 0.76959670E+03</pdfrwt>
<pdfrwt beam="2">  1       -1 0.47597355E-01 0.76959670E+03</pdfrwt>
<totfact> 0.41720083E+00</totfact>
</mgrwt>
</event>
<event>
 4    5  0.7176259E-008  0.1454132E+04  0.7818608E-02  0.8942723E-01
          1   -1    0    0  501    0  0.00000000000E+00  0.00000000000E+00  0.32054736118E+04  0.32054736118E+04  0.50400000000E-02 0. -1.
         -1   -1    0    0    0  501 -0.00000000000E+00 -0.00000000000E+00 -0.85011820873E+03  0.85011820875E+03  0.50400000000E-02 0.  1.
    8880023    1    1    2    0    0 -0.11777695539E+04 -0.54180070396E+03  0.23341123841E+04  0.27500145368E+04  0.65864270000E+03 0. -1.
    8880022    1    1    2    0    0  0.11777695539E+04  0.54180070396E+03  0.21243018967E+02  0.13055772837E+04  0.15294330000E+03 0.  0.
<mgrwt>
<rscale>  0 0.14154323E+04</rscale>
<asrwt>0</asrwt>
<pdfrwt beam="1">  1        1 0.49314979E+00 0.14541318E+04</pdfrwt>
<pdfrwt beam="2">  1       -1 0.13078742E+00 0.14541318E+04</pdfrwt>
<totfact> 0.20219489E-01</totfact>
</mgrwt>
</event>
<event>
 4    5  0.7176259E-008  0.1261887E+04  0.7818608E-02  0.9099192E-01
         -1   -1    0    0    0  501 -0.00000000000E+00  0.00000000000E+00  0.61710241508E+03  0.61710241510E+03  0.50400000000E-02 0.  1.
          1   -1    0    0  501    0  0.00000000000E+00 -0.00000000000E+00 -0.24567933544E+04  0.24567933544E+04  0.50400000000E-02 0. -1.
    8880023    1    1    2    0    0  0.58453104135E+03 -0.90380952093E+03 -0.52196133012E+03  0.13655775426E+04  0.65864270000E+03 0. -1.
    8880022    1    1    2    0    0 -0.58453104135E+03  0.90380952093E+03 -0.13177296092E+04  0.17083182269E+04  0.15294330000E+03 0.  0.
<mgrwt>
<rscale>  0 0.12157373E+04</rscale>
<asrwt>0</asrwt>
<pdfrwt beam="1">  1        1 0.37796820E+00 0.12618868E+04</pdfrwt>
<pdfrwt beam="2">  1       -1 0.94938834E-01 0.12618868E+04</pdfrwt>
<totfact> 0.15294601E+00</totfact>
</mgrwt>
</event>
<event>
 4    5  0.7176259E-008  0.7261794E+03  0.7818608E-02  0.9902206E-01
         -1   -1    0    0    0  501 -0.00000000000E+00  0.00000000000E+00  0.46081285739E+03  0.46081285742E+03  0.50400000000E-02 0.  1.
          1   -1    0    0  501    0  0.00000000000E+00 -0.00000000000E+00 -0.80586120829E+03  0.80586120830E+03  0.50400000000E-02 0. -1.
    8880023    1    1    2    0    0  0.28209082476E+03  0.11811489269E+03 -0.50966010690E+03  0.88718092412E+03  0.65864270000E+03 0. -1.
    8880022    1    1    2    0    0 -0.28209082476E+03 -0.11811489269E+03  0.16461175601E+03  0.37949314160E+03  0.15294330000E+03 0.  0.
<mgrwt>
<rscale>  0 0.60154502E+03</rscale>
<asrwt>0</asrwt>
<pdfrwt beam="1">  1        1 0.12397865E+00 0.72617943E+03</pdfrwt>
<pdfrwt beam="2">  1       -1 0.70894286E-01 0.72617943E+03</pdfrwt>
<totfact> 0.45054090E+01</totfact>
</mgrwt>
</event>
<event>
 4    5  0.7176259E-008  0.8731880E+03  0.7818608E-02  0.9570522E-01
          1   -1    0    0  501    0  0.00000000000E+00  0.00000000000E+00  0.71189122816E+03  0.71189122818E+03  0.50400000000E-02 0. -1.
         -1   -1    0    0    0  501 -0.00000000000E+00 -0.00000000000E+00 -0.12918162472E+04  0.12918162472E+04  0.50400000000E-02 0.  1.
    8880023    1    1    2    0    0  0.51172527421E+03 -0.25842661780E+03  0.31644287116E+03  0.92875904842E+03  0.65864270000E+03 0. -1.
    8880022    1    1    2    0    0 -0.51172527421E+03  0.25842661780E+03 -0.89636789024E+03  0.10749484270E+04  0.15294330000E+03 0.  0.
<mgrwt>
<rscale>  0 0.79278354E+03</rscale>
<asrwt>0</asrwt>
<pdfrwt beam="1">  1        1 0.10952173E+00 0.87318800E+03</pdfrwt>
<pdfrwt beam="2">  1       -1 0.19874096E+00 0.87318800E+03</pdfrwt>
<totfact> 0.41566671E+00</totfact>
</mgrwt>
</event>
<event>
 4    5  0.7176259E-008  0.7439968E+03  0.7818608E-02  0.9848454E-01
         -1   -1    0    0    0  501 -0.00000000000E+00  0.00000000000E+00  0.63635135422E+03  0.63635135424E+03  0.50400000000E-02 0.  1.
          1   -1    0    0  501    0  0.00000000000E+00 -0.00000000000E+00 -0.76180771902E+03  0.76180771904E+03  0.50400000000E-02 0. -1.
    8880023    1    1    2    0    0 -0.26072953368E+03  0.22746679473E+03  0.32331443289E+03  0.81121110768E+03  0.65864270000E+03 0.  1.
    8880022    1    1    2    0    0  0.26072953368E+03 -0.22746679473E+03 -0.44877079770E+03  0.58694796560E+03  0.15294330000E+03 0.  0.
<mgrwt>
<rscale>  0 0.62825806E+03</rscale>
<asrwt>0</asrwt>
<pdfrwt beam="1">  1        1 0.11720119E+00 0.74399680E+03</pdfrwt>
<pdfrwt beam="2">  1       -1 0.97900209E-01 0.74399680E+03</pdfrwt>
<totfact> 0.24553010E+01</totfact>
</mgrwt>
</event>
<event>
 4    5  0.7176259E-008  0.1437981E+04  0.7818608E-02  0.8954719E-01
          1   -1    0    0  501    0  0.00000000000E+00  0.00000000000E+00  0.30135087990E+04  0.30135087990E+04  0.50400000000E-02 0. -1.
         -1   -1    0    0    0  501 -0.00000000000E+00 -0.00000000000E+00 -0.64555535349E+03  0.64555535351E+03  0.50400000000E-02 0.  1.
    8880023    1    1    2    0    0 -0.97821762722E+03 -0.82284143067E+03  0.16360234447E+04  0.21781553352E+04  0.65864270000E+03 0.  0.
    8880022    1    1    2    0    0  0.97821762722E+03  0.82284143067E+03  0.73193000081E+03  0.14809088174E+04  0.15294330000E+03 0.  0.
<mgrwt>
<rscale>  0 0.13987567E+04</rscale>
<asrwt>0</asrwt>
<pdfrwt beam="1">  1        1 0.46361674E+00 0.14379805E+04</pdfrwt>
<pdfrwt beam="2">  1       -1 0.99316208E-01 0.14379805E+04</pdfrwt>
<totfact> 0.54657572E-01</totfact>
</mgrwt>
</event>
<event>
 4    5  0.7176259E-008  0.1441510E+04  0.7818608E-02  0.8952082E-01
         -1   -1    0    0    0  501 -0.00000000000E+00  0.00000000000E+00  0.83564118392E+03  0.83564118394E+03  0.50400000000E-02 0.  1.
          1   -1    0    0  501    0  0.00000000000E+00 -0.00000000000E+00 -0.23760187293E+04  0.23760187293E+04  0.50400000000E-02 0. -1.
    8880023    1    1    2    0    0  0.13923256643E+03  0.12746586836E+04 -0.12015658583E+04  0.18766222809E+04  0.65864270000E+03 0.  0.
    8880022    1    1    2    0    0 -0.13923256643E+03 -0.12746586836E+04 -0.33881168713E+03  0.13350376323E+04  0.15294330000E+03 0.  0.
<mgrwt>
<rscale>  0 0.14024019E+04</rscale>
<asrwt>0</asrwt>
<pdfrwt beam="1">  1        1 0.36554134E+00 0.14415099E+04</pdfrwt>
<pdfrwt beam="2">  1       -1 0.12856018E+00 0.14415099E+04</pdfrwt>
<totfact> 0.82503912E-01</totfact>
</mgrwt>
</event>
<event>
 4    5  0.7176259E-008  0.8260811E+03  0.7818608E-02  0.9657006E-01
          1   -1    0    0  501    0  0.00000000000E+00  0.00000000000E+00  0.13956230709E+04  0.13956230709E+04  0.50400000000E-02 0. -1.
         -1   -1    0    0    0  501 -0.00000000000E+00 -0.00000000000E+00 -0.90059580858E+03  0.90059580860E+03  0.50400000000E-02 0.  1.
    8880023    1    1    2    0    0 -0.20746421916E+03  0.45338546890E+03  0.11768281106E+04  0.14378227964E+04  0.65864270000E+03 0. -1.
    8880022    1    1    2    0    0  0.20746421916E+03 -0.45338546890E+03 -0.68180084833E+03  0.85839608308E+03  0.15294330000E+03 0.  0.
<mgrwt>
<rscale>  0 0.73635361E+03</rscale>
<asrwt>0</asrwt>
<pdfrwt beam="1">  1        1 0.21471124E+00 0.82608110E+03</pdfrwt>
<pdfrwt beam="2">  1       -1 0.13855320E+00 0.82608110E+03</pdfrwt>
<totfact> 0.34310018E+00</totfact>
</mgrwt>
</event>
<event>
 4    5  0.7176259E-008  0.1193273E+04  0.7818608E-02  0.9163689E-01
         -1   -1    0    0    0  501 -0.00000000000E+00  0.00000000000E+00  0.10705546288E+04  0.10705546289E+04  0.50400000000E-02 0.  1.
          1   -1    0    0  501    0  0.00000000000E+00 -0.00000000000E+00 -0.21694924792E+04  0.21694924792E+04  0.50400000000E-02 0. -1.
    8880023    1    1    2    0    0 -0.93195417693E+03 -0.34864303306E+03 -0.16928881259E+04  0.20711762275E+04  0.65864270000E+03 0.  0.
    8880022    1    1    2    0    0  0.93195417693E+03  0.34864303306E+03  0.59395027558E+03  0.11688708805E+04  0.15294330000E+03 0.  0.
<mgrwt>
<rscale>  0 0.11436204E+04</rscale>
<asrwt>0</asrwt>
<pdfrwt beam="1">  1        1 0.33376807E+00 0.11932731E+04</pdfrwt>
<pdfrwt beam="2">  1       -1 0.16470071E+00 0.11932731E+04</pdfrwt>
<totfact> 0.60598645E-01</totfact>
</mgrwt>
</event>
<event>
 4    5  0.7176259E-008  0.1134541E+04  0.7818608E-02  0.9223540E-01
          1   -1    0    0  501    0  0.00000000000E+00  0.00000000000E+00  0.90555470359E+03  0.90555470360E+03  0.50400000000E-02 0. -1.
         -1   -1    0    0    0  501 -0.00000000000E+00 -0.00000000000E+00 -0.12882268066E+04  0.12882268066E+04  0.50400000000E-02 0.  1.
    8880023    1    1    2    0    0  0.74723292142E+03  0.54315348142E+03  0.10255752625E+03  0.11391667989E+04  0.65864270000E+03 0.  0.
    8880022    1    1    2    0    0 -0.74723292142E+03 -0.54315348142E+03 -0.48522962929E+03  0.10546147113E+04  0.15294330000E+03 0.  0.
<mgrwt>
<rscale>  0 0.10813729E+04</rscale>
<asrwt>0</asrwt>
<pdfrwt beam="1">  1        1 0.13931611E+00 0.11345409E+04</pdfrwt>
<pdfrwt beam="2">  1       -1 0.19818874E+00 0.11345409E+04</pdfrwt>
<totfact> 0.27574155E+00</totfact>
</mgrwt>
</event>
<event>
 4    5  0.7176259E-008  0.1106297E+04  0.7818608E-02  0.9254078E-01
         -1   -1    0    0    0  501 -0.00000000000E+00  0.00000000000E+00  0.24588069485E+04  0.24588069485E+04  0.50400000000E-02 0.  1.
          1   -1    0    0  501    0  0.00000000000E+00 -0.00000000000E+00 -0.83252300145E+03  0.83252300147E+03  0.50400000000E-02 0. -1.
    8880023    1    1    2    0    0 -0.10513514092E+03 -0.88262635291E+03 -0.31541254434E+03  0.11503816567E+04  0.65864270000E+03 0. -1.
    8880022    1    1    2    0    0  0.10513514092E+03  0.88262635291E+03  0.19416964913E+04  0.21409482932E+04  0.15294330000E+03 0.  0.
<mgrwt>
<rscale>  0 0.10512276E+04</rscale>
<asrwt>0</asrwt>
<pdfrwt beam="1">  1        1 0.12808046E+00 0.11062969E+04</pdfrwt>
<pdfrwt beam="2">  1       -1 0.37827799E+00 0.11062969E+04</pdfrwt>
<totfact> 0.20954896E-01</totfact>
</mgrwt>
</event>
<event>
 4    5  0.7176259E-008  0.1077954E+04  0.7818608E-02  0.9286007E-01
         -1   -1    0    0    0  501 -0.00000000000E+00  0.00000000000E+00  0.11555499755E+04  0.11555499755E+04  0.50400000000E-02 0.  1.
          1   -1    0    0  501    0  0.00000000000E+00 -0.00000000000E+00 -0.13948497435E+04  0.13948497435E+04  0.50400000000E-02 0. -1.
    8880023    1    1    2    0    0  0.16537280637E+03  0.83715429824E+03 -0.94424253582E+03  0.14330316315E+04  0.65864270000E+03 0.  0.
    8880022    1    1    2    0    0 -0.16537280637E+03 -0.83715429824E+03  0.70494276782E+03  0.11173680875E+04  0.15294330000E+03 0.  0.
<mgrwt>
<rscale>  0 0.10208132E+04</rscale>
<asrwt>0</asrwt>
<pdfrwt beam="1">  1        1 0.21459227E+00 0.10779544E+04</pdfrwt>
<pdfrwt beam="2">  1       -1 0.17777692E+00 0.10779544E+04</pdfrwt>
<totfact> 0.16642039E+00</totfact>
</mgrwt>
</event>
<event>
 4    5  0.7176259E-008  0.6862594E+03  0.7818608E-02  0.1005984E+00
          1   -1    0    0  501    0  0.00000000000E+00  0.00000000000E+00  0.12459511146E+04  0.12459511146E+04  0.50400000000E-02 0. -1.
         -1   -1    0    0    0  501 -0.00000000000E+00 -0.00000000000E+00 -0.18428793173E+03  0.18428793180E+03  0.50400000000E-02 0.  1.
    8880023    1    1    2    0    0  0.19271437894E+03  0.17153519798E+01  0.91517696650E+03  0.11438972246E+04  0.65864270000E+03 0.  0.
    8880022    1    1    2    0    0 -0.19271437894E+03 -0.17153519798E+01  0.14648621637E+03  0.28634182175E+03  0.15294330000E+03 0.  0.
<mgrwt>
<rscale>  0 0.53102583E+03</rscale>
<asrwt>0</asrwt>
<pdfrwt beam="1">  1        1 0.19168479E+00 0.68625941E+03</pdfrwt>
<pdfrwt beam="2">  1       -1 0.28351989E-01 0.68625941E+03</pdfrwt>
<totfact> 0.11423291E+02</totfact>
</mgrwt>
</event>
<event>
 4    5  0.7176259E-008  0.1353748E+04  0.7818608E-02  0.9020481E-01
         -1   -1    0    0    0  501 -0.00000000000E+00  0.00000000000E+00  0.58231315249E+03  0.58231315251E+03  0.50400000000E-02 0.  1.
          1   -1    0    0  501    0  0.00000000000E+00 -0.00000000000E+00 -0.37363253441E+04  0.37363253441E+04  0.50400000000E-02 0. -1.
    8880023    1    1    2    0    0  0.35215909588E+03 -0.11290742362E+04 -0.27401250922E+04  0.30562919342E+04  0.65864270000E+03 0.  0.
    8880022    1    1    2    0    0 -0.35215909588E+03  0.11290742362E+04 -0.41388709942E+03  0.12623465625E+04  0.15294330000E+03 0.  0.
<mgrwt>
<rscale>  0 0.13115178E+04</rscale>
<asrwt>0</asrwt>
<pdfrwt beam="1">  1        1 0.57481927E+00 0.13537485E+04</pdfrwt>
<pdfrwt beam="2">  1       -1 0.89586641E-01 0.13537485E+04</pdfrwt>
<totfact> 0.19392613E-01</totfact>
</mgrwt>
</event>
<event>
 4    5  0.7176259E-008  0.7655739E+03  0.7818608E-02  0.9790885E-01
         -1   -1    0    0    0  501 -0.00000000000E+00  0.00000000000E+00  0.46464710468E+03  0.46464710471E+03  0.50400000000E-02 0.  1.
          1   -1    0    0  501    0  0.00000000000E+00 -0.00000000000E+00 -0.91986711496E+03  0.91986711498E+03  0.50400000000E-02 0. -1.
    8880023    1    1    2    0    0  0.11502228037E+03 -0.37291167701E+03 -0.56469409006E+03  0.95130587376E+03  0.65864270000E+03 0. -1.
    8880022    1    1    2    0    0 -0.11502228037E+03  0.37291167701E+03  0.10947407978E+03  0.43320834593E+03  0.15294330000E+03 0.  0.
<mgrwt>
<rscale>  0 0.65854000E+03</rscale>
<asrwt>0</asrwt>
<pdfrwt beam="1">  1        1 0.14151802E+00 0.76557394E+03</pdfrwt>
<pdfrwt beam="2">  1       -1 0.71484170E-01 0.76557394E+03</pdfrwt>
<totfact> 0.35460932E+01</totfact>
</mgrwt>
</event>
<event>
 4    5  0.7176259E-008  0.1007782E+04  0.7818608E-02  0.9371446E-01
          1   -1    0    0  501    0  0.00000000000E+00  0.00000000000E+00  0.19567078790E+04  0.19567078790E+04  0.50400000000E-02 0. -1.
         -1   -1    0    0    0  501 -0.00000000000E+00 -0.00000000000E+00 -0.73173494151E+03  0.73173494153E+03  0.50400000000E-02 0.  1.
    8880023    1    1    2    0    0  0.71192957881E+03  0.27380864802E+03  0.15471419683E+04  0.18464217766E+04  0.65864270000E+03 0.  0.
    8880022    1    1    2    0    0 -0.71192957881E+03 -0.27380864802E+03 -0.32216903082E+03  0.84202104389E+03  0.15294330000E+03 0.  0.
<mgrwt>
<rscale>  0 0.94463273E+03</rscale>
<asrwt>0</asrwt>
<pdfrwt beam="1">  1        1 0.30103198E+00 0.10077823E+04</pdfrwt>
<pdfrwt beam="2">  1       -1 0.11257461E+00 0.10077823E+04</pdfrwt>
<totfact> 0.23248277E+00</totfact>
</mgrwt>
</event>
<event>
 4    5  0.7176259E-008  0.2697758E+04  0.7818608E-02  0.8342095E-01
          1   -1    0    0  501    0  0.00000000000E+00  0.00000000000E+00  0.32401805549E+04  0.32401805549E+04  0.50400000000E-02 0. -1.
         -1   -1    0    0    0  501 -0.00000000000E+00 -0.00000000000E+00 -0.22612801261E+04  0.22612801261E+04  0.50400000000E-02 0.  1.
    8880023    1    1    2    0    0  0.22618475413E+04 -0.13145850671E+04  0.10101759907E+04  0.28806863656E+04  0.65864270000E+03 0.  0.
    8880022    1    1    2    0    0 -0.22618475413E+04  0.13145850671E+04 -0.31275561981E+02  0.26207743154E+04  0.15294330000E+03 0.  0.
<mgrwt>
<rscale>  0 0.26782550E+04</rscale>
<asrwt>0</asrwt>
<pdfrwt beam="1">  1        1 0.49848932E+00 0.26977580E+04</pdfrwt>
<pdfrwt beam="2">  1       -1 0.34788925E+00 0.26977580E+04</pdfrwt>
<totfact> 0.52236996E-03</totfact>
</mgrwt>
</event>
<event>
 4    5  0.7176259E-008  0.1040140E+04  0.7818608E-02  0.9330829E-01
          1   -1    0    0  501    0  0.00000000000E+00  0.00000000000E+00  0.17699119244E+04  0.17699119244E+04  0.50400000000E-02 0. -1.
         -1   -1    0    0    0  501 -0.00000000000E+00 -0.00000000000E+00 -0.69690808995E+03  0.69690808997E+03  0.50400000000E-02 0.  1.
    8880023    1    1    2    0    0  0.79409236565E+03 -0.13228334985E+03 -0.90112630792E+02  0.10440364277E+04  0.65864270000E+03 0.  1.
    8880022    1    1    2    0    0 -0.79409236565E+03  0.13228334985E+03  0.11631164652E+04  0.14227835867E+04  0.15294330000E+03 0. -1.
<mgrwt>
<rscale>  0 0.97993556E+03</rscale>
<asrwt>0</asrwt>
<pdfrwt beam="1">  1        1 0.27229414E+00 0.10401403E+04</pdfrwt>
<pdfrwt beam="2">  1       -1 0.10721663E+00 0.10401403E+04</pdfrwt>
<totfact> 0.34727787E+00</totfact>
</mgrwt>
</event>
<event>
 4    5  0.7176259E-008  0.1217374E+04  0.7818608E-02  0.9140416E-01
         -1   -1    0    0    0  501 -0.00000000000E+00  0.00000000000E+00  0.10509242651E+04  0.10509242651E+04  0.50400000000E-02 0.  1.
          1   -1    0    0  501    0  0.00000000000E+00 -0.00000000000E+00 -0.18122344526E+04  0.18122344526E+04  0.50400000000E-02 0. -1.
    8880023    1    1    2    0    0  0.93466265519E+03 -0.41784466593E+03 -0.12266556001E+04  0.17282021327E+04  0.65864270000E+03 0.  0.
    8880022    1    1    2    0    0 -0.93466265519E+03  0.41784466593E+03  0.46534541258E+03  0.11349565850E+04  0.15294330000E+03 0.  0.
<mgrwt>
<rscale>  0 0.11690175E+04</rscale>
<asrwt>0</asrwt>
<pdfrwt beam="1">  1        1 0.27880530E+00 0.12173737E+04</pdfrwt>
<pdfrwt beam="2">  1       -1 0.16168066E+00 0.12173737E+04</pdfrwt>
<totfact> 0.11108061E+00</totfact>
</mgrwt>
</event>
<event>
 4    5  0.7176259E-008  0.1052702E+04  0.7818608E-02  0.9315641E-01
          1   -1    0    0  501    0  0.00000000000E+00  0.00000000000E+00  0.87683818940E+03  0.87683818941E+03  0.50400000000E-02 0. -1.
         -1   -1    0    0    0  501 -0.00000000000E+00 -0.00000000000E+00 -0.21123179897E+04  0.21123179897E+04  0.50400000000E-02 0.  1.
    8880023    1    1    2    0    0  0.78004278593E+03 -0.25671788557E+03  0.42116847068E+03  0.11338271066E+04  0.65864270000E+03 0. -1.
    8880022    1    1    2    0    0 -0.78004278593E+03  0.25671788557E+03 -0.16566482709E+04  0.18553290725E+04  0.15294330000E+03 0.  0.
<mgrwt>
<rscale>  0 0.99355627E+03</rscale>
<asrwt>0</asrwt>
<pdfrwt beam="1">  1        1 0.13489818E+00 0.10527018E+04</pdfrwt>
<pdfrwt beam="2">  1       -1 0.32497200E+00 0.10527018E+04</pdfrwt>
<totfact> 0.43566842E-01</totfact>
</mgrwt>
</event>
<event>
 4    5  0.7176259E-008  0.1018998E+04  0.7818608E-02  0.9357114E-01
         -1   -1    0    0    0  501 -0.00000000000E+00  0.00000000000E+00  0.33418741572E+03  0.33418741576E+03  0.50400000000E-02 0.  1.
          1   -1    0    0  501    0  0.00000000000E+00 -0.00000000000E+00 -0.32931931814E+04  0.32931931814E+04  0.50400000000E-02 0. -1.
    8880023    1    1    2    0    0 -0.54082312304E+03 -0.55862097729E+03 -0.25272871807E+04  0.27249839902E+04  0.65864270000E+03 0.  0.
    8880022    1    1    2    0    0  0.54082312304E+03  0.55862097729E+03 -0.43171858500E+03  0.90239660701E+03  0.15294330000E+03 0.  0.
<mgrwt>
<rscale>  0 0.95690694E+03</rscale>
<asrwt>0</asrwt>
<pdfrwt beam="1">  1        1 0.50664508E+00 0.10189982E+04</pdfrwt>
<pdfrwt beam="2">  1       -1 0.51413451E-01 0.10189982E+04</pdfrwt>
<totfact> 0.14184032E+00</totfact>
</mgrwt>
</event>
<event>
 4    5  0.7176259E-008  0.1174964E+04  0.7818608E-02  0.9181852E-01
          1   -1    0    0  501    0  0.00000000000E+00  0.00000000000E+00  0.13062959874E+04  0.13062959874E+04  0.50400000000E-02 0. -1.
         -1   -1    0    0    0  501 -0.00000000000E+00 -0.00000000000E+00 -0.10993768911E+04  0.10993768911E+04  0.50400000000E-02 0.  1.
    8880023    1    1    2    0    0 -0.91362412476E+03 -0.33469467943E+03  0.63057257256E+03  0.13334772384E+04  0.65864270000E+03 0.  0.
    8880022    1    1    2    0    0  0.91362412476E+03  0.33469467943E+03 -0.42365347618E+03  0.10721956401E+04  0.15294330000E+03 0.  0.
<mgrwt>
<rscale>  0 0.11242725E+04</rscale>
<asrwt>0</asrwt>
<pdfrwt beam="1">  1        1 0.20096861E+00 0.11749637E+04</pdfrwt>
<pdfrwt beam="2">  1       -1 0.16913491E+00 0.11749637E+04</pdfrwt>
<totfact> 0.21976862E+00</totfact>
</mgrwt>
</event>
<event>
 4    5  0.7176259E-008  0.8008272E+03  0.7818608E-02  0.9709010E-01
         -1   -1    0    0    0  501 -0.00000000000E+00  0.00000000000E+00  0.48428085473E+03  0.48428085475E+03  0.50400000000E-02 0.  1.
          1   -1    0    0  501    0  0.00000000000E+00 -0.00000000000E+00 -0.10344292485E+04  0.10344292485E+04  0.50400000000E-02 0. -1.
    8880023    1    1    2    0    0  0.45451677171E+03  0.30472402636E+02 -0.64577469925E+03  0.10287610177E+04  0.65864270000E+03 0. -1.
    8880022    1    1    2    0    0 -0.45451677171E+03 -0.30472402636E+02  0.95626305515E+02  0.48994908553E+03  0.15294330000E+03 0.  0.
<mgrwt>
<rscale>  0 0.70482851E+03</rscale>
<asrwt>0</asrwt>
<pdfrwt beam="1">  1        1 0.15914296E+00 0.80082724E+03</pdfrwt>
<pdfrwt beam="2">  1       -1 0.74504747E-01 0.80082724E+03</pdfrwt>
<totfact> 0.26364690E+01</totfact>
</mgrwt>
</event>
<event>
 4    5  0.7176259E-008  0.8055730E+03  0.7818608E-02  0.9698873E-01
          1   -1    0    0  501    0  0.00000000000E+00  0.00000000000E+00  0.47728381277E+03  0.47728381280E+03  0.50400000000E-02 0. -1.
         -1   -1    0    0    0  501 -0.00000000000E+00 -0.00000000000E+00 -0.17252398406E+04  0.17252398406E+04  0.50400000000E-02 0.  1.
    8880023    1    1    2    0    0 -0.40948804608E+03  0.21784686791E+03  0.58568217829E+02  0.80769930057E+03  0.65864270000E+03 0. -1.
    8880022    1    1    2    0    0  0.40948804608E+03 -0.21784686791E+03 -0.13065242456E+04  0.13948243528E+04  0.15294330000E+03 0.  0.
<mgrwt>
<rscale>  0 0.71083929E+03</rscale>
<asrwt>0</asrwt>
<pdfrwt beam="1">  1        1 0.73428280E-01 0.80557304E+03</pdfrwt>
<pdfrwt beam="2">  1       -1 0.26542151E+00 0.80557304E+03</pdfrwt>
<totfact> 0.27098583E+00</totfact>
</mgrwt>
</event>
<event>
 4    5  0.7176259E-008  0.7576004E+03  0.7818608E-02  0.9811360E-01
         -1   -1    0    0    0  501 -0.00000000000E+00  0.00000000000E+00  0.60383052141E+03  0.60383052143E+03  0.50400000000E-02 0.  1.
          1   -1    0    0  501    0  0.00000000000E+00 -0.00000000000E+00 -0.19730304340E+04  0.19730304340E+04  0.50400000000E-02 0. -1.
    8880023    1    1    2    0    0  0.17093943713E+03 -0.33305845992E+03 -0.18199210959E+04  0.19713120581E+04  0.65864270000E+03 0. -1.
    8880022    1    1    2    0    0 -0.17093943713E+03  0.33305845992E+03  0.45072118334E+03  0.60554889730E+03  0.15294330000E+03 0.  0.
<mgrwt>
<rscale>  0 0.64756464E+03</rscale>
<asrwt>0</asrwt>
<pdfrwt beam="1">  1        1 0.30354314E+00 0.75760045E+03</pdfrwt>
<pdfrwt beam="2">  1       -1 0.92897004E-01 0.75760045E+03</pdfrwt>
<totfact> 0.36728414E+00</totfact>
</mgrwt>
</event>
<event>
 4    5  0.7176259E-008  0.1590449E+04  0.7818608E-02  0.8848274E-01
         -1   -1    0    0    0  501 -0.00000000000E+00  0.00000000000E+00  0.18721694855E+04  0.18721694855E+04  0.50400000000E-02 0.  1.
          1   -1    0    0  501    0  0.00000000000E+00 -0.00000000000E+00 -0.17809654046E+04  0.17809654046E+04  0.50400000000E-02 0. -1.
    8880023    1    1    2    0    0  0.14329289012E+04  0.20598926693E+03 -0.95984153600E+03  0.18576390377E+04  0.65864270000E+03 0.  0.
    8880022    1    1    2    0    0 -0.14329289012E+04 -0.20598926693E+03  0.10510456169E+04  0.17954958523E+04  0.15294330000E+03 0.  0.
<mgrwt>
<rscale>  0 0.15556393E+04</rscale>
<asrwt>0</asrwt>
<pdfrwt beam="1">  1        1 0.27399468E+00 0.15904487E+04</pdfrwt>
<pdfrwt beam="2">  1       -1 0.28802607E+00 0.15904487E+04</pdfrwt>
<totfact> 0.15477095E-01</totfact>
</mgrwt>
</event>
<event>
 4    5  0.7176259E-008  0.7252512E+03  0.7818608E-02  0.9905202E-01
          1   -1    0    0  501    0  0.00000000000E+00  0.00000000000E+00  0.20178466762E+04  0.20178466762E+04  0.50400000000E-02 0. -1.
         -1   -1    0    0    0  501 -0.00000000000E+00 -0.00000000000E+00 -0.28638735265E+03  0.28638735269E+03  0.50400000000E-02 0.  1.
    8880023    1    1    2    0    0  0.96165369725E+00  0.30360855891E+03  0.18146795309E+04  0.19542392607E+04  0.65864270000E+03 0.  0.
    8880022    1    1    2    0    0 -0.96165369725E+00 -0.30360855891E+03 -0.83220207393E+02  0.34999476819E+03  0.15294330000E+03 0.  0.
<mgrwt>
<rscale>  0 0.60009820E+03</rscale>
<asrwt>0</asrwt>
<pdfrwt beam="1">  1        1 0.31043794E+00 0.72525119E+03</pdfrwt>
<pdfrwt beam="2">  1       -1 0.44059594E-01 0.72525119E+03</pdfrwt>
<totfact> 0.15456595E+01</totfact>
</mgrwt>
</event>
<event>
 4    5  0.7176259E-008  0.1429779E+04  0.7818608E-02  0.8960882E-01
         -1   -1    0    0    0  501 -0.00000000000E+00  0.00000000000E+00  0.37844325686E+04  0.37844325686E+04  0.50400000000E-02 0.  1.
          1   -1    0    0  501    0  0.00000000000E+00 -0.00000000000E+00 -0.72778872163E+03  0.72778872165E+03  0.50400000000E-02 0. -1.
    8880023    1    1    2    0    0 -0.18943272707E+03  0.12548203117E+04  0.28884898027E+04  0.32229865528E+04  0.65864270000E+03 0.  0.
    8880022    1    1    2    0    0  0.18943272707E+03 -0.12548203117E+04  0.16815404423E+03  0.12892347375E+04  0.15294330000E+03 0.  0.
<mgrwt>
<rscale>  0 0.13902833E+04</rscale>
<asrwt>0</asrwt>
<pdfrwt beam="1">  1        1 0.11196750E+00 0.14297793E+04</pdfrwt>
<pdfrwt beam="2">  1       -1 0.58222039E+00 0.14297793E+04</pdfrwt>
<totfact> 0.12561345E-02</totfact>
</mgrwt>
</event>
<event>
 4    5  0.7176259E-008  0.1075449E+04  0.7818608E-02  0.9288896E-01
          1   -1    0    0  501    0  0.00000000000E+00  0.00000000000E+00  0.36511346523E+04  0.36511346523E+04  0.50400000000E-02 0. -1.
         -1   -1    0    0    0  501 -0.00000000000E+00 -0.00000000000E+00 -0.83370659012E+03  0.83370659013E+03  0.50400000000E-02 0.  1.
    8880023    1    1    2    0    0 -0.25017232426E+03 -0.81252270588E+03  0.33169896176E+04  0.34869771535E+04  0.65864270000E+03 0.  0.
    8880022    1    1    2    0    0  0.25017232426E+03  0.81252270588E+03 -0.49956155540E+03  0.99786408897E+03  0.15294330000E+03 0.  0.
<mgrwt>
<rscale>  0 0.10181154E+04</rscale>
<asrwt>0</asrwt>
<pdfrwt beam="1">  1        1 0.56171302E+00 0.10754485E+04</pdfrwt>
<pdfrwt beam="2">  1       -1 0.12826255E+00 0.10754485E+04</pdfrwt>
<totfact> 0.10199710E-01</totfact>
</mgrwt>
</event>
<event>
 4    5  0.7176259E-008  0.9200194E+03  0.7818608E-02  0.9494629E-01
          1   -1    0    0  501    0  0.00000000000E+00  0.00000000000E+00  0.68511050452E+03  0.68511050454E+03  0.50400000000E-02 0. -1.
         -1   -1    0    0    0  501 -0.00000000000E+00 -0.00000000000E+00 -0.11023559033E+04  0.11023559033E+04  0.50400000000E-02 0.  1.
    8880023    1    1    2    0    0  0.55975303602E+02 -0.63991575309E+03  0.13089631308E+03  0.92928437881E+03  0.65864270000E+03 0. -1.
    8880022    1    1    2    0    0 -0.55975303602E+02  0.63991575309E+03 -0.54814171185E+03  0.85818202903E+03  0.15294330000E+03 0.  0.
<mgrwt>
<rscale>  0 0.84680938E+03</rscale>
<asrwt>0</asrwt>
<pdfrwt beam="1">  1        1 0.10540162E+00 0.92001935E+03</pdfrwt>
<pdfrwt beam="2">  1       -1 0.16959322E+00 0.92001935E+03</pdfrwt>
<totfact> 0.70539381E+00</totfact>
</mgrwt>
</event>
<event>
 4    5  0.7176259E-008  0.8455753E+03  0.7818608E-02  0.9619756E-01
         -1   -1    0    0    0  501 -0.00000000000E+00  0.00000000000E+00  0.61281759872E+03  0.61281759874E+03  0.50400000000E-02 0.  1.
          1   -1    0    0  501    0  0.00000000000E+00 -0.00000000000E+00 -0.11128289319E+04  0.11128289319E+04  0.50400000000E-02 0. -1.
    8880023    1    1    2    0    0 -0.47928004646E+03  0.22688749863E+03 -0.74017432803E+03  0.11237684557E+04  0.65864270000E+03 0. -1.
    8880022    1    1    2    0    0  0.47928004646E+03 -0.22688749863E+03  0.24016299484E+03  0.60187807493E+03  0.15294330000E+03 0.  0.
<mgrwt>
<rscale>  0 0.76002291E+03</rscale>
<asrwt>0</asrwt>
<pdfrwt beam="1">  1        1 0.17120445E+00 0.84557525E+03</pdfrwt>
<pdfrwt beam="2">  1       -1 0.94279631E-01 0.84557525E+03</pdfrwt>
<totfact> 0.13774279E+01</totfact>
</mgrwt>
</event>
<event>
 4    5  0.7176259E-008  0.9164090E+03  0.7818608E-02  0.9500187E-01
         -1   -1    0    0    0  501 -0.00000000000E+00  0.00000000000E+00  0.73343662979E+03  0.73343662981E+03  0.50400000000E-02 0.  1.
          1   -1    0    0  501    0  0.00000000000E+00 -0.00000000000E+00 -0.24857143137E+04  0.24857143137E+04  0.50400000000E-02 0. -1.
    8880023    1    1    2    0    0 -0.47443157026E+03 -0.42533517805E+03 -0.22281938300E+04  0.24092848065E+04  0.65864270000E+03 0.  0.
    8880022    1    1    2    0    0  0.47443157026E+03  0.42533517805E+03  0.47591614618E+03  0.80986613693E+03  0.15294330000E+03 0.  0.
<mgrwt>
<rscale>  0 0.84270027E+03</rscale>
<asrwt>0</asrwt>
<pdfrwt beam="1">  1        1 0.38241758E+00 0.91640904E+03</pdfrwt>
<pdfrwt beam="2">  1       -1 0.11283641E+00 0.91640904E+03</pdfrwt>
<totfact> 0.10282232E+00</totfact>
</mgrwt>
</event>
<event>
 4    5  0.7176259E-008  0.1996516E+04  0.7818608E-02  0.8620975E-01
         -1   -1    0    0    0  501 -0.00000000000E+00  0.00000000000E+00  0.14491827577E+04  0.14491827577E+04  0.50400000000E-02 0.  1.
          1   -1    0    0  501    0  0.00000000000E+00 -0.00000000000E+00 -0.33743121510E+04  0.33743121510E+04  0.50400000000E-02 0. -1.
    8880023    1    1    2    0    0 -0.40980346260E+01 -0.18847414844E+04 -0.21324744350E+04  0.29212197246E+04  0.65864270000E+03 0.  0.
    8880022    1    1    2    0    0  0.40980346260E+01  0.18847414844E+04  0.20734504178E+03  0.19022751842E+04  0.15294330000E+03 0.  0.
<mgrwt>
<rscale>  0 0.19695824E+04</rscale>
<asrwt>0</asrwt>
<pdfrwt beam="1">  1        1 0.51912494E+00 0.19965163E+04</pdfrwt>
<pdfrwt beam="2">  1       -1 0.22295119E+00 0.19965163E+04</pdfrwt>
<totfact> 0.29377544E-02</totfact>
</mgrwt>
</event>
<event>
 4    5  0.7176259E-008  0.9117865E+03  0.7818608E-02  0.9507369E-01
         -1   -1    0    0    0  501 -0.00000000000E+00  0.00000000000E+00  0.11613139531E+04  0.11613139531E+04  0.50400000000E-02 0.  1.
          1   -1    0    0  501    0  0.00000000000E+00 -0.00000000000E+00 -0.97519372532E+03  0.97519372534E+03  0.50400000000E-02 0. -1.
    8880023    1    1    2    0    0 -0.55395188190E+03  0.30113401673E+03 -0.61934145332E+03  0.11022424532E+04  0.65864270000E+03 0.  0.
    8880022    1    1    2    0    0  0.55395188190E+03 -0.30113401673E+03  0.80546168109E+03  0.10342652253E+04  0.15294330000E+03 0.  0.
<mgrwt>
<rscale>  0 0.83742684E+03</rscale>
<asrwt>0</asrwt>
<pdfrwt beam="1">  1        1 0.15002980E+00 0.91178648E+03</pdfrwt>
<pdfrwt beam="2">  1       -1 0.17866368E+00 0.91178648E+03</pdfrwt>
<totfact> 0.34165401E+00</totfact>
</mgrwt>
</event>
<event>
 4    5  0.7176259E-008  0.1241613E+04  0.7818608E-02  0.9117696E-01
         -1   -1    0    0    0  501 -0.00000000000E+00  0.00000000000E+00  0.15888306937E+04  0.15888306937E+04  0.50400000000E-02 0.  1.
          1   -1    0    0  501    0  0.00000000000E+00 -0.00000000000E+00 -0.98355454271E+03  0.98355454272E+03  0.50400000000E-02 0. -1.
    8880023    1    1    2    0    0 -0.10430685058E+04 -0.14071654974E+03 -0.17418346995E+03  0.12537715671E+04  0.65864270000E+03 0.  0.
    8880022    1    1    2    0    0  0.10430685058E+04  0.14071654974E+03  0.77945962091E+03  0.13186136693E+04  0.15294330000E+03 0.  0.
<mgrwt>
<rscale>  0 0.11944870E+04</rscale>
<asrwt>0</asrwt>
<pdfrwt beam="1">  1        1 0.15131609E+00 0.12416132E+04</pdfrwt>
<pdfrwt beam="2">  1       -1 0.24443549E+00 0.12416132E+04</pdfrwt>
<totfact> 0.11551340E+00</totfact>
</mgrwt>
</event>
<event>
 4    5  0.7176259E-008  0.8469454E+03  0.7818608E-02  0.9617221E-01
          1   -1    0    0  501    0  0.00000000000E+00  0.00000000000E+00  0.67864404200E+03  0.67864404201E+03  0.50400000000E-02 0. -1.
         -1   -1    0    0    0  501 -0.00000000000E+00 -0.00000000000E+00 -0.83962893058E+03  0.83962893060E+03  0.50400000000E-02 0.  1.
    8880023    1    1    2    0    0 -0.47874522160E+03  0.23304358099E+03  0.18258138411E+03  0.86640202327E+03  0.65864270000E+03 0.  0.
    8880022    1    1    2    0    0  0.47874522160E+03 -0.23304358099E+03 -0.34356627269E+03  0.65187094934E+03  0.15294330000E+03 0.  0.
<mgrwt>
<rscale>  0 0.76166817E+03</rscale>
<asrwt>0</asrwt>
<pdfrwt beam="1">  1        1 0.10440678E+00 0.84694540E+03</pdfrwt>
<pdfrwt beam="2">  1       -1 0.12917368E+00 0.84694540E+03</pdfrwt>
<totfact> 0.14968768E+01</totfact>
</mgrwt>
</event>
<event>
 4    5  0.7176259E-008  0.7244246E+03  0.7818608E-02  0.9907889E-01
          1   -1    0    0  501    0  0.00000000000E+00  0.00000000000E+00  0.19883407271E+04  0.19883407271E+04  0.50400000000E-02 0. -1.
         -1   -1    0    0    0  501 -0.00000000000E+00 -0.00000000000E+00 -0.40888397943E+03  0.40888397947E+03  0.50400000000E-02 0.  1.
    8880023    1    1    2    0    0 -0.20613815895E+03  0.22019954191E+03  0.18353422616E+04  0.19731376542E+04  0.65864270000E+03 0. -1.
    8880022    1    1    2    0    0  0.20613815895E+03 -0.22019954191E+03 -0.25588551388E+03  0.42408705245E+03  0.15294330000E+03 0.  0.
<mgrwt>
<rscale>  0 0.59880450E+03</rscale>
<asrwt>0</asrwt>
<pdfrwt beam="1">  1        1 0.30589858E+00 0.72442459E+03</pdfrwt>
<pdfrwt beam="2">  1       -1 0.62905227E-01 0.72442459E+03</pdfrwt>
<totfact> 0.81782152E+00</totfact>
</mgrwt>
</event>
<event>
 4    5  0.7176259E-008  0.6761784E+03  0.7818608E-02  0.1011574E+00
          1   -1    0    0  501    0  0.00000000000E+00  0.00000000000E+00  0.34173880784E+04  0.34173880784E+04  0.50400000000E-02 0. -1.
         -1   -1    0    0    0  501 -0.00000000000E+00 -0.00000000000E+00 -0.66695084184E+02  0.66695084374E+02  0.50400000000E-02 0.  1.
    8880023    1    1    2    0    0  0.67904447180E+02  0.13709872530E+03  0.29720507477E+04  0.30479998241E+04  0.65864270000E+03 0.  0.
    8880022    1    1    2    0    0 -0.67904447180E+02 -0.13709872530E+03  0.37864224648E+03  0.43608333867E+03  0.15294330000E+03 0.  0.
<mgrwt>
<rscale>  0 0.50854015E+03</rscale>
<asrwt>0</asrwt>
<pdfrwt beam="1">  1        1 0.52575198E+00 0.67617844E+03</pdfrwt>
<pdfrwt beam="2">  1       -1 0.10260783E-01 0.67617844E+03</pdfrwt>
<totfact> 0.19060702E+01</totfact>
</mgrwt>
</event>
<event>
 4    5  0.7332916E-008  0.1218028E+04  0.7818608E-02  0.9139794E-01
         -1   -1    0    0    0  501 -0.00000000000E+00  0.00000000000E+00  0.12150855274E+04  0.12150855274E+04  0.50400000000E-02 0.  1.
          1   -1    0    0  501    0  0.00000000000E+00 -0.00000000000E+00 -0.20866151098E+04  0.20866151098E+04  0.50400000000E-02 0. -1.
    8880023    1    1    2    0    0 -0.18529549356E+03 -0.10076946594E+04 -0.16177195780E+04  0.20249962434E+04  0.65864270000E+03 0.  0.
    8880022    1    1    2    0    0  0.18529549356E+03  0.10076946594E+04  0.74618999557E+03  0.12767043937E+04  0.15294330000E+03 0.  0.
<mgrwt>
<rscale>  0 0.11697064E+04</rscale>
<asrwt>0</asrwt>
<pdfrwt beam="1">  1        1 0.32101771E+00 0.12180284E+04</pdfrwt>
<pdfrwt beam="2">  1       -1 0.18693623E+00 0.12180284E+04</pdfrwt>
<totfact> 0.47354808E-01</totfact>
</mgrwt>
</event>
<event>
 4    5  0.7176259E-008  0.7160735E+03  0.7818608E-02  0.9936103E-01
          1   -1    0    0  501    0  0.00000000000E+00  0.00000000000E+00  0.26011240643E+04  0.26011240643E+04  0.50400000000E-02 0. -1.
         -1   -1    0    0    0  501 -0.00000000000E+00 -0.00000000000E+00 -0.11622756699E+03  0.11622756710E+03  0.50400000000E-02 0.  1.
    8880023    1    1    2    0    0 -0.23687937528E+03 -0.15112642923E+03  0.20892061987E+04  0.22085161949E+04  0.65864270000E+03 0. -1.
    8880022    1    1    2    0    0  0.23687937528E+03  0.15112642923E+03  0.39569029861E+03  0.50883543653E+03  0.15294330000E+03 0.  1.
<mgrwt>
<rscale>  0 0.58543044E+03</rscale>
<asrwt>0</asrwt>
<pdfrwt beam="1">  1        1 0.40017294E+00 0.71607349E+03</pdfrwt>
<pdfrwt beam="2">  1       -1 0.17881164E-01 0.71607349E+03</pdfrwt>
<totfact> 0.29865947E+01</totfact>
</mgrwt>
</event>
<event>
 4    5  0.7176259E-008  0.6866283E+03  0.7818608E-02  0.1005798E+00
          1   -1    0    0  501    0  0.00000000000E+00  0.00000000000E+00  0.98633731160E+03  0.98633731162E+03  0.50400000000E-02 0. -1.
         -1   -1    0    0    0  501 -0.00000000000E+00 -0.00000000000E+00 -0.84358855732E+03  0.84358855734E+03  0.50400000000E-02 0.  1.
    8880023    1    1    2    0    0  0.16748769567E+03 -0.97959351052E+02  0.84307028032E+03  0.10873021045E+04  0.65864270000E+03 0. -1.
    8880022    1    1    2    0    0 -0.16748769567E+03  0.97959351052E+02 -0.70032152604E+03  0.74262376444E+03  0.15294330000E+03 0.  0.
<mgrwt>
<rscale>  0 0.53179336E+03</rscale>
<asrwt>0</asrwt>
<pdfrwt beam="1">  1        1 0.15174420E+00 0.68662826E+03</pdfrwt>
<pdfrwt beam="2">  1       -1 0.12978286E+00 0.68662826E+03</pdfrwt>
<totfact> 0.82416613E+00</totfact>
</mgrwt>
</event>
<event>
 4    5  0.7176259E-008  0.7418645E+03  0.7818608E-02  0.9854549E-01
          1   -1    0    0  501    0  0.00000000000E+00  0.00000000000E+00  0.19105625343E+04  0.19105625343E+04  0.50400000000E-02 0. -1.
         -1   -1    0    0    0  501 -0.00000000000E+00 -0.00000000000E+00 -0.27818301254E+03  0.27818301259E+03  0.50400000000E-02 0.  1.
    8880023    1    1    2    0    0 -0.12152425509E+03  0.31903704926E+03  0.16553121165E+04  0.18139518165E+04  0.65864270000E+03 0. -1.
    8880022    1    1    2    0    0  0.12152425509E+03 -0.31903704926E+03 -0.22932594790E+02  0.37479373033E+03  0.15294330000E+03 0.  0.
<mgrwt>
<rscale>  0 0.62515529E+03</rscale>
<asrwt>0</asrwt>
<pdfrwt beam="1">  1        1 0.29393269E+00 0.74186454E+03</pdfrwt>
<pdfrwt beam="2">  1       -1 0.42797388E-01 0.74186454E+03</pdfrwt>
<totfact> 0.19187450E+01</totfact>
</mgrwt>
</event>
<event>
 4    5  0.7176259E-008  0.1093267E+04  0.7818608E-02  0.9268590E-01
         -1   -1    0    0    0  501 -0.00000000000E+00  0.00000000000E+00  0.74418260881E+03  0.74418260882E+03  0.50400000000E-02 0.  1.
          1   -1    0    0  501    0  0.00000000000E+00 -0.00000000000E+00 -0.29773849166E+04  0.29773849166E+04  0.50400000000E-02 0. -1.
    8880023    1    1    2    0    0  0.28419267327E+03  0.82501963950E+03 -0.25549679343E+04  0.27790455615E+04  0.65864270000E+03 0.  0.
    8880022    1    1    2    0    0 -0.28419267327E+03 -0.82501963950E+03  0.32176562653E+03  0.94252196395E+03  0.15294330000E+03 0.  1.
<mgrwt>
<rscale>  0 0.10372671E+04</rscale>
<asrwt>0</asrwt>
<pdfrwt beam="1">  1        1 0.45805921E+00 0.10932672E+04</pdfrwt>
<pdfrwt beam="2">  1       -1 0.11448963E+00 0.10932672E+04</pdfrwt>
<totfact> 0.43556348E-01</totfact>
</mgrwt>
</event>
<event>
 4    5  0.7176259E-008  0.9371375E+03  0.7818608E-02  0.9468867E-01
         -1   -1    0    0    0  501 -0.00000000000E+00  0.00000000000E+00  0.94995091112E+03  0.94995091113E+03  0.50400000000E-02 0.  1.
          1   -1    0    0  501    0  0.00000000000E+00 -0.00000000000E+00 -0.10362255983E+04  0.10362255983E+04  0.50400000000E-02 0. -1.
    8880023    1    1    2    0    0 -0.36960460488E+03  0.55480530438E+03 -0.61565641773E+03  0.11212758450E+04  0.65864270000E+03 0.  0.
    8880022    1    1    2    0    0  0.36960460488E+03 -0.55480530438E+03  0.52938173052E+03  0.86490066443E+03  0.15294330000E+03 0.  0.
<mgrwt>
<rscale>  0 0.86618560E+03</rscale>
<asrwt>0</asrwt>
<pdfrwt beam="1">  1        1 0.15941932E+00 0.93713750E+03</pdfrwt>
<pdfrwt beam="2">  1       -1 0.14614629E+00 0.93713750E+03</pdfrwt>
<totfact> 0.53595662E+00</totfact>
</mgrwt>
</event>
<event>
 4    5  0.7176259E-008  0.7010518E+03  0.7818608E-02  0.9992866E-01
         -1   -1    0    0    0  501 -0.00000000000E+00  0.00000000000E+00  0.89222760367E+03  0.89222760368E+03  0.50400000000E-02 0.  1.
          1   -1    0    0  501    0  0.00000000000E+00 -0.00000000000E+00 -0.66469395685E+03  0.66469395687E+03  0.50400000000E-02 0. -1.
    8880023    1    1    2    0    0  0.11682416135E+03 -0.20979872722E+03 -0.44242232321E+03  0.82898197143E+03  0.65864270000E+03 0. -1.
    8880022    1    1    2    0    0 -0.11682416135E+03  0.20979872722E+03  0.66995597002E+03  0.72793958912E+03  0.15294330000E+03 0.  0.
<mgrwt>
<rscale>  0 0.55964171E+03</rscale>
<asrwt>0</asrwt>
<pdfrwt beam="1">  1        1 0.10226061E+00 0.70105178E+03</pdfrwt>
<pdfrwt beam="2">  1       -1 0.13726579E+00 0.70105178E+03</pdfrwt>
<totfact> 0.13457454E+01</totfact>
</mgrwt>
</event>
<event>
 4    5  0.7176259E-008  0.9981093E+03  0.7818608E-02  0.9384035E-01
         -1   -1    0    0    0  501 -0.00000000000E+00  0.00000000000E+00  0.74185950146E+03  0.74185950148E+03  0.50400000000E-02 0.  1.
          1   -1    0    0  501    0  0.00000000000E+00 -0.00000000000E+00 -0.12022139508E+04  0.12022139508E+04  0.50400000000E-02 0. -1.
    8880023    1    1    2    0    0 -0.72793168467E+03 -0.18035362351E+03 -0.60213971831E+03  0.11656733735E+04  0.65864270000E+03 0.  0.
    8880022    1    1    2    0    0  0.72793168467E+03  0.18035362351E+03  0.14178526902E+03  0.77840007874E+03  0.15294330000E+03 0.  0.
<mgrwt>
<rscale>  0 0.93401227E+03</rscale>
<asrwt>0</asrwt>
<pdfrwt beam="1">  1        1 0.18495599E+00 0.99810930E+03</pdfrwt>
<pdfrwt beam="2">  1       -1 0.11413223E+00 0.99810930E+03</pdfrwt>
<totfact> 0.74681295E+00</totfact>
</mgrwt>
</event>
<event>
 4    5  0.7176259E-008  0.8092401E+03  0.7818608E-02  0.9691162E-01
         -1   -1    0    0    0  501 -0.00000000000E+00  0.00000000000E+00  0.94126908443E+03  0.94126908445E+03  0.50400000000E-02 0.  1.
          1   -1    0    0  501    0  0.00000000000E+00 -0.00000000000E+00 -0.94688002400E+03  0.94688002401E+03  0.50400000000E-02 0. -1.
    8880023    1    1    2    0    0  0.36715274894E+03  0.29369733020E+03 -0.67649665668E+03  0.10547593069E+04  0.65864270000E+03 0. -1.
    8880022    1    1    2    0    0 -0.36715274894E+03 -0.29369733020E+03  0.67088571712E+03  0.83338980151E+03  0.15294330000E+03 0.  0.
<mgrwt>
<rscale>  0 0.71545445E+03</rscale>
<asrwt>0</asrwt>
<pdfrwt beam="1">  1        1 0.14567385E+00 0.80924006E+03</pdfrwt>
<pdfrwt beam="2">  1       -1 0.14481063E+00 0.80924006E+03</pdfrwt>
<totfact> 0.65570631E+00</totfact>
</mgrwt>
</event>
<event>
 4    5  0.7176259E-008  0.9003607E+03  0.7818608E-02  0.9525453E-01
         -1   -1    0    0    0  501 -0.00000000000E+00  0.00000000000E+00  0.12151016582E+04  0.12151016582E+04  0.50400000000E-02 0.  1.
          1   -1    0    0  501    0  0.00000000000E+00 -0.00000000000E+00 -0.88787844086E+03  0.88787844088E+03  0.50400000000E-02 0. -1.
    8880023    1    1    2    0    0 -0.38182291078E+03  0.48067708723E+03 -0.52451085627E+03  0.10419985806E+04  0.65864270000E+03 0. -1.
    8880022    1    1    2    0    0  0.38182291078E+03 -0.48067708723E+03  0.85173407361E+03  0.10609815185E+04  0.15294330000E+03 0.  0.
<mgrwt>
<rscale>  0 0.82433022E+03</rscale>
<asrwt>0</asrwt>
<pdfrwt beam="1">  1        1 0.13659668E+00 0.90036071E+03</pdfrwt>
<pdfrwt beam="2">  1       -1 0.18693872E+00 0.90036071E+03</pdfrwt>
<totfact> 0.35133435E+00</totfact>
</mgrwt>
</event>
<event>
 4    5  0.7176259E-008  0.7498903E+03  0.7818608E-02  0.9832021E-01
          1   -1    0    0  501    0  0.00000000000E+00  0.00000000000E+00  0.42365857905E+03  0.42365857908E+03  0.50400000000E-02 0. -1.
         -1   -1    0    0    0  501 -0.00000000000E+00 -0.00000000000E+00 -0.12673932653E+04  0.12673932653E+04  0.50400000000E-02 0.  1.
    8880023    1    1    2    0    0  0.33723530082E+03 -0.12164512444E+03  0.12806321844E+02  0.74999959504E+03  0.65864270000E+03 0. -1.
    8880022    1    1    2    0    0 -0.33723530082E+03  0.12164512444E+03 -0.85654100805E+03  0.94105224930E+03  0.15294330000E+03 0.  0.
<mgrwt>
<rscale>  0 0.63672077E+03</rscale>
<asrwt>0</asrwt>
<pdfrwt beam="1">  1        1 0.65178243E-01 0.74989025E+03</pdfrwt>
<pdfrwt beam="2">  1       -1 0.19498358E+00 0.74989025E+03</pdfrwt>
<totfact> 0.93452163E+00</totfact>
</mgrwt>
</event>
<event>
 4    5  0.7176259E-008  0.1418202E+04  0.7818608E-02  0.8969667E-01
         -1   -1    0    0    0  501 -0.00000000000E+00  0.00000000000E+00  0.11598911122E+04  0.11598911122E+04  0.50400000000E-02 0.  1.
          1   -1    0    0  501    0  0.00000000000E+00 -0.00000000000E+00 -0.18150918721E+04  0.18150918721E+04  0.50400000000E-02 0. -1.
    8880023    1    1    2    0    0 -0.58400494978E+03  0.11119465008E+04 -0.90901310152E+03  0.16845182774E+04  0.65864270000E+03 0. -1.
    8880022    1    1    2    0    0  0.58400494978E+03 -0.11119465008E+04  0.25381234160E+03  0.12904647069E+04  0.15294330000E+03 0.  0.
<mgrwt>
<rscale>  0 0.13783147E+04</rscale>
<asrwt>0</asrwt>
<pdfrwt beam="1">  1        1 0.27924490E+00 0.14182020E+04</pdfrwt>
<pdfrwt beam="2">  1       -1 0.17844479E+00 0.14182020E+04</pdfrwt>
<totfact> 0.81218454E-01</totfact>
</mgrwt>
</event>
<event>
 4    5  0.7176259E-008  0.9020097E+03  0.7818608E-02  0.9522813E-01
          1   -1    0    0  501    0  0.00000000000E+00  0.00000000000E+00  0.19668278574E+04  0.19668278574E+04  0.50400000000E-02 0. -1.
         -1   -1    0    0    0  501 -0.00000000000E+00 -0.00000000000E+00 -0.53623486575E+03  0.53623486577E+03  0.50400000000E-02 0.  1.
    8880023    1    1    2    0    0 -0.10763931613E+03  0.60681558045E+03  0.16080418248E+04  0.18437516339E+04  0.65864270000E+03 0. -1.
    8880022    1    1    2    0    0  0.10763931613E+03 -0.60681558045E+03 -0.17744883311E+03  0.65931108927E+03  0.15294330000E+03 0.  0.
<mgrwt>
<rscale>  0 0.82622607E+03</rscale>
<asrwt>0</asrwt>
<pdfrwt beam="1">  1        1 0.30258890E+00 0.90200974E+03</pdfrwt>
<pdfrwt beam="2">  1       -1 0.82497671E-01 0.90200974E+03</pdfrwt>
<totfact> 0.46960285E+00</totfact>
</mgrwt>
</event>
<event>
 4    5  0.7176259E-008  0.7796414E+03  0.7818608E-02  0.9756680E-01
         -1   -1    0    0    0  501 -0.00000000000E+00  0.00000000000E+00  0.13631142789E+04  0.13631142790E+04  0.50400000000E-02 0.  1.
          1   -1    0    0  501    0  0.00000000000E+00 -0.00000000000E+00 -0.49782608674E+03  0.49782608677E+03  0.50400000000E-02 0. -1.
    8880023    1    1    2    0    0  0.25634160388E+01 -0.41716173208E+03 -0.11175590964E+03  0.78761035507E+03  0.65864270000E+03 0. -1.
    8880022    1    1    2    0    0 -0.25634160388E+01  0.41716173208E+03  0.97704410184E+03  0.10733300107E+04  0.15294330000E+03 0.  0.
<mgrwt>
<rscale>  0 0.67740070E+03</rscale>
<asrwt>0</asrwt>
<pdfrwt beam="1">  1        1 0.76588629E-01 0.77964138E+03</pdfrwt>
<pdfrwt beam="2">  1       -1 0.20970989E+00 0.77964138E+03</pdfrwt>
<totfact> 0.59386527E+00</totfact>
</mgrwt>
</event>
<event>
 4    5  0.7176259E-008  0.1083901E+04  0.7818608E-02  0.9279196E-01
          1   -1    0    0  501    0  0.00000000000E+00  0.00000000000E+00  0.26362513060E+04  0.26362513060E+04  0.50400000000E-02 0. -1.
         -1   -1    0    0    0  501 -0.00000000000E+00 -0.00000000000E+00 -0.10256778580E+04  0.10256778580E+04  0.50400000000E-02 0.  1.
    8880023    1    1    2    0    0 -0.66529967119E+03 -0.54626658286E+03  0.23038634680E+04  0.25461005317E+04  0.65864270000E+03 0. -1.
    8880022    1    1    2    0    0  0.66529967119E+03  0.54626658286E+03 -0.69329001994E+03  0.11158286324E+04  0.15294330000E+03 0.  0.
<mgrwt>
<rscale>  0 0.10272091E+04</rscale>
<asrwt>0</asrwt>
<pdfrwt beam="1">  1        1 0.40557713E+00 0.10839008E+04</pdfrwt>
<pdfrwt beam="2">  1       -1 0.15779659E+00 0.10839008E+04</pdfrwt>
<totfact> 0.33259658E-01</totfact>
</mgrwt>
</event>
<event>
 4    5  0.7176259E-008  0.1123416E+04  0.7818608E-02  0.9235422E-01
         -1   -1    0    0    0  501 -0.00000000000E+00  0.00000000000E+00  0.27199461678E+04  0.27199461678E+04  0.50400000000E-02 0.  1.
          1   -1    0    0  501    0  0.00000000000E+00 -0.00000000000E+00 -0.69474103775E+03  0.69474103777E+03  0.50400000000E-02 0. -1.
    8880023    1    1    2    0    0 -0.56017093807E+03  0.71726061505E+03 -0.69645044180E+02  0.11255731465E+04  0.65864270000E+03 0.  0.
    8880022    1    1    2    0    0  0.56017093807E+03 -0.71726061505E+03  0.20948501742E+04  0.22891140590E+04  0.15294330000E+03 0.  0.
<mgrwt>
<rscale>  0 0.10695177E+04</rscale>
<asrwt>0</asrwt>
<pdfrwt beam="1">  1        1 0.10688324E+00 0.11234164E+04</pdfrwt>
<pdfrwt beam="2">  1       -1 0.41845326E+00 0.11234164E+04</pdfrwt>
<totfact> 0.14820311E-01</totfact>
</mgrwt>
</event>
<event>
 4    5  0.7176259E-008  0.7251451E+03  0.7818608E-02  0.9905546E-01
          1   -1    0    0  501    0  0.00000000000E+00  0.00000000000E+00  0.10620778821E+04  0.10620778821E+04  0.50400000000E-02 0. -1.
         -1   -1    0    0    0  501 -0.00000000000E+00 -0.00000000000E+00 -0.26827361030E+03  0.26827361035E+03  0.50400000000E-02 0.  1.
    8880023    1    1    2    0    0  0.30031864978E+03 -0.42823620667E+02  0.49576954698E+03  0.87842063038E+03  0.65864270000E+03 0.  1.
    8880022    1    1    2    0    0 -0.30031864978E+03  0.42823620667E+02  0.29803472480E+03  0.45193086207E+03  0.15294330000E+03 0. -1.
<mgrwt>
<rscale>  0 0.59993238E+03</rscale>
<asrwt>0</asrwt>
<pdfrwt beam="1">  1        1 0.16339660E+00 0.72514506E+03</pdfrwt>
<pdfrwt beam="2">  1       -1 0.41272863E-01 0.72514506E+03</pdfrwt>
<totfact> 0.79727299E+01</totfact>
</mgrwt>
</event>
<event>
 4    5  0.7176259E-008  0.9066774E+03  0.7818608E-02  0.9515396E-01
          1   -1    0    0  501    0  0.00000000000E+00  0.00000000000E+00  0.67188479070E+03  0.67188479072E+03  0.50400000000E-02 0. -1.
         -1   -1    0    0    0  501 -0.00000000000E+00 -0.00000000000E+00 -0.12657394383E+04  0.12657394384E+04  0.50400000000E-02 0.  1.
    8880023    1    1    2    0    0  0.25077857115E+03  0.57040675192E+03  0.18826116892E+03  0.92601632187E+03  0.65864270000E+03 0. -1.
    8880022    1    1    2    0    0 -0.25077857115E+03 -0.57040675192E+03 -0.78211581657E+03  0.10116079072E+04  0.15294330000E+03 0.  0.
<mgrwt>
<rscale>  0 0.83158187E+03</rscale>
<asrwt>0</asrwt>
<pdfrwt beam="1">  1        1 0.10336689E+00 0.90667743E+03</pdfrwt>
<pdfrwt beam="2">  1       -1 0.19472914E+00 0.90667743E+03</pdfrwt>
<totfact> 0.48156942E+00</totfact>
</mgrwt>
</event>
<event>
 4    5  0.7176259E-008  0.9279444E+03  0.7818608E-02  0.9482584E-01
          1   -1    0    0  501    0  0.00000000000E+00  0.00000000000E+00  0.19593691020E+04  0.19593691020E+04  0.50400000000E-02 0. -1.
         -1   -1    0    0    0  501 -0.00000000000E+00 -0.00000000000E+00 -0.40093630421E+03  0.40093630424E+03  0.50400000000E-02 0.  1.
    8880023    1    1    2    0    0 -0.61001035726E+03  0.23485731653E+03  0.13846991336E+04  0.16668750679E+04  0.65864270000E+03 0. -1.
    8880022    1    1    2    0    0  0.61001035726E+03 -0.23485731653E+03  0.17373366422E+03  0.69343033839E+03  0.15294330000E+03 0.  0.
<mgrwt>
<rscale>  0 0.85580114E+03</rscale>
<asrwt>0</asrwt>
<pdfrwt beam="1">  1        1 0.30144141E+00 0.92794440E+03</pdfrwt>
<pdfrwt beam="2">  1       -1 0.61682507E-01 0.92794440E+03</pdfrwt>
<totfact> 0.86324965E+00</totfact>
</mgrwt>
</event>
<event>
 4    5  0.7176259E-008  0.1573288E+04  0.7818608E-02  0.8859546E-01
          1   -1    0    0  501    0  0.00000000000E+00  0.00000000000E+00  0.21700534495E+04  0.21700534495E+04  0.50400000000E-02 0. -1.
         -1   -1    0    0    0  501 -0.00000000000E+00 -0.00000000000E+00 -0.16883947300E+04  0.16883947300E+04  0.50400000000E-02 0.  1.
    8880023    1    1    2    0    0  0.93244270725E+03  0.10825782299E+04  0.14387345717E+04  0.21319456842E+04  0.65864270000E+03 0.  0.
    8880022    1    1    2    0    0 -0.93244270725E+03 -0.10825782299E+04 -0.95707585230E+03  0.17265024953E+04  0.15294330000E+03 0.  0.
<mgrwt>
<rscale>  0 0.15380355E+04</rscale>
<asrwt>0</asrwt>
<pdfrwt beam="1">  1        1 0.33385438E+00 0.15732880E+04</pdfrwt>
<pdfrwt beam="2">  1       -1 0.25975304E+00 0.15732880E+04</pdfrwt>
<totfact> 0.12852148E-01</totfact>
</mgrwt>
</event>
<event>
 4    5  0.7176259E-008  0.9273498E+03  0.7818608E-02  0.9483480E-01
          1   -1    0    0  501    0  0.00000000000E+00  0.00000000000E+00  0.12338979637E+04  0.12338979637E+04  0.50400000000E-02 0. -1.
         -1   -1    0    0    0  501 -0.00000000000E+00 -0.00000000000E+00 -0.25807462541E+04  0.25807462541E+04  0.50400000000E-02 0.  1.
    8880023    1    1    2    0    0 -0.52926427206E+03  0.38216063284E+03  0.10059469328E+04  0.13681764714E+04  0.65864270000E+03 0.  0.
    8880022    1    1    2    0    0  0.52926427206E+03 -0.38216063284E+03 -0.23527952232E+04  0.24464677464E+04  0.15294330000E+03 0.  0.
<mgrwt>
<rscale>  0 0.85512780E+03</rscale>
<asrwt>0</asrwt>
<pdfrwt beam="1">  1        1 0.18983046E+00 0.92734979E+03</pdfrwt>
<pdfrwt beam="2">  1       -1 0.39703788E+00 0.92734979E+03</pdfrwt>
<totfact> 0.78827240E-02</totfact>
</mgrwt>
</event>
<event>
 4    5  0.7176259E-008  0.8935284E+03  0.7818608E-02  0.9536501E-01
         -1   -1    0    0    0  501 -0.00000000000E+00  0.00000000000E+00  0.10701267949E+04  0.10701267949E+04  0.50400000000E-02 0.  1.
          1   -1    0    0  501    0  0.00000000000E+00 -0.00000000000E+00 -0.24109333106E+04  0.24109333106E+04  0.50400000000E-02 0. -1.
    8880023    1    1    2    0    0  0.50835360039E+03 -0.32582110559E+03 -0.22260247519E+04  0.23986619558E+04  0.65864270000E+03 0.  0.
    8880022    1    1    2    0    0 -0.50835360039E+03  0.32582110559E+03  0.88521823617E+03  0.10823981497E+04  0.15294330000E+03 0.  0.
<mgrwt>
<rscale>  0 0.81645387E+03</rscale>
<asrwt>0</asrwt>
<pdfrwt beam="1">  1        1 0.37091282E+00 0.89352839E+03</pdfrwt>
<pdfrwt beam="2">  1       -1 0.16463489E+00 0.89352839E+03</pdfrwt>
<totfact> 0.43696506E-01</totfact>
</mgrwt>
</event>
<event>
 4    5  0.7176259E-008  0.6972364E+03  0.7818608E-02  0.1000886E+00
         -1   -1    0    0    0  501 -0.00000000000E+00  0.00000000000E+00  0.42980527830E+03  0.42980527833E+03  0.50400000000E-02 0.  1.
          1   -1    0    0  501    0  0.00000000000E+00 -0.00000000000E+00 -0.10681356336E+04  0.10681356336E+04  0.50400000000E-02 0. -1.
    8880023    1    1    2    0    0  0.15203210016E+03 -0.17092301423E+03 -0.88619121956E+03  0.11275963463E+04  0.65864270000E+03 0.  0.
    8880022    1    1    2    0    0 -0.15203210016E+03  0.17092301423E+03  0.24786086425E+03  0.37034456566E+03  0.15294330000E+03 0.  0.
<mgrwt>
<rscale>  0 0.55263253E+03</rscale>
<asrwt>0</asrwt>
<pdfrwt beam="1">  1        1 0.16432856E+00 0.69723643E+03</pdfrwt>
<pdfrwt beam="2">  1       -1 0.66123889E-01 0.69723643E+03</pdfrwt>
<totfact> 0.32110624E+01</totfact>
</mgrwt>
</event>
<event>
 4    5  0.7176259E-008  0.9203823E+03  0.7818608E-02  0.9494073E-01
          1   -1    0    0  501    0  0.00000000000E+00  0.00000000000E+00  0.82174640637E+03  0.82174640638E+03  0.50400000000E-02 0. -1.
         -1   -1    0    0    0  501 -0.00000000000E+00 -0.00000000000E+00 -0.16048800014E+04  0.16048800014E+04  0.50400000000E-02 0.  1.
    8880023    1    1    2    0    0 -0.24806970960E+03  0.59308915849E+03  0.45233642317E+03  0.10255299980E+04  0.65864270000E+03 0. -1.
    8880022    1    1    2    0    0  0.24806970960E+03 -0.59308915849E+03 -0.12354700182E+04  0.14010964098E+04  0.15294330000E+03 0.  0.
<mgrwt>
<rscale>  0 0.84722199E+03</rscale>
<asrwt>0</asrwt>
<pdfrwt beam="1">  1        1 0.12642252E+00 0.92038228E+03</pdfrwt>
<pdfrwt beam="2">  1       -1 0.24690461E+00 0.92038228E+03</pdfrwt>
<totfact> 0.15757829E+00</totfact>
</mgrwt>
</event>
<event>
 4    5  0.7176259E-008  0.6760121E+03  0.7818608E-02  0.1011676E+00
          1   -1    0    0  501    0  0.00000000000E+00  0.00000000000E+00  0.57461530637E+03  0.57461530639E+03  0.50400000000E-02 0. -1.
         -1   -1    0    0    0  501 -0.00000000000E+00 -0.00000000000E+00 -0.55519666447E+03  0.55519666449E+03  0.50400000000E-02 0.  1.
    8880023    1    1    2    0    0 -0.73972958453E+02  0.13307945235E+03  0.32948760263E+03  0.75203352703E+03  0.65864270000E+03 0. -1.
    8880022    1    1    2    0    0  0.73972958453E+02 -0.13307945235E+03 -0.31006896073E+03  0.37777844386E+03  0.15294330000E+03 0.  0.
<mgrwt>
<rscale>  0 0.50814019E+03</rscale>
<asrwt>0</asrwt>
<pdfrwt beam="1">  1        1 0.88402355E-01 0.67601209E+03</pdfrwt>
<pdfrwt beam="2">  1       -1 0.85414872E-01 0.67601209E+03</pdfrwt>
<totfact> 0.50783473E+01</totfact>
</mgrwt>
</event>
<event>
 4    5  0.7176259E-008  0.1576259E+04  0.7818608E-02  0.8857583E-01
          1   -1    0    0  501    0  0.00000000000E+00  0.00000000000E+00  0.14931810111E+04  0.14931810111E+04  0.50400000000E-02 0. -1.
         -1   -1    0    0    0  501 -0.00000000000E+00 -0.00000000000E+00 -0.25883878235E+04  0.25883878235E+04  0.50400000000E-02 0.  1.
    8880023    1    1    2    0    0 -0.10947594117E+04  0.92319309660E+03  0.74610231367E+03  0.17439215957E+04  0.65864270000E+03 0.  0.
    8880022    1    1    2    0    0  0.10947594117E+04 -0.92319309660E+03 -0.18413091261E+04  0.23376472390E+04  0.15294330000E+03 0.  0.
<mgrwt>
<rscale>  0 0.15410845E+04</rscale>
<asrwt>0</asrwt>
<pdfrwt beam="1">  1        1 0.22972016E+00 0.15762595E+04</pdfrwt>
<pdfrwt beam="2">  1       -1 0.39821351E+00 0.15762595E+04</pdfrwt>
<totfact> 0.45623252E-02</totfact>
</mgrwt>
</event>
<event>
 4    5  0.7176259E-008  0.7367253E+03  0.7818608E-02  0.9869591E-01
          1   -1    0    0  501    0  0.00000000000E+00  0.00000000000E+00  0.14889628376E+04  0.14889628377E+04  0.50400000000E-02 0. -1.
         -1   -1    0    0    0  501 -0.00000000000E+00 -0.00000000000E+00 -0.49575143532E+03  0.49575143534E+03  0.50400000000E-02 0.  1.
    8880023    1    1    2    0    0 -0.20249135032E+03 -0.26067449722E+03  0.13095889834E+04  0.15025935752E+04  0.65864270000E+03 0. -1.
    8880022    1    1    2    0    0  0.20249135032E+03  0.26067449722E+03 -0.31637758107E+03  0.48212069782E+03  0.15294330000E+03 0.  0.
<mgrwt>
<rscale>  0 0.61757949E+03</rscale>
<asrwt>0</asrwt>
<pdfrwt beam="1">  1        1 0.22907120E+00 0.73672529E+03</pdfrwt>
<pdfrwt beam="2">  1       -1 0.76269453E-01 0.73672529E+03</pdfrwt>
<totfact> 0.11944411E+01</totfact>
</mgrwt>
</event>
<event>
 4    5  0.7176259E-008  0.8103922E+03  0.7818608E-02  0.9688761E-01
         -1   -1    0    0    0  501 -0.00000000000E+00  0.00000000000E+00  0.72146999774E+03  0.72146999776E+03  0.50400000000E-02 0.  1.
          1   -1    0    0  501    0  0.00000000000E+00 -0.00000000000E+00 -0.69309032019E+03  0.69309032021E+03  0.50400000000E-02 0. -1.
    8880023    1    1    2    0    0  0.44067849893E+03 -0.16949250408E+03  0.28091823234E+03  0.85770070997E+03  0.65864270000E+03 0.  0.
    8880022    1    1    2    0    0 -0.44067849893E+03  0.16949250408E+03 -0.25253855479E+03  0.55685960800E+03  0.15294330000E+03 0.  0.
<mgrwt>
<rscale>  0 0.71689937E+03</rscale>
<asrwt>0</asrwt>
<pdfrwt beam="1">  1        1 0.10662928E+00 0.81039216E+03</pdfrwt>
<pdfrwt beam="2">  1       -1 0.11099538E+00 0.81039216E+03</pdfrwt>
<totfact> 0.21075525E+01</totfact>
</mgrwt>
</event>
<event>
 4    5  0.7176259E-008  0.1285391E+04  0.7818608E-02  0.9078279E-01
         -1   -1    0    0    0  501 -0.00000000000E+00  0.00000000000E+00  0.12883789965E+04  0.12883789966E+04  0.50400000000E-02 0.  1.
          1   -1    0    0  501    0  0.00000000000E+00 -0.00000000000E+00 -0.13658789662E+04  0.13658789662E+04  0.50400000000E-02 0. -1.
    8880023    1    1    2    0    0 -0.85118010844E+03 -0.70278973289E+03 -0.60581217838E+03  0.14209995030E+04  0.65864270000E+03 0.  0.
    8880022    1    1    2    0    0  0.85118010844E+03  0.70278973289E+03  0.52831220877E+03  0.12332584598E+04  0.15294330000E+03 0.  0.
<mgrwt>
<rscale>  0 0.12403195E+04</rscale>
<asrwt>0</asrwt>
<pdfrwt beam="1">  1        1 0.21013523E+00 0.12853915E+04</pdfrwt>
<pdfrwt beam="2">  1       -1 0.19821215E+00 0.12853915E+04</pdfrwt>
<totfact> 0.12199796E+00</totfact>
</mgrwt>
</event>
<event>
 4    5  0.7176259E-008  0.6928902E+03  0.7818608E-02  0.1002808E+00
          1   -1    0    0  501    0  0.00000000000E+00  0.00000000000E+00  0.20216237717E+04  0.20216237717E+04  0.50400000000E-02 0. -1.
         -1   -1    0    0    0  501 -0.00000000000E+00 -0.00000000000E+00 -0.38110298047E+03  0.38110298051E+03  0.50400000000E-02 0.  1.
    8880023    1    1    2    0    0 -0.70945584616E+02 -0.20310923404E+03  0.19061903529E+04  0.20282155962E+04  0.65864270000E+03 0. -1.
    8880022    1    1    2    0    0  0.70945584616E+02  0.20310923404E+03 -0.26566956170E+03  0.37451115598E+03  0.15294330000E+03 0.  0.
<mgrwt>
<rscale>  0 0.54435912E+03</rscale>
<asrwt>0</asrwt>
<pdfrwt beam="1">  1        1 0.31101904E+00 0.69289021E+03</pdfrwt>
<pdfrwt beam="2">  1       -1 0.58631229E-01 0.69289021E+03</pdfrwt>
<totfact> 0.89773733E+00</totfact>
</mgrwt>
</event>
<event>
 4    5  0.7176259E-008  0.1153415E+04  0.7818608E-02  0.9203792E-01
          1   -1    0    0  501    0  0.00000000000E+00  0.00000000000E+00  0.44086658873E+04  0.44086658873E+04  0.50400000000E-02 0. -1.
         -1   -1    0    0    0  501 -0.00000000000E+00 -0.00000000000E+00 -0.14017183105E+04  0.14017183105E+04  0.50400000000E-02 0.  1.
    8880023    1    1    2    0    0  0.24441747118E+03 -0.91477692631E+03  0.41563153733E+04  0.43133889708E+04  0.65864270000E+03 0.  0.
    8880022    1    1    2    0    0 -0.24441747118E+03  0.91477692631E+03 -0.11493677965E+04  0.14969952270E+04  0.15294330000E+03 0.  0.
<mgrwt>
<rscale>  0 0.11014372E+04</rscale>
<asrwt>0</asrwt>
<pdfrwt beam="1">  1        1 0.67825629E+00 0.11534153E+04</pdfrwt>
<pdfrwt beam="2">  1       -1 0.21564897E+00 0.11534153E+04</pdfrwt>
<totfact> 0.48429844E-03</totfact>
</mgrwt>
</event>
<event>
 4    5  0.7176259E-008  0.1366860E+04  0.7818608E-02  0.9009871E-01
          1   -1    0    0  501    0  0.00000000000E+00  0.00000000000E+00  0.10632955519E+04  0.10632955519E+04  0.50400000000E-02 0. -1.
         -1   -1    0    0    0  501 -0.00000000000E+00 -0.00000000000E+00 -0.25057705475E+04  0.25057705475E+04  0.50400000000E-02 0.  1.
    8880023    1    1    2    0    0 -0.93846978510E+03 -0.74415743929E+03  0.34711127947E+03  0.14102454675E+04  0.65864270000E+03 0. -1.
    8880022    1    1    2    0    0  0.93846978510E+03  0.74415743929E+03 -0.17895862751E+04  0.21588206320E+04  0.15294330000E+03 0.  0.
<mgrwt>
<rscale>  0 0.13251301E+04</rscale>
<asrwt>0</asrwt>
<pdfrwt beam="1">  1        1 0.16358393E+00 0.13668599E+04</pdfrwt>
<pdfrwt beam="2">  1       -1 0.38550316E+00 0.13668599E+04</pdfrwt>
<totfact> 0.11749726E-01</totfact>
</mgrwt>
</event>
<event>
 4    5  0.7176259E-008  0.6686180E+03  0.7818608E-02  0.1016674E+00
         -1   -1    0    0    0  501 -0.00000000000E+00  0.00000000000E+00  0.90792922766E+03  0.90792922767E+03  0.50400000000E-02 0.  1.
          1   -1    0    0  501    0  0.00000000000E+00 -0.00000000000E+00 -0.12091881425E+04  0.12091881425E+04  0.50400000000E-02 0. -1.
    8880023    1    1    2    0    0 -0.86459328783E+02 -0.75925337448E+02 -0.11046513422E+04  0.12912415214E+04  0.65864270000E+03 0. -1.
    8880022    1    1    2    0    0  0.86459328783E+02  0.75925337448E+02  0.80339242733E+03  0.82587584885E+03  0.15294330000E+03 0.  0.
<mgrwt>
<rscale>  0 0.48906371E+03</rscale>
<asrwt>0</asrwt>
<pdfrwt beam="1">  1        1 0.18602895E+00 0.66861804E+03</pdfrwt>
<pdfrwt beam="2">  1       -1 0.13968142E+00 0.66861804E+03</pdfrwt>
<totfact> 0.46741256E+00</totfact>
</mgrwt>
</event>
<event>
 4    5  0.7176259E-008  0.7931603E+03  0.7818608E-02  0.9725785E-01
         -1   -1    0    0    0  501 -0.00000000000E+00  0.00000000000E+00  0.59464080062E+03  0.59464080064E+03  0.50400000000E-02 0.  1.
          1   -1    0    0  501    0  0.00000000000E+00 -0.00000000000E+00 -0.34197275196E+04  0.34197275196E+04  0.50400000000E-02 0. -1.
    8880023    1    1    2    0    0  0.19103167023E+03  0.39849719592E+03 -0.32724541058E+04  0.33672034680E+04  0.65864270000E+03 0. -1.
    8880022    1    1    2    0    0 -0.19103167023E+03 -0.39849719592E+03  0.44736738680E+03  0.64716485225E+03  0.15294330000E+03 0.  0.
<mgrwt>
<rscale>  0 0.69502121E+03</rscale>
<asrwt>0</asrwt>
<pdfrwt beam="1">  1        1 0.52611191E+00 0.79316034E+03</pdfrwt>
<pdfrwt beam="2">  1       -1 0.91483202E-01 0.79316034E+03</pdfrwt>
<totfact> 0.36461841E-01</totfact>
</mgrwt>
</event>
<event>
 4    5  0.7176259E-008  0.9364312E+03  0.7818608E-02  0.9469911E-01
          1   -1    0    0  501    0  0.00000000000E+00  0.00000000000E+00  0.11863058750E+04  0.11863058750E+04  0.50400000000E-02 0. -1.
         -1   -1    0    0    0  501 -0.00000000000E+00 -0.00000000000E+00 -0.13529377692E+04  0.13529377692E+04  0.50400000000E-02 0.  1.
    8880023    1    1    2    0    0 -0.38363307223E+03  0.54398418263E+03 -0.10602018431E+04  0.14145427811E+04  0.65864270000E+03 0. -1.
    8880022    1    1    2    0    0  0.38363307223E+03 -0.54398418263E+03  0.89356994887E+03  0.11247008632E+04  0.15294330000E+03 0.  0.
<mgrwt>
<rscale>  0 0.86538942E+03</rscale>
<asrwt>0</asrwt>
<pdfrwt beam="1">  1        1 0.18250859E+00 0.93643117E+03</pdfrwt>
<pdfrwt beam="2">  1       -1 0.20814427E+00 0.93643117E+03</pdfrwt>
<totfact> 0.14688678E+00</totfact>
</mgrwt>
</event>
<event>
 4    5  0.7176259E-008  0.1060902E+04  0.7818608E-02  0.9305889E-01
          1   -1    0    0  501    0  0.00000000000E+00  0.00000000000E+00  0.40189413670E+04  0.40189413670E+04  0.50400000000E-02 0. -1.
         -1   -1    0    0    0  501 -0.00000000000E+00 -0.00000000000E+00 -0.33126344238E+03  0.33126344242E+03  0.50400000000E-02 0.  1.
    8880023    1    1    2    0    0 -0.79220420140E+03  0.25321212738E+03  0.32060791445E+04  0.33770486471E+04  0.65864270000E+03 0. -1.
    8880022    1    1    2    0    0  0.79220420140E+03 -0.25321212738E+03  0.48159878015E+03  0.97315616230E+03  0.15294330000E+03 0.  0.
<mgrwt>
<rscale>  0 0.10024255E+04</rscale>
<asrwt>0</asrwt>
<pdfrwt beam="1">  1        1 0.61829874E+00 0.10609025E+04</pdfrwt>
<pdfrwt beam="2">  1       -1 0.50963601E-01 0.10609025E+04</pdfrwt>
<totfact> 0.37278089E-01</totfact>
</mgrwt>
</event>
<event>
 4    5  0.7176259E-008  0.7742144E+03  0.7818608E-02  0.9769607E-01
         -1   -1    0    0    0  501 -0.00000000000E+00  0.00000000000E+00  0.44765442579E+03  0.44765442581E+03  0.50400000000E-02 0.  1.
          1   -1    0    0  501    0  0.00000000000E+00 -0.00000000000E+00 -0.16091977748E+04  0.16091977748E+04  0.50400000000E-02 0. -1.
    8880023    1    1    2    0    0  0.37380755037E+03 -0.16082804595E+03 -0.13708431599E+04  0.15743630205E+04  0.65864270000E+03 0. -1.
    8880022    1    1    2    0    0 -0.37380755037E+03  0.16082804595E+03  0.20929981088E+03  0.48248918011E+03  0.15294330000E+03 0.  0.
<mgrwt>
<rscale>  0 0.67019413E+03</rscale>
<asrwt>0</asrwt>
<pdfrwt beam="1">  1        1 0.24756889E+00 0.77421441E+03</pdfrwt>
<pdfrwt beam="2">  1       -1 0.68869912E-01 0.77421441E+03</pdfrwt>
<totfact> 0.12146755E+01</totfact>
</mgrwt>
</event>
<event>
 4    5  0.8452103E-008  0.9094013E+03  0.7818608E-02  0.9511105E-01
         -1   -1    0    0    0  501 -0.00000000000E+00  0.00000000000E+00  0.20610639248E+04  0.20610639248E+04  0.50400000000E-02 0.  1.
          1   -1    0    0  501    0  0.00000000000E+00 -0.00000000000E+00 -0.11127012787E+04  0.11127012787E+04  0.50400000000E-02 0. -1.
    8880023    1    1    2    0    0 -0.57071720819E+03 -0.25977384680E+03 -0.86124368465E+03  0.12524980933E+04  0.65864270000E+03 0. -1.
    8880022    1    1    2    0    0  0.57071720819E+03  0.25977384680E+03  0.18096063308E+04  0.19212671102E+04  0.15294330000E+03 0.  0.
<mgrwt>
<rscale>  0 0.83470033E+03</rscale>
<asrwt>0</asrwt>
<pdfrwt beam="1">  1        1 0.17118481E+00 0.90940134E+03</pdfrwt>
<pdfrwt beam="2">  1       -1 0.31708676E+00 0.90940134E+03</pdfrwt>
<totfact> 0.32770504E-01</totfact>
</mgrwt>
</event>
<event>
 4    5  0.7176259E-008  0.6646410E+03  0.7818608E-02  0.1019837E+00
         -1   -1    0    0    0  501 -0.00000000000E+00  0.00000000000E+00  0.59884035006E+03  0.59884035008E+03  0.50400000000E-02 0.  1.
          1   -1    0    0  501    0  0.00000000000E+00 -0.00000000000E+00 -0.35408959482E+04  0.35408959482E+04  0.50400000000E-02 0. -1.
    8880023    1    1    2    0    0 -0.46141899656E+02 -0.76212293522E+02 -0.34957843171E+04  0.35584063268E+04  0.65864270000E+03 0. -1.
    8880022    1    1    2    0    0  0.46141899656E+02  0.76212293522E+02  0.55372871894E+03  0.58132997152E+03  0.15294330000E+03 0.  0.
<mgrwt>
<rscale>  0 0.47745639E+03</rscale>
<asrwt>0</asrwt>
<pdfrwt beam="1">  1        1 0.54475321E+00 0.66464095E+03</pdfrwt>
<pdfrwt beam="2">  1       -1 0.92129286E-01 0.66464095E+03</pdfrwt>
<totfact> 0.29956649E-01</totfact>
</mgrwt>
</event>
<event>
 4    5  0.7176259E-008  0.8755280E+03  0.7818608E-02  0.9566518E-01
          1   -1    0    0  501    0  0.00000000000E+00  0.00000000000E+00  0.18945381014E+04  0.18945381014E+04  0.50400000000E-02 0. -1.
         -1   -1    0    0    0  501 -0.00000000000E+00 -0.00000000000E+00 -0.67453677681E+03  0.67453677683E+03  0.50400000000E-02 0.  1.
    8880023    1    1    2    0    0 -0.37146050140E+03 -0.44131177799E+03  0.16263892641E+04  0.18470764019E+04  0.65864270000E+03 0.  0.
    8880022    1    1    2    0    0  0.37146050140E+03  0.44131177799E+03 -0.40638793955E+03  0.72199847639E+03  0.15294330000E+03 0.  0.
<mgrwt>
<rscale>  0 0.79552472E+03</rscale>
<asrwt>0</asrwt>
<pdfrwt beam="1">  1        1 0.29146740E+00 0.87552795E+03</pdfrwt>
<pdfrwt beam="2">  1       -1 0.10377489E+00 0.87552795E+03</pdfrwt>
<totfact> 0.31610902E+00</totfact>
</mgrwt>
</event>
<event>
 4    5  0.7176259E-008  0.7186021E+03  0.7818608E-02  0.9927344E-01
         -1   -1    0    0    0  501 -0.00000000000E+00  0.00000000000E+00  0.11680789349E+04  0.11680789349E+04  0.50400000000E-02 0.  1.
          1   -1    0    0  501    0  0.00000000000E+00 -0.00000000000E+00 -0.68887989773E+03  0.68887989775E+03  0.50400000000E-02 0. -1.
    8880023    1    1    2    0    0  0.24739062176E+03  0.14620778987E+03 -0.46653736385E+03  0.85676493607E+03  0.65864270000E+03 0. -1.
    8880022    1    1    2    0    0 -0.24739062176E+03 -0.14620778987E+03  0.94573640103E+03  0.10001938966E+04  0.15294330000E+03 0.  0.
<mgrwt>
<rscale>  0 0.58954166E+03</rscale>
<asrwt>0</asrwt>
<pdfrwt beam="1">  1        1 0.10598152E+00 0.71860215E+03</pdfrwt>
<pdfrwt beam="2">  1       -1 0.17970445E+00 0.71860215E+03</pdfrwt>
<totfact> 0.60659792E+00</totfact>
</mgrwt>
</event>
<event>
 4    5  0.7176259E-008  0.6798105E+03  0.7818608E-02  0.1009431E+00
         -1   -1    0    0    0  501 -0.00000000000E+00  0.00000000000E+00  0.16727845850E+03  0.16727845858E+03  0.50400000000E-02 0.  1.
          1   -1    0    0  501    0  0.00000000000E+00 -0.00000000000E+00 -0.29351880738E+04  0.29351880738E+04  0.50400000000E-02 0. -1.
    8880023    1    1    2    0    0  0.63406980699E+02 -0.15592190077E+03 -0.27921813417E+04  0.28737464982E+04  0.65864270000E+03 0. -1.
    8880022    1    1    2    0    0 -0.63406980699E+02  0.15592190077E+03  0.24271726418E+02  0.22872003423E+03  0.15294330000E+03 0.  0.
<mgrwt>
<rscale>  0 0.51701379E+03</rscale>
<asrwt>0</asrwt>
<pdfrwt beam="1">  1        1 0.45156736E+00 0.67981048E+03</pdfrwt>
<pdfrwt beam="2">  1       -1 0.25735150E-01 0.67981048E+03</pdfrwt>
<totfact> 0.95395088E+00</totfact>
</mgrwt>
</event>
<event>
 4    5  0.7176259E-008  0.6839186E+03  0.7818608E-02  0.1007189E+00
         -1   -1    0    0    0  501 -0.00000000000E+00  0.00000000000E+00  0.11062349049E+04  0.11062349049E+04  0.50400000000E-02 0.  1.
          1   -1    0    0  501    0  0.00000000000E+00 -0.00000000000E+00 -0.83903589947E+03  0.83903589948E+03  0.50400000000E-02 0. -1.
    8880023    1    1    2    0    0 -0.18325464883E+03  0.18765615411E+02 -0.68229186562E+03  0.96605735378E+03  0.65864270000E+03 0. -1.
    8880022    1    1    2    0    0  0.18325464883E+03 -0.18765615411E+02  0.94949087108E+03  0.97921345064E+03  0.15294330000E+03 0.  0.
<mgrwt>
<rscale>  0 0.52607458E+03</rscale>
<asrwt>0</asrwt>
<pdfrwt beam="1">  1        1 0.12908245E+00 0.68391858E+03</pdfrwt>
<pdfrwt beam="2">  1       -1 0.17018998E+00 0.68391858E+03</pdfrwt>
<totfact> 0.52519381E+00</totfact>
</mgrwt>
</event>
<event>
 4    5  0.7176259E-008  0.9289359E+03  0.7818608E-02  0.9481091E-01
         -1   -1    0    0    0  501 -0.00000000000E+00  0.00000000000E+00  0.17388452067E+03  0.17388452075E+03  0.50400000000E-02 0.  1.
          1   -1    0    0  501    0  0.00000000000E+00 -0.00000000000E+00 -0.51137012320E+04  0.51137012321E+04  0.50400000000E-02 0. -1.
    8880023    1    1    2    0    0 -0.50081521869E+03  0.42225083242E+03 -0.41379015635E+04  0.42408903787E+04  0.65864270000E+03 0.  0.
    8880022    1    1    2    0    0  0.50081521869E+03 -0.42225083242E+03 -0.80191514789E+03  0.10466953741E+04  0.15294330000E+03 0.  0.
<mgrwt>
<rscale>  0 0.85692343E+03</rscale>
<asrwt>0</asrwt>
<pdfrwt beam="1">  1        1 0.78672315E+00 0.92893587E+03</pdfrwt>
<pdfrwt beam="2">  1       -1 0.26751469E-01 0.92893587E+03</pdfrwt>
<totfact> 0.85407771E-02</totfact>
</mgrwt>
</event>
<event>
 4    5  0.7176259E-008  0.8354171E+03  0.7818608E-02  0.9638883E-01
         -1   -1    0    0    0  501 -0.00000000000E+00  0.00000000000E+00  0.89641210520E+03  0.89641210522E+03  0.50400000000E-02 0.  1.
          1   -1    0    0  501    0  0.00000000000E+00 -0.00000000000E+00 -0.16841003324E+04  0.16841003324E+04  0.50400000000E-02 0. -1.
    8880023    1    1    2    0    0 -0.51285970475E+03 -0.32960783414E+02 -0.14832096984E+04  0.17023021781E+04  0.65864270000E+03 0.  0.
    8880022    1    1    2    0    0  0.51285970475E+03  0.32960783414E+02  0.69552147119E+03  0.87821025950E+03  0.15294330000E+03 0.  0.
<mgrwt>
<rscale>  0 0.74775244E+03</rscale>
<asrwt>0</asrwt>
<pdfrwt beam="1">  1        1 0.25909236E+00 0.83541708E+03</pdfrwt>
<pdfrwt beam="2">  1       -1 0.13790956E+00 0.83541708E+03</pdfrwt>
<totfact> 0.22006005E+00</totfact>
</mgrwt>
</event>
<event>
 4    5  0.7176259E-008  0.6888420E+03  0.7818608E-02  0.1004708E+00
         -1   -1    0    0    0  501 -0.00000000000E+00  0.00000000000E+00  0.41318326643E+03  0.41318326646E+03  0.50400000000E-02 0.  1.
          1   -1    0    0  501    0  0.00000000000E+00 -0.00000000000E+00 -0.94554042196E+03  0.94554042197E+03  0.50400000000E-02 0. -1.
    8880023    1    1    2    0    0 -0.19974453151E+03  0.28200536130E+02 -0.75469614047E+03  0.10217972494E+04  0.65864270000E+03 0. -1.
    8880022    1    1    2    0    0  0.19974453151E+03 -0.28200536130E+02  0.22233898494E+03  0.33692643907E+03  0.15294330000E+03 0.  0.
<mgrwt>
<rscale>  0 0.53633250E+03</rscale>
<asrwt>0</asrwt>
<pdfrwt beam="1">  1        1 0.14546776E+00 0.68884204E+03</pdfrwt>
<pdfrwt beam="2">  1       -1 0.63566657E-01 0.68884204E+03</pdfrwt>
<totfact> 0.43254674E+01</totfact>
</mgrwt>
</event>
<event>
 4    5  0.7176259E-008  0.9140152E+03  0.7818608E-02  0.9503897E-01
          1   -1    0    0  501    0  0.00000000000E+00  0.00000000000E+00  0.25708907923E+04  0.25708907924E+04  0.50400000000E-02 0. -1.
         -1   -1    0    0    0  501 -0.00000000000E+00 -0.00000000000E+00 -0.29142580320E+03  0.29142580324E+03  0.50400000000E-02 0.  1.
    8880023    1    1    2    0    0  0.54608562058E+03  0.32156496466E+03  0.18989412169E+04  0.21074632815E+04  0.65864270000E+03 0. -1.
    8880022    1    1    2    0    0 -0.54608562058E+03 -0.32156496466E+03  0.38052377227E+03  0.75485331408E+03  0.15294330000E+03 0.  0.
<mgrwt>
<rscale>  0 0.83997108E+03</rscale>
<asrwt>0</asrwt>
<pdfrwt beam="1">  1        1 0.39552166E+00 0.91401517E+03</pdfrwt>
<pdfrwt beam="2">  1       -1 0.44834739E-01 0.91401517E+03</pdfrwt>
<totfact> 0.61493026E+00</totfact>
</mgrwt>
</event>
<event>
 4    5  0.7176259E-008  0.8768728E+03  0.7818608E-02  0.9564227E-01
          1   -1    0    0  501    0  0.00000000000E+00  0.00000000000E+00  0.14822236515E+04  0.14822236515E+04  0.50400000000E-02 0. -1.
         -1   -1    0    0    0  501 -0.00000000000E+00 -0.00000000000E+00 -0.59607794159E+03  0.59607794161E+03  0.50400000000E-02 0.  1.
    8880023    1    1    2    0    0 -0.54462876066E+03  0.19615102920E+03  0.11312776281E+04  0.14313263049E+04  0.65864270000E+03 0. -1.
    8880022    1    1    2    0    0  0.54462876066E+03 -0.19615102920E+03 -0.24513191816E+03  0.64697528818E+03  0.15294330000E+03 0.  0.
<mgrwt>
<rscale>  0 0.79709793E+03</rscale>
<asrwt>0</asrwt>
<pdfrwt beam="1">  1        1 0.22803441E+00 0.87687281E+03</pdfrwt>
<pdfrwt beam="2">  1       -1 0.91704300E-01 0.87687281E+03</pdfrwt>
<totfact> 0.79602465E+00</totfact>
</mgrwt>
</event>
<event>
 4    5  0.7176259E-008  0.9239277E+03  0.7818608E-02  0.9488663E-01
          1   -1    0    0  501    0  0.00000000000E+00  0.00000000000E+00  0.22628160818E+04  0.22628160819E+04  0.50400000000E-02 0. -1.
         -1   -1    0    0    0  501 -0.00000000000E+00 -0.00000000000E+00 -0.11549898325E+04  0.11549898325E+04  0.50400000000E-02 0.  1.
    8880023    1    1    2    0    0  0.56221372546E+03 -0.32209919448E+03  0.20589978058E+04  0.22567929313E+04  0.65864270000E+03 0.  0.
    8880022    1    1    2    0    0 -0.56221372546E+03  0.32209919448E+03 -0.95117155642E+03  0.11610129831E+04  0.15294330000E+03 0.  0.
<mgrwt>
<rscale>  0 0.85124852E+03</rscale>
<asrwt>0</asrwt>
<pdfrwt beam="1">  1        1 0.34812555E+00 0.92392769E+03</pdfrwt>
<pdfrwt beam="2">  1       -1 0.17769075E+00 0.92392769E+03</pdfrwt>
<totfact> 0.43942370E-01</totfact>
</mgrwt>
</event>
<event>
 4    5  0.7176259E-008  0.9900066E+03  0.7818608E-02  0.9394750E-01
          1   -1    0    0  501    0  0.00000000000E+00  0.00000000000E+00  0.37920193403E+03  0.37920193406E+03  0.50400000000E-02 0. -1.
         -1   -1    0    0    0  501 -0.00000000000E+00 -0.00000000000E+00 -0.21571834501E+04  0.21571834501E+04  0.50400000000E-02 0.  1.
    8880023    1    1    2    0    0 -0.31523974009E+03  0.66852575329E+03 -0.13322413415E+04  0.16598132349E+04  0.65864270000E+03 0. -1.
    8880022    1    1    2    0    0  0.31523974009E+03 -0.66852575329E+03 -0.44574017450E+03  0.87657214918E+03  0.15294330000E+03 0.  0.
<mgrwt>
<rscale>  0 0.92508960E+03</rscale>
<asrwt>0</asrwt>
<pdfrwt beam="1">  1        1 0.58338760E-01 0.99000656E+03</pdfrwt>
<pdfrwt beam="2">  1       -1 0.33187437E+00 0.99000656E+03</pdfrwt>
<totfact> 0.13447608E+00</totfact>
</mgrwt>
</event>
<event>
 4    5  0.7176259E-008  0.1160731E+04  0.7818608E-02  0.9196273E-01
         -1   -1    0    0    0  501 -0.00000000000E+00  0.00000000000E+00  0.87763617894E+03  0.87763617895E+03  0.50400000000E-02 0.  1.
          1   -1    0    0  501    0  0.00000000000E+00 -0.00000000000E+00 -0.15618855140E+04  0.15618855140E+04  0.50400000000E-02 0. -1.
    8880023    1    1    2    0    0 -0.51772359800E+03 -0.80339824492E+03  0.13876705973E+03  0.11689965641E+04  0.65864270000E+03 0.  1.
    8880022    1    1    2    0    0  0.51772359800E+03  0.80339824492E+03 -0.82301639482E+03  0.12705251288E+04  0.15294330000E+03 0.  0.
<mgrwt>
<rscale>  0 0.11091981E+04</rscale>
<asrwt>0</asrwt>
<pdfrwt beam="1">  1        1 0.24029008E+00 0.11607311E+04</pdfrwt>
<pdfrwt beam="2">  1       -1 0.13502095E+00 0.11607311E+04</pdfrwt>
<totfact> 0.26919169E+00</totfact>
</mgrwt>
</event>
<event>
 4    5  0.7176259E-008  0.7564887E+03  0.7818608E-02  0.9814284E-01
         -1   -1    0    0    0  501 -0.00000000000E+00  0.00000000000E+00  0.24953927364E+03  0.24953927369E+03  0.50400000000E-02 0.  1.
          1   -1    0    0  501    0  0.00000000000E+00 -0.00000000000E+00 -0.32034392139E+04  0.32034392139E+04  0.50400000000E-02 0. -1.
    8880023    1    1    2    0    0  0.34528579325E+03 -0.13871810967E+03 -0.29553783767E+04  0.30506616575E+04  0.65864270000E+03 0.  0.
    8880022    1    1    2    0    0 -0.34528579325E+03  0.13871810967E+03  0.14784364311E+01  0.40231683008E+03  0.15294330000E+03 0.  0.
<mgrwt>
<rscale>  0 0.64601584E+03</rscale>
<asrwt>0</asrwt>
<pdfrwt beam="1">  1        1 0.49283677E+00 0.75648873E+03</pdfrwt>
<pdfrwt beam="2">  1       -1 0.38390660E-01 0.75648873E+03</pdfrwt>
<totfact> 0.29813764E+00</totfact>
</mgrwt>
</event>
<event>
 4    5  0.7176259E-008  0.8772083E+03  0.7818608E-02  0.9563657E-01
         -1   -1    0    0    0  501 -0.00000000000E+00  0.00000000000E+00  0.21383249223E+03  0.21383249229E+03  0.50400000000E-02 0.  1.
          1   -1    0    0  501    0  0.00000000000E+00 -0.00000000000E+00 -0.32060908669E+04  0.32060908669E+04  0.50400000000E-02 0. -1.
    8880023    1    1    2    0    0  0.12109460084E+03 -0.56658645250E+03 -0.24834363467E+04  0.26338091056E+04  0.65864270000E+03 0. -1.
    8880022    1    1    2    0    0 -0.12109460084E+03  0.56658645250E+03 -0.50882202800E+03  0.78611425359E+03  0.15294330000E+03 0.  1.
<mgrwt>
<rscale>  0 0.79749009E+03</rscale>
<asrwt>0</asrwt>
<pdfrwt beam="1">  1        1 0.49324471E+00 0.87720825E+03</pdfrwt>
<pdfrwt beam="2">  1       -1 0.32897309E-01 0.87720825E+03</pdfrwt>
<totfact> 0.38280005E+00</totfact>
</mgrwt>
</event>
<event>
 4    5  0.7813062E-008  0.6641023E+03  0.7818608E-02  0.1020299E+00
         -1   -1    0    0    0  501 -0.00000000000E+00  0.00000000000E+00  0.15453723050E+04  0.15453723050E+04  0.50400000000E-02 0.  1.
          1   -1    0    0  501    0  0.00000000000E+00 -0.00000000000E+00 -0.13067437841E+04  0.13067437841E+04  0.50400000000E-02 0. -1.
    8880023    1    1    2    0    0  0.84502487113E+02 -0.90012008413E+01 -0.12167883206E+04  0.13862199376E+04  0.65864270000E+03 0. -1.
    8880022    1    1    2    0    0 -0.84502487113E+02  0.90012008413E+01  0.14554168414E+04  0.14658961516E+04  0.15294330000E+03 0.  0.
<mgrwt>
<rscale>  0 0.47578977E+03</rscale>
<asrwt>0</asrwt>
<pdfrwt beam="1">  1        1 0.20103750E+00 0.66410233E+03</pdfrwt>
<pdfrwt beam="2">  1       -1 0.23774959E+00 0.66410233E+03</pdfrwt>
<totfact> 0.80722313E-01</totfact>
</mgrwt>
</event>
<event>
 4    5  0.7176259E-008  0.7173449E+03  0.7818608E-02  0.9931675E-01
         -1   -1    0    0    0  501 -0.00000000000E+00  0.00000000000E+00  0.55273096206E+03  0.55273096208E+03  0.50400000000E-02 0.  1.
          1   -1    0    0  501    0  0.00000000000E+00 -0.00000000000E+00 -0.13087956723E+04  0.13087956724E+04  0.50400000000E-02 0. -1.
    8880023    1    1    2    0    0  0.16733760847E+03 -0.22972060624E+03 -0.11480702368E+04  0.13537536360E+04  0.65864270000E+03 0. -1.
    8880022    1    1    2    0    0 -0.16733760847E+03  0.22972060624E+03  0.39200552648E+03  0.50777299844E+03  0.15294330000E+03 0.  0.
<mgrwt>
<rscale>  0 0.58750459E+03</rscale>
<asrwt>0</asrwt>
<pdfrwt beam="1">  1        1 0.20135318E+00 0.71734485E+03</pdfrwt>
<pdfrwt beam="2">  1       -1 0.85035533E-01 0.71734485E+03</pdfrwt>
<totfact> 0.12677680E+01</totfact>
</mgrwt>
</event>
<event>
 4    5  0.7176259E-008  0.1066404E+04  0.7818608E-02  0.9299417E-01
          1   -1    0    0  501    0  0.00000000000E+00  0.00000000000E+00  0.25215574679E+04  0.25215574679E+04  0.50400000000E-02 0. -1.
         -1   -1    0    0    0  501 -0.00000000000E+00 -0.00000000000E+00 -0.57639845480E+03  0.57639845482E+03  0.50400000000E-02 0.  1.
    8880023    1    1    2    0    0  0.83651269339E+03 -0.60444937944E+02  0.19754317036E+04  0.22448936943E+04  0.65864270000E+03 0.  0.
    8880022    1    1    2    0    0 -0.83651269339E+03  0.60444937944E+02 -0.30272690543E+02  0.85306222841E+03  0.15294330000E+03 0.  0.
<mgrwt>
<rscale>  0 0.10083657E+04</rscale>
<asrwt>0</asrwt>
<pdfrwt beam="1">  1        1 0.38793192E+00 0.10664039E+04</pdfrwt>
<pdfrwt beam="2">  1       -1 0.88676685E-01 0.10664039E+04</pdfrwt>
<totfact> 0.16484327E+00</totfact>
</mgrwt>
</event>
<event>
 4    5  0.7176259E-008  0.8663264E+03  0.7818608E-02  0.9582408E-01
          1   -1    0    0  501    0  0.00000000000E+00  0.00000000000E+00  0.23679297919E+04  0.23679297919E+04  0.50400000000E-02 0. -1.
         -1   -1    0    0    0  501 -0.00000000000E+00 -0.00000000000E+00 -0.22227331675E+03  0.22227331680E+03  0.50400000000E-02 0.  1.
    8880023    1    1    2    0    0 -0.55591315844E+03 -0.87588619127E+02  0.12250218529E+04  0.15003999307E+04  0.65864270000E+03 0.  1.
    8880022    1    1    2    0    0  0.55591315844E+03  0.87588619127E+02  0.92063462232E+03  0.10898031780E+04  0.15294330000E+03 0. -1.
<mgrwt>
<rscale>  0 0.78471588E+03</rscale>
<asrwt>0</asrwt>
<pdfrwt beam="1">  1        1 0.36429688E+00 0.86632639E+03</pdfrwt>
<pdfrwt beam="2">  1       -1 0.34195896E-01 0.86632639E+03</pdfrwt>
<totfact> 0.13947841E+01</totfact>
</mgrwt>
</event>
<event>
 4    5  0.7176259E-008  0.7665959E+03  0.7818608E-02  0.9788321E-01
          1   -1    0    0  501    0  0.00000000000E+00  0.00000000000E+00  0.22394973849E+04  0.22394973849E+04  0.50400000000E-02 0. -1.
         -1   -1    0    0    0  501 -0.00000000000E+00 -0.00000000000E+00 -0.30508361247E+03  0.30508361252E+03  0.50400000000E-02 0.  1.
    8880023    1    1    2    0    0 -0.39222797007E+03 -0.40309472648E+01  0.19779641343E+04  0.21213230193E+04  0.65864270000E+03 0. -1.
    8880022    1    1    2    0    0  0.39222797007E+03  0.40309472648E+01 -0.43550361914E+02  0.42325797816E+03  0.15294330000E+03 0.  0.
<mgrwt>
<rscale>  0 0.65993072E+03</rscale>
<asrwt>0</asrwt>
<pdfrwt beam="1">  1        1 0.34453804E+00 0.76659587E+03</pdfrwt>
<pdfrwt beam="2">  1       -1 0.46935942E-01 0.76659587E+03</pdfrwt>
<totfact> 0.96997102E+00</totfact>
</mgrwt>
</event>
<event>
 4    5  0.7176259E-008  0.1032097E+04  0.7818608E-02  0.9340720E-01
         -1   -1    0    0    0  501 -0.00000000000E+00  0.00000000000E+00  0.22621797786E+04  0.22621797786E+04  0.50400000000E-02 0.  1.
          1   -1    0    0  501    0  0.00000000000E+00 -0.00000000000E+00 -0.49244592184E+03  0.49244592187E+03  0.50400000000E-02 0. -1.
    8880023    1    1    2    0    0 -0.74747974796E+03 -0.26960550677E+03  0.29659276717E+03  0.10738671141E+04  0.65864270000E+03 0.  0.
    8880022    1    1    2    0    0  0.74747974796E+03  0.26960550677E+03  0.14731410896E+04  0.16807585864E+04  0.15294330000E+03 0.  0.
<mgrwt>
<rscale>  0 0.97119005E+03</rscale>
<asrwt>0</asrwt>
<pdfrwt beam="1">  1        1 0.75760911E-01 0.10320966E+04</pdfrwt>
<pdfrwt beam="2">  1       -1 0.34802766E+00 0.10320966E+04</pdfrwt>
<totfact> 0.73643047E-01</totfact>
</mgrwt>
</event>
<event>
 4    5  0.7176259E-008  0.6670600E+03  0.7818608E-02  0.1017864E+00
          1   -1    0    0  501    0  0.00000000000E+00  0.00000000000E+00  0.10681753491E+04  0.10681753491E+04  0.50400000000E-02 0. -1.
         -1   -1    0    0    0  501 -0.00000000000E+00 -0.00000000000E+00 -0.88168722150E+03  0.88168722151E+03  0.50400000000E-02 0.  1.
    8880023    1    1    2    0    0  0.54848890384E+02  0.90279792739E+02  0.95181249752E+03  0.11622891544E+04  0.65864270000E+03 0. -1.
    8880022    1    1    2    0    0 -0.54848890384E+02 -0.90279792739E+02 -0.76532436991E+03  0.78757341622E+03  0.15294330000E+03 0.  0.
<mgrwt>
<rscale>  0 0.48465250E+03</rscale>
<asrwt>0</asrwt>
<pdfrwt beam="1">  1        1 0.16433467E+00 0.66706000E+03</pdfrwt>
<pdfrwt beam="2">  1       -1 0.13564419E+00 0.66706000E+03</pdfrwt>
<totfact> 0.64014413E+00</totfact>
</mgrwt>
</event>
<event>
 4    5  0.8295536E-008  0.6704008E+03  0.7818608E-02  0.1015377E+00
         -1   -1    0    0    0  501 -0.00000000000E+00  0.00000000000E+00  0.14838077356E+04  0.14838077356E+04  0.50400000000E-02 0.  1.
          1   -1    0    0  501    0  0.00000000000E+00 -0.00000000000E+00 -0.13004979367E+04  0.13004979367E+04  0.50400000000E-02 0. -1.
    8880023    1    1    2    0    0  0.48560959378E+02  0.11519059586E+03 -0.12066515208E+04  0.13803786216E+04  0.65864270000E+03 0. -1.
    8880022    1    1    2    0    0 -0.48560959378E+02 -0.11519059586E+03  0.13899613197E+04  0.14039270506E+04  0.15294330000E+03 0.  0.
<mgrwt>
<rscale>  0 0.49392384E+03</rscale>
<asrwt>0</asrwt>
<pdfrwt beam="1">  1        1 0.20007660E+00 0.67040081E+03</pdfrwt>
<pdfrwt beam="2">  1       -1 0.22827811E+00 0.67040081E+03</pdfrwt>
<totfact> 0.93874070E-01</totfact>
</mgrwt>
</event>
<event>
 4    5  0.7176259E-008  0.1442548E+04  0.7818608E-02  0.8951308E-01
         -1   -1    0    0    0  501 -0.00000000000E+00  0.00000000000E+00  0.32807523270E+04  0.32807523270E+04  0.50400000000E-02 0.  1.
          1   -1    0    0  501    0  0.00000000000E+00 -0.00000000000E+00 -0.12952353147E+04  0.12952353147E+04  0.50400000000E-02 0. -1.
    8880023    1    1    2    0    0 -0.75618083497E+02 -0.12811773693E+04 -0.69417248326E+03  0.16008807542E+04  0.65864270000E+03 0. -1.
    8880022    1    1    2    0    0  0.75618083497E+02  0.12811773693E+04  0.26796894956E+04  0.29751068875E+04  0.15294330000E+03 0.  0.
<mgrwt>
<rscale>  0 0.14034736E+04</rscale>
<asrwt>0</asrwt>
<pdfrwt beam="1">  1        1 0.19926697E+00 0.14425477E+04</pdfrwt>
<pdfrwt beam="2">  1       -1 0.50473113E+00 0.14425477E+04</pdfrwt>
<totfact> 0.11990804E-02</totfact>
</mgrwt>
</event>
<event>
 4    5  0.7176259E-008  0.6975935E+03  0.7818608E-02  0.1000733E+00
          1   -1    0    0  501    0  0.00000000000E+00  0.00000000000E+00  0.17591376405E+04  0.17591376406E+04  0.50400000000E-02 0. -1.
         -1   -1    0    0    0  501 -0.00000000000E+00 -0.00000000000E+00 -0.29566310453E+03  0.29566310457E+03  0.50400000000E-02 0.  1.
    8880023    1    1    2    0    0 -0.22983565508E+03  0.14377138186E+01  0.16009915633E+04  0.17463707187E+04  0.65864270000E+03 0. -1.
    8880022    1    1    2    0    0  0.22983565508E+03 -0.14377138186E+01 -0.13751702726E+03  0.30843002637E+03  0.15294330000E+03 0.  0.
<mgrwt>
<rscale>  0 0.55329803E+03</rscale>
<asrwt>0</asrwt>
<pdfrwt beam="1">  1        1 0.27063656E+00 0.69759351E+03</pdfrwt>
<pdfrwt beam="2">  1       -1 0.45486631E-01 0.69759351E+03</pdfrwt>
<totfact> 0.21782351E+01</totfact>
</mgrwt>
</event>
<event>
 4    5  0.7176259E-008  0.8983739E+03  0.7818608E-02  0.9528647E-01
         -1   -1    0    0    0  501 -0.00000000000E+00  0.00000000000E+00  0.13240385611E+04  0.13240385612E+04  0.50400000000E-02 0.  1.
          1   -1    0    0  501    0  0.00000000000E+00 -0.00000000000E+00 -0.18535340623E+04  0.18535340623E+04  0.50400000000E-02 0. -1.
    8880023    1    1    2    0    0 -0.61086085127E+03 -0.10703377574E+02 -0.16576986234E+04  0.18854814967E+04  0.65864270000E+03 0.  0.
    8880022    1    1    2    0    0  0.61086085127E+03  0.10703377574E+02  0.11282031223E+04  0.12920911268E+04  0.15294330000E+03 0.  0.
<mgrwt>
<rscale>  0 0.82204346E+03</rscale>
<asrwt>0</asrwt>
<pdfrwt beam="1">  1        1 0.28515909E+00 0.89837395E+03</pdfrwt>
<pdfrwt beam="2">  1       -1 0.20369824E+00 0.89837395E+03</pdfrwt>
<totfact> 0.54748381E-01</totfact>
</mgrwt>
</event>
<event>
 4    5  0.7176259E-008  0.1109395E+04  0.7818608E-02  0.9250667E-01
          1   -1    0    0  501    0  0.00000000000E+00  0.00000000000E+00  0.37238402783E+04  0.37238402783E+04  0.50400000000E-02 0. -1.
         -1   -1    0    0    0  501 -0.00000000000E+00 -0.00000000000E+00 -0.14110201174E+04  0.14110201174E+04  0.50400000000E-02 0.  1.
    8880023    1    1    2    0    0 -0.17750066892E+03  0.87489464348E+03  0.34828263651E+04  0.36552478466E+04  0.65864270000E+03 0.  0.
    8880022    1    1    2    0    0  0.17750066892E+03 -0.87489464348E+03 -0.11700062042E+04  0.14796125491E+04  0.15294330000E+03 0.  0.
<mgrwt>
<rscale>  0 0.10545418E+04</rscale>
<asrwt>0</asrwt>
<pdfrwt beam="1">  1        1 0.57289851E+00 0.11093950E+04</pdfrwt>
<pdfrwt beam="2">  1       -1 0.21708002E+00 0.11093950E+04</pdfrwt>
<totfact> 0.19424759E-02</totfact>
</mgrwt>
</event>
<event>
 4    5  0.7176259E-008  0.1015172E+04  0.7818608E-02  0.9361971E-01
          1   -1    0    0  501    0  0.00000000000E+00  0.00000000000E+00  0.23195022963E+04  0.23195022963E+04  0.50400000000E-02 0. -1.
         -1   -1    0    0    0  501 -0.00000000000E+00 -0.00000000000E+00 -0.39869377694E+03  0.39869377697E+03  0.50400000000E-02 0.  1.
    8880023    1    1    2    0    0 -0.43580281255E+03  0.63784058347E+03  0.59654523140E+03  0.11774723439E+04  0.65864270000E+03 0.  0.
    8880022    1    1    2    0    0  0.43580281255E+03 -0.63784058347E+03  0.13242632880E+04  0.15407237294E+04  0.15294330000E+03 0.  0.
<mgrwt>
<rscale>  0 0.95272484E+03</rscale>
<asrwt>0</asrwt>
<pdfrwt beam="1">  1        1 0.35684650E+00 0.10151724E+04</pdfrwt>
<pdfrwt beam="2">  1       -1 0.61337505E-01 0.10151724E+04</pdfrwt>
<totfact> 0.49326281E+00</totfact>
</mgrwt>
</event>
<event>
 4    5  0.1000475E-007  0.1015273E+04  0.7818608E-02  0.9361843E-01
         -1   -1    0    0    0  501 -0.00000000000E+00  0.00000000000E+00  0.13084789838E+04  0.13084789838E+04  0.50400000000E-02 0.  1.
          1   -1    0    0  501    0  0.00000000000E+00 -0.00000000000E+00 -0.18054645081E+04  0.18054645081E+04  0.50400000000E-02 0. -1.
    8880023    1    1    2    0    0 -0.64455251510E+03  0.42605395394E+03 -0.15168958675E+04  0.18253090684E+04  0.65864270000E+03 0. -1.
    8880022    1    1    2    0    0  0.64455251510E+03 -0.42605395394E+03  0.10199103432E+04  0.12886344235E+04  0.15294330000E+03 0.  0.
<mgrwt>
<rscale>  0 0.95283538E+03</rscale>
<asrwt>0</asrwt>
<pdfrwt beam="1">  1        1 0.27776377E+00 0.10152734E+04</pdfrwt>
<pdfrwt beam="2">  1       -1 0.20130446E+00 0.10152734E+04</pdfrwt>
<totfact> 0.60016436E-01</totfact>
</mgrwt>
</event>
<event>
 4    5  0.7176259E-008  0.1200261E+04  0.7818608E-02  0.9156868E-01
          1   -1    0    0  501    0  0.00000000000E+00  0.00000000000E+00  0.44681854475E+04  0.44681854475E+04  0.50400000000E-02 0. -1.
         -1   -1    0    0    0  501 -0.00000000000E+00 -0.00000000000E+00 -0.41672980485E+03  0.41672980488E+03  0.50400000000E-02 0.  1.
    8880023    1    1    2    0    0  0.90951688658E+03 -0.42378766015E+03  0.35606080730E+04  0.37574668334E+04  0.65864270000E+03 0.  0.
    8880022    1    1    2    0    0 -0.90951688658E+03  0.42378766015E+03  0.49084756957E+03  0.11274484190E+04  0.15294330000E+03 0.  0.
<mgrwt>
<rscale>  0 0.11509925E+04</rscale>
<asrwt>0</asrwt>
<pdfrwt beam="1">  1        1 0.68741317E+00 0.12002613E+04</pdfrwt>
<pdfrwt beam="2">  1       -1 0.64112275E-01 0.12002613E+04</pdfrwt>
<totfact> 0.88357014E-02</totfact>
</mgrwt>
</event>
<event>
 4    5  0.7176259E-008  0.1095619E+04  0.7818608E-02  0.9265949E-01
          1   -1    0    0  501    0  0.00000000000E+00  0.00000000000E+00  0.15085067347E+04  0.15085067347E+04  0.50400000000E-02 0. -1.
         -1   -1    0    0    0  501 -0.00000000000E+00 -0.00000000000E+00 -0.85311609501E+03  0.85311609503E+03  0.50400000000E-02 0.  1.
    8880023    1    1    2    0    0  0.67867214921E+03  0.55315072758E+03  0.92388050791E+03  0.14331563113E+04  0.65864270000E+03 0.  0.
    8880022    1    1    2    0    0 -0.67867214921E+03 -0.55315072758E+03 -0.26848986819E+03  0.92846651844E+03  0.15294330000E+03 0.  0.
<mgrwt>
<rscale>  0 0.10397900E+04</rscale>
<asrwt>0</asrwt>
<pdfrwt beam="1">  1        1 0.23207796E+00 0.10956194E+04</pdfrwt>
<pdfrwt beam="2">  1       -1 0.13124863E+00 0.10956194E+04</pdfrwt>
<totfact> 0.31741937E+00</totfact>
</mgrwt>
</event>
<event>
 4    5  0.7176259E-008  0.1498396E+04  0.7818608E-02  0.8910770E-01
          1   -1    0    0  501    0  0.00000000000E+00  0.00000000000E+00  0.18207128244E+04  0.18207128244E+04  0.50400000000E-02 0. -1.
         -1   -1    0    0    0  501 -0.00000000000E+00 -0.00000000000E+00 -0.19114026711E+04  0.19114026711E+04  0.50400000000E-02 0.  1.
    8880023    1    1    2    0    0  0.77046191887E+03 -0.11035249854E+04  0.11549891843E+04  0.18918745159E+04  0.65864270000E+03 0.  1.
    8880022    1    1    2    0    0 -0.77046191887E+03  0.11035249854E+04 -0.12456790311E+04  0.18402409796E+04  0.15294330000E+03 0.  0.
<mgrwt>
<rscale>  0 0.14610584E+04</rscale>
<asrwt>0</asrwt>
<pdfrwt beam="1">  1        1 0.28010967E+00 0.14983955E+04</pdfrwt>
<pdfrwt beam="2">  1       -1 0.29406195E+00 0.14983955E+04</pdfrwt>
<totfact> 0.13435049E-01</totfact>
</mgrwt>
</event>
<event>
 4    5  0.7176259E-008  0.8211260E+03  0.7818608E-02  0.9666851E-01
         -1   -1    0    0    0  501 -0.00000000000E+00  0.00000000000E+00  0.10768782429E+04  0.10768782430E+04  0.50400000000E-02 0.  1.
          1   -1    0    0  501    0  0.00000000000E+00 -0.00000000000E+00 -0.83461324644E+03  0.83461324645E+03  0.50400000000E-02 0. -1.
    8880023    1    1    2    0    0  0.31309650351E+03 -0.37737030603E+03 -0.53485872437E+03  0.97996011637E+03  0.65864270000E+03 0.  0.
    8880022    1    1    2    0    0 -0.31309650351E+03  0.37737030603E+03  0.77712372088E+03  0.93153137304E+03  0.15294330000E+03 0.  0.
<mgrwt>
<rscale>  0 0.73025203E+03</rscale>
<asrwt>0</asrwt>
<pdfrwt beam="1">  1        1 0.12840204E+00 0.82112604E+03</pdfrwt>
<pdfrwt beam="2">  1       -1 0.16567358E+00 0.82112604E+03</pdfrwt>
<totfact> 0.56022356E+00</totfact>
</mgrwt>
</event>
<event>
 4    5  0.8810128E-008  0.6878337E+03  0.7818608E-02  0.1005200E+00
          1   -1    0    0  501    0  0.00000000000E+00  0.00000000000E+00  0.25871538485E+04  0.25871538485E+04  0.50400000000E-02 0. -1.
         -1   -1    0    0    0  501 -0.00000000000E+00 -0.00000000000E+00 -0.79449551497E+03  0.79449551499E+03  0.50400000000E-02 0.  1.
    8880023    1    1    2    0    0 -0.46676656942E+02  0.19268186571E+03  0.25201195671E+04  0.26123012556E+04  0.65864270000E+03 0. -1.
    8880022    1    1    2    0    0  0.46676656942E+02 -0.19268186571E+03 -0.72746123356E+03  0.76934810783E+03  0.15294330000E+03 0.  0.
<mgrwt>
<rscale>  0 0.53427905E+03</rscale>
<asrwt>0</asrwt>
<pdfrwt beam="1">  1        1 0.39802368E+00 0.68783371E+03</pdfrwt>
<pdfrwt beam="2">  1       -1 0.12223008E+00 0.68783371E+03</pdfrwt>
<totfact> 0.75761214E-01</totfact>
</mgrwt>
</event>
<event>
 4    5  0.7176259E-008  0.1202299E+04  0.7818608E-02  0.9154891E-01
         -1   -1    0    0    0  501 -0.00000000000E+00  0.00000000000E+00  0.30740659907E+04  0.30740659907E+04  0.50400000000E-02 0.  1.
          1   -1    0    0  501    0  0.00000000000E+00 -0.00000000000E+00 -0.54859820426E+03  0.54859820428E+03  0.50400000000E-02 0. -1.
    8880023    1    1    2    0    0  0.91885387583E+03 -0.40916957613E+03  0.40144829502E+03  0.12675500491E+04  0.65864270000E+03 0.  0.
    8880022    1    1    2    0    0 -0.91885387583E+03  0.40916957613E+03  0.21240194914E+04  0.23551141459E+04  0.15294330000E+03 0. -1.
<mgrwt>
<rscale>  0 0.11531407E+04</rscale>
<asrwt>0</asrwt>
<pdfrwt beam="1">  1        1 0.84399723E-01 0.12022988E+04</pdfrwt>
<pdfrwt beam="2">  1       -1 0.47293324E+00 0.12022988E+04</pdfrwt>
<totfact> 0.87211539E-02</totfact>
</mgrwt>
</event>
<event>
 4    5  0.7176259E-008  0.1232619E+04  0.7818608E-02  0.9126049E-01
          1   -1    0    0  501    0  0.00000000000E+00  0.00000000000E+00  0.19021879941E+04  0.19021879941E+04  0.50400000000E-02 0. -1.
         -1   -1    0    0    0  501 -0.00000000000E+00 -0.00000000000E+00 -0.18386353636E+04  0.18386353636E+04  0.50400000000E-02 0.  1.
    8880023    1    1    2    0    0  0.25687866338E+03  0.10097286717E+04  0.15115364140E+04  0.19504079510E+04  0.65864270000E+03 0.  0.
    8880022    1    1    2    0    0 -0.25687866338E+03 -0.10097286717E+04 -0.14479837835E+04  0.17904154067E+04  0.15294330000E+03 0.  0.
<mgrwt>
<rscale>  0 0.11850443E+04</rscale>
<asrwt>0</asrwt>
<pdfrwt beam="1">  1        1 0.29264431E+00 0.12326187E+04</pdfrwt>
<pdfrwt beam="2">  1       -1 0.28286698E+00 0.12326187E+04</pdfrwt>
<totfact> 0.14497703E-01</totfact>
</mgrwt>
</event>
<event>
 4    5  0.7176259E-008  0.9020606E+03  0.7818608E-02  0.9522732E-01
         -1   -1    0    0    0  501 -0.00000000000E+00  0.00000000000E+00  0.53376379430E+03  0.53376379432E+03  0.50400000000E-02 0.  1.
          1   -1    0    0  501    0  0.00000000000E+00 -0.00000000000E+00 -0.22036620859E+04  0.22036620859E+04  0.50400000000E-02 0. -1.
    8880023    1    1    2    0    0 -0.59749811354E+03  0.15132463188E+03 -0.18661530382E+04  0.20727374431E+04  0.65864270000E+03 0. -1.
    8880022    1    1    2    0    0  0.59749811354E+03 -0.15132463188E+03  0.19625474656E+03  0.66468843714E+03  0.15294330000E+03 0.  0.
<mgrwt>
<rscale>  0 0.82628452E+03</rscale>
<asrwt>0</asrwt>
<pdfrwt beam="1">  1        1 0.33902493E+00 0.90206061E+03</pdfrwt>
<pdfrwt beam="2">  1       -1 0.82117508E-01 0.90206061E+03</pdfrwt>
<totfact> 0.32867403E+00</totfact>
</mgrwt>
</event>
<event>
 4    5  0.7176259E-008  0.1080907E+04  0.7818608E-02  0.9282618E-01
         -1   -1    0    0    0  501 -0.00000000000E+00  0.00000000000E+00  0.36670431984E+03  0.36670431987E+03  0.50400000000E-02 0.  1.
          1   -1    0    0  501    0  0.00000000000E+00 -0.00000000000E+00 -0.28668940297E+04  0.28668940297E+04  0.50400000000E-02 0. -1.
    8880023    1    1    2    0    0 -0.15733881677E+03 -0.84249228439E+03 -0.18661551118E+04  0.21565931142E+04  0.65864270000E+03 0.  0.
    8880022    1    1    2    0    0  0.15733881677E+03  0.84249228439E+03 -0.63403459805E+03  0.10770052354E+04  0.15294330000E+03 0.  0.
<mgrwt>
<rscale>  0 0.10239895E+04</rscale>
<asrwt>0</asrwt>
<pdfrwt beam="1">  1        1 0.44106060E+00 0.10809065E+04</pdfrwt>
<pdfrwt beam="2">  1       -1 0.56416051E-01 0.10809065E+04</pdfrwt>
<totfact> 0.24055498E+00</totfact>
</mgrwt>
</event>
<event>
 4    5  0.7176259E-008  0.9915691E+03  0.7818608E-02  0.9392672E-01
         -1   -1    0    0    0  501 -0.00000000000E+00  0.00000000000E+00  0.57094447386E+03  0.57094447388E+03  0.50400000000E-02 0.  1.
          1   -1    0    0  501    0  0.00000000000E+00 -0.00000000000E+00 -0.28286938460E+04  0.28286938460E+04  0.50400000000E-02 0. -1.
    8880023    1    1    2    0    0 -0.28475832976E+03 -0.68433305829E+03 -0.24290707531E+04  0.26236604145E+04  0.65864270000E+03 0.  0.
    8880022    1    1    2    0    0  0.28475832976E+03  0.68433305829E+03  0.17132138094E+03  0.77597790536E+03  0.15294330000E+03 0.  0.
<mgrwt>
<rscale>  0 0.92681217E+03</rscale>
<asrwt>0</asrwt>
<pdfrwt beam="1">  1        1 0.43518366E+00 0.99156908E+03</pdfrwt>
<pdfrwt beam="2">  1       -1 0.87837613E-01 0.99156908E+03</pdfrwt>
<totfact> 0.10395418E+00</totfact>
</mgrwt>
</event>
<event>
 4    5  0.7176259E-008  0.7510123E+03  0.7818608E-02  0.9828957E-01
          1   -1    0    0  501    0  0.00000000000E+00  0.00000000000E+00  0.38037674500E+03  0.38037674503E+03  0.50400000000E-02 0. -1.
         -1   -1    0    0    0  501 -0.00000000000E+00 -0.00000000000E+00 -0.12634854840E+04  0.12634854840E+04  0.50400000000E-02 0.  1.
    8880023    1    1    2    0    0  0.34400496273E+03 -0.10894853900E+03 -0.86389704721E+02  0.75596467238E+03  0.65864270000E+03 0.  0.
    8880022    1    1    2    0    0 -0.34400496273E+03  0.10894853900E+03 -0.79671903426E+03  0.88789755664E+03  0.15294330000E+03 0.  0.
<mgrwt>
<rscale>  0 0.63831415E+03</rscale>
<asrwt>0</asrwt>
<pdfrwt beam="1">  1        1 0.58519500E-01 0.75101225E+03</pdfrwt>
<pdfrwt beam="2">  1       -1 0.19438238E+00 0.75101225E+03</pdfrwt>
<totfact> 0.10883908E+01</totfact>
</mgrwt>
</event>
<event>
 4    5  0.7176259E-008  0.6942126E+03  0.7818608E-02  0.1002211E+00
         -1   -1    0    0    0  501 -0.00000000000E+00  0.00000000000E+00  0.42578489690E+03  0.42578489693E+03  0.50400000000E-02 0.  1.
          1   -1    0    0  501    0  0.00000000000E+00 -0.00000000000E+00 -0.10136796667E+04  0.10136796667E+04  0.50400000000E-02 0. -1.
    8880023    1    1    2    0    0 -0.20543182669E+03  0.76933038989E+02 -0.82769021128E+03  0.10802787696E+04  0.65864270000E+03 0. -1.
    8880022    1    1    2    0    0  0.20543182669E+03 -0.76933038989E+02  0.23979544146E+03  0.35918579408E+03  0.15294330000E+03 0.  0.
<mgrwt>
<rscale>  0 0.54691165E+03</rscale>
<asrwt>0</asrwt>
<pdfrwt beam="1">  1        1 0.15595072E+00 0.69421260E+03</pdfrwt>
<pdfrwt beam="2">  1       -1 0.65505369E-01 0.69421260E+03</pdfrwt>
<totfact> 0.36012510E+01</totfact>
</mgrwt>
</event>
<event>
 4    5  0.7176259E-008  0.1514059E+04  0.7818608E-02  0.8899772E-01
          1   -1    0    0  501    0  0.00000000000E+00  0.00000000000E+00  0.29754907433E+04  0.29754907433E+04  0.50400000000E-02 0. -1.
         -1   -1    0    0    0  501 -0.00000000000E+00 -0.00000000000E+00 -0.13104354318E+04  0.13104354318E+04  0.50400000000E-02 0.  1.
    8880023    1    1    2    0    0  0.88290643338E+03 -0.10387683080E+04  0.23163863239E+04  0.27673126270E+04  0.65864270000E+03 0. -1.
    8880022    1    1    2    0    0 -0.88290643338E+03  0.10387683080E+04 -0.65133101234E+03  0.15186135481E+04  0.15294330000E+03 0.  0.
<mgrwt>
<rscale>  0 0.14771792E+04</rscale>
<asrwt>0</asrwt>
<pdfrwt beam="1">  1        1 0.45776781E+00 0.15140586E+04</pdfrwt>
<pdfrwt beam="2">  1       -1 0.20160545E+00 0.15140586E+04</pdfrwt>
<totfact> 0.86407502E-02</totfact>
</mgrwt>
</event>
<event>
 4    5  0.7176259E-008  0.1697389E+04  0.7818608E-02  0.8781527E-01
          1   -1    0    0  501    0  0.00000000000E+00  0.00000000000E+00  0.25888242018E+04  0.25888242018E+04  0.50400000000E-02 0. -1.
         -1   -1    0    0    0  501 -0.00000000000E+00 -0.00000000000E+00 -0.13566578837E+04  0.13566578837E+04  0.50400000000E-02 0.  1.
    8880023    1    1    2    0    0  0.13019977166E+04  0.86724937717E+03  0.15984056930E+04  0.23315296485E+04  0.65864270000E+03 0.  0.
    8880022    1    1    2    0    0 -0.13019977166E+04 -0.86724937717E+03 -0.36623937481E+03  0.16139524370E+04  0.15294330000E+03 0.  0.
<mgrwt>
<rscale>  0 0.16650942E+04</rscale>
<asrwt>0</asrwt>
<pdfrwt beam="1">  1        1 0.39828064E+00 0.16973891E+04</pdfrwt>
<pdfrwt beam="2">  1       -1 0.20871660E+00 0.16973891E+04</pdfrwt>
<totfact> 0.14230425E-01</totfact>
</mgrwt>
</event>
<event>
 4    5  0.7176259E-008  0.7868066E+03  0.7818608E-02  0.9740084E-01
          1   -1    0    0  501    0  0.00000000000E+00  0.00000000000E+00  0.32492005516E+04  0.32492005516E+04  0.50400000000E-02 0. -1.
         -1   -1    0    0    0  501 -0.00000000000E+00 -0.00000000000E+00 -0.13715583519E+03  0.13715583529E+03  0.50400000000E-02 0.  1.
    8880023    1    1    2    0    0 -0.36558903061E+03  0.22715431283E+03  0.13172135980E+04  0.15343129701E+04  0.65864270000E+03 0.  1.
    8880022    1    1    2    0    0  0.36558903061E+03 -0.22715431283E+03  0.17948311185E+04  0.18520434169E+04  0.15294330000E+03 0.  0.
<mgrwt>
<rscale>  0 0.68679523E+03</rscale>
<asrwt>0</asrwt>
<pdfrwt beam="1">  1        1 0.49987704E+00 0.78680660E+03</pdfrwt>
<pdfrwt beam="2">  1       -1 0.21100896E-01 0.78680660E+03</pdfrwt>
<totfact> 0.77508329E+00</totfact>
</mgrwt>
</event>
<event>
 4    5  0.7176259E-008  0.9709124E+03  0.7818608E-02  0.9420643E-01
         -1   -1    0    0    0  501 -0.00000000000E+00  0.00000000000E+00  0.11925824111E+04  0.11925824111E+04  0.50400000000E-02 0.  1.
          1   -1    0    0  501    0  0.00000000000E+00 -0.00000000000E+00 -0.76205313696E+03  0.76205313698E+03  0.50400000000E-02 0. -1.
    8880023    1    1    2    0    0  0.70444671379E+03  0.11231891485E+03 -0.19890787009E+03  0.99107782654E+03  0.65864270000E+03 0.  1.
    8880022    1    1    2    0    0 -0.70444671379E+03 -0.11231891485E+03  0.62943714420E+03  0.96355772153E+03  0.15294330000E+03 0.  0.
<mgrwt>
<rscale>  0 0.90396110E+03</rscale>
<asrwt>0</asrwt>
<pdfrwt beam="1">  1        1 0.11723894E+00 0.97091241E+03</pdfrwt>
<pdfrwt beam="2">  1       -1 0.18347422E+00 0.97091241E+03</pdfrwt>
<totfact> 0.47252810E+00</totfact>
</mgrwt>
</event>
<event>
 4    5  0.7176259E-008  0.1023589E+04  0.7818608E-02  0.9351326E-01
         -1   -1    0    0    0  501 -0.00000000000E+00  0.00000000000E+00  0.62838694798E+03  0.62838694800E+03  0.50400000000E-02 0.  1.
          1   -1    0    0  501    0  0.00000000000E+00 -0.00000000000E+00 -0.20268652252E+04  0.20268652252E+04  0.50400000000E-02 0. -1.
    8880023    1    1    2    0    0  0.49036777766E+03  0.61111707105E+03 -0.15353593873E+04  0.18452813569E+04  0.65864270000E+03 0. -1.
    8880022    1    1    2    0    0 -0.49036777766E+03 -0.61111707105E+03  0.13688111006E+03  0.80997081626E+03  0.15294330000E+03 0.  0.
<mgrwt>
<rscale>  0 0.96191932E+03</rscale>
<asrwt>0</asrwt>
<pdfrwt beam="1">  1        1 0.31182542E+00 0.10235892E+04</pdfrwt>
<pdfrwt beam="2">  1       -1 0.96674916E-01 0.10235892E+04</pdfrwt>
<totfact> 0.29656859E+00</totfact>
</mgrwt>
</event>
<event>
 4    5  0.7176259E-008  0.6720159E+03  0.7818608E-02  0.1014257E+00
          1   -1    0    0  501    0  0.00000000000E+00  0.00000000000E+00  0.74656641633E+03  0.74656641635E+03  0.50400000000E-02 0. -1.
         -1   -1    0    0    0  501 -0.00000000000E+00 -0.00000000000E+00 -0.15940490919E+04  0.15940490919E+04  0.50400000000E-02 0.  1.
    8880023    1    1    2    0    0  0.11545753865E+03  0.66818434373E+02  0.58673418249E+03  0.89211117780E+03  0.65864270000E+03 0. -1.
    8880022    1    1    2    0    0 -0.11545753865E+03 -0.66818434373E+02 -0.14342168580E+04  0.14485043304E+04  0.15294330000E+03 0.  0.
<mgrwt>
<rscale>  0 0.49817211E+03</rscale>
<asrwt>0</asrwt>
<pdfrwt beam="1">  1        1 0.11485637E+00 0.67201589E+03</pdfrwt>
<pdfrwt beam="2">  1       -1 0.24523832E+00 0.67201589E+03</pdfrwt>
<totfact> 0.19610806E+00</totfact>
</mgrwt>
</event>
<event>
 4    5  0.7176259E-008  0.1096337E+04  0.7818608E-02  0.9265145E-01
          1   -1    0    0  501    0  0.00000000000E+00  0.00000000000E+00  0.52093428362E+03  0.52093428364E+03  0.50400000000E-02 0. -1.
         -1   -1    0    0    0  501 -0.00000000000E+00 -0.00000000000E+00 -0.26183308549E+04  0.26183308549E+04  0.50400000000E-02 0.  1.
    8880023    1    1    2    0    0  0.26711360420E+03 -0.83474241826E+03 -0.30462062157E+03  0.11378701647E+04  0.65864270000E+03 0.  0.
    8880022    1    1    2    0    0 -0.26711360420E+03  0.83474241826E+03 -0.17927759497E+04  0.20013949738E+04  0.15294330000E+03 0.  0.
<mgrwt>
<rscale>  0 0.10405595E+04</rscale>
<asrwt>0</asrwt>
<pdfrwt beam="1">  1        1 0.80143737E-01 0.10963370E+04</pdfrwt>
<pdfrwt beam="2">  1       -1 0.40282013E+00 0.10963370E+04</pdfrwt>
<totfact> 0.28975974E-01</totfact>
</mgrwt>
</event>
<event>
 4    5  0.7176259E-008  0.1284433E+04  0.7818608E-02  0.9079121E-01
         -1   -1    0    0    0  501 -0.00000000000E+00  0.00000000000E+00  0.10296184055E+04  0.10296184055E+04  0.50400000000E-02 0.  1.
          1   -1    0    0  501    0  0.00000000000E+00 -0.00000000000E+00 -0.23476300167E+04  0.23476300167E+04  0.50400000000E-02 0. -1.
    8880023    1    1    2    0    0 -0.59151457250E+03  0.93062782390E+03 -0.17605199654E+04  0.21792655623E+04  0.65864270000E+03 0.  0.
    8880022    1    1    2    0    0  0.59151457250E+03 -0.93062782390E+03  0.44250835428E+03  0.11979828599E+04  0.15294330000E+03 0.  0.
<mgrwt>
<rscale>  0 0.12393181E+04</rscale>
<asrwt>0</asrwt>
<pdfrwt beam="1">  1        1 0.36117385E+00 0.12844329E+04</pdfrwt>
<pdfrwt beam="2">  1       -1 0.15840283E+00 0.12844329E+04</pdfrwt>
<totfact> 0.50515850E-01</totfact>
</mgrwt>
</event>
<event>
 4    5  0.7176259E-008  0.7541717E+03  0.7818608E-02  0.9820437E-01
          1   -1    0    0  501    0  0.00000000000E+00  0.00000000000E+00  0.30436881624E+04  0.30436881624E+04  0.50400000000E-02 0. -1.
         -1   -1    0    0    0  501 -0.00000000000E+00 -0.00000000000E+00 -0.22041160923E+03  0.22041160928E+03  0.50400000000E-02 0.  1.
    8880023    1    1    2    0    0  0.13313637092E+03 -0.34240241186E+03  0.27599703339E+04  0.28611555630E+04  0.65864270000E+03 0.  0.
    8880022    1    1    2    0    0 -0.13313637092E+03  0.34240241186E+03  0.63306219182E+02  0.40294420869E+03  0.15294330000E+03 0.  0.
<mgrwt>
<rscale>  0 0.64277222E+03</rscale>
<asrwt>0</asrwt>
<pdfrwt beam="1">  1        1 0.46825974E+00 0.75417167E+03</pdfrwt>
<pdfrwt beam="2">  1       -1 0.33909477E-01 0.75417167E+03</pdfrwt>
<totfact> 0.48700101E+00</totfact>
</mgrwt>
</event>
<event>
 4    5  0.8190154E-008  0.8445354E+03  0.7818608E-02  0.9621687E-01
          1   -1    0    0  501    0  0.00000000000E+00  0.00000000000E+00  0.17481883379E+04  0.17481883379E+04  0.50400000000E-02 0. -1.
         -1   -1    0    0    0  501 -0.00000000000E+00 -0.00000000000E+00 -0.10562674092E+04  0.10562674092E+04  0.50400000000E-02 0.  1.
    8880023    1    1    2    0    0 -0.13352723616E+03  0.51146873348E+03  0.15615759644E+04  0.17753195450E+04  0.65864270000E+03 0.  0.
    8880022    1    1    2    0    0  0.13352723616E+03 -0.51146873348E+03 -0.86965503575E+03  0.10291362020E+04  0.15294330000E+03 0.  0.
<mgrwt>
<rscale>  0 0.75877272E+03</rscale>
<asrwt>0</asrwt>
<pdfrwt beam="1">  1        1 0.26895205E+00 0.84453537E+03</pdfrwt>
<pdfrwt beam="2">  1       -1 0.16250268E+00 0.84453537E+03</pdfrwt>
<totfact> 0.12787397E+00</totfact>
</mgrwt>
</event>
<event>
 4    5  0.7176259E-008  0.8827031E+03  0.7818608E-02  0.9554389E-01
         -1   -1    0    0    0  501 -0.00000000000E+00  0.00000000000E+00  0.78156406212E+03  0.78156406214E+03  0.50400000000E-02 0.  1.
          1   -1    0    0  501    0  0.00000000000E+00 -0.00000000000E+00 -0.24082449551E+04  0.24082449551E+04  0.50400000000E-02 0. -1.
    8880023    1    1    2    0    0  0.58143171676E+03 -0.85391209340E+02 -0.21901946859E+04  0.23613804158E+04  0.65864270000E+03 0. -1.
    8880022    1    1    2    0    0 -0.58143171676E+03  0.85391209340E+02  0.56351379289E+03  0.82842860143E+03  0.15294330000E+03 0.  0.
<mgrwt>
<rscale>  0 0.80389979E+03</rscale>
<asrwt>0</asrwt>
<pdfrwt beam="1">  1        1 0.37049922E+00 0.88270307E+03</pdfrwt>
<pdfrwt beam="2">  1       -1 0.12024063E+00 0.88270307E+03</pdfrwt>
<totfact> 0.10022829E+00</totfact>
</mgrwt>
</event>
<event>
 4    5  0.7176259E-008  0.8869300E+03  0.7818608E-02  0.9547348E-01
          1   -1    0    0  501    0  0.00000000000E+00  0.00000000000E+00  0.19762964946E+04  0.19762964946E+04  0.50400000000E-02 0. -1.
         -1   -1    0    0    0  501 -0.00000000000E+00 -0.00000000000E+00 -0.75306777548E+03  0.75306777550E+03  0.50400000000E-02 0.  1.
    8880023    1    1    2    0    0  0.49198348692E+02  0.59195783360E+03  0.17231877432E+04  0.19380456029E+04  0.65864270000E+03 0. -1.
    8880022    1    1    2    0    0 -0.49198348692E+02 -0.59195783360E+03 -0.49995902410E+03  0.79131866720E+03  0.15294330000E+03 0.  0.
<mgrwt>
<rscale>  0 0.80881301E+03</rscale>
<asrwt>0</asrwt>
<pdfrwt beam="1">  1        1 0.30404562E+00 0.88692996E+03</pdfrwt>
<pdfrwt beam="2">  1       -1 0.11585658E+00 0.88692996E+03</pdfrwt>
<totfact> 0.21440330E+00</totfact>
</mgrwt>
</event>
<event>
 4    5  0.7176259E-008  0.8863057E+03  0.7818608E-02  0.9548383E-01
          1   -1    0    0  501    0  0.00000000000E+00  0.00000000000E+00  0.33266638066E+04  0.33266638066E+04  0.50400000000E-02 0. -1.
         -1   -1    0    0    0  501 -0.00000000000E+00 -0.00000000000E+00 -0.61775084618E+03  0.61775084621E+03  0.50400000000E-02 0.  1.
    8880023    1    1    2    0    0 -0.47902468371E+03 -0.34966124725E+03  0.30956729642E+04  0.32200510777E+04  0.65864270000E+03 0.  0.
    8880022    1    1    2    0    0  0.47902468371E+03  0.34966124725E+03 -0.38676000378E+03  0.72436357512E+03  0.15294330000E+03 0.  0.
<mgrwt>
<rscale>  0 0.80808834E+03</rscale>
<asrwt>0</asrwt>
<pdfrwt beam="1">  1        1 0.51179444E+00 0.88630573E+03</pdfrwt>
<pdfrwt beam="2">  1       -1 0.95038590E-01 0.88630573E+03</pdfrwt>
<totfact> 0.38588965E-01</totfact>
</mgrwt>
</event>
<event>
 4    5  0.7176259E-008  0.1060924E+04  0.7818608E-02  0.9305863E-01
          1   -1    0    0  501    0  0.00000000000E+00  0.00000000000E+00  0.36235673999E+04  0.36235673999E+04  0.50400000000E-02 0. -1.
         -1   -1    0    0    0  501 -0.00000000000E+00 -0.00000000000E+00 -0.30866509869E+03  0.30866509873E+03  0.50400000000E-02 0.  1.
    8880023    1    1    2    0    0  0.90503734422E+02 -0.82677614137E+03  0.26564126554E+04  0.28604349522E+04  0.65864270000E+03 0.  0.
    8880022    1    1    2    0    0 -0.90503734422E+02  0.82677614137E+03  0.65848964585E+03  0.10717975465E+04  0.15294330000E+03 0.  0.
<mgrwt>
<rscale>  0 0.10024488E+04</rscale>
<asrwt>0</asrwt>
<pdfrwt beam="1">  1        1 0.55747194E+00 0.10609241E+04</pdfrwt>
<pdfrwt beam="2">  1       -1 0.47486935E-01 0.10609241E+04</pdfrwt>
<totfact> 0.90983204E-01</totfact>
</mgrwt>
</event>
<event>
 4    5  0.7176259E-008  0.9676161E+03  0.7818608E-02  0.9425209E-01
          1   -1    0    0  501    0  0.00000000000E+00  0.00000000000E+00  0.18319004858E+04  0.18319004859E+04  0.50400000000E-02 0. -1.
         -1   -1    0    0    0  501 -0.00000000000E+00 -0.00000000000E+00 -0.51371542254E+03  0.51371542256E+03  0.50400000000E-02 0.  1.
    8880023    1    1    2    0    0 -0.55188771518E+03 -0.44484901838E+03  0.12995414640E+04  0.16202126164E+04  0.65864270000E+03 0.  0.
    8880022    1    1    2    0    0  0.55188771518E+03  0.44484901838E+03  0.18643599314E+02  0.72540329206E+03  0.15294330000E+03 0.  0.
<mgrwt>
<rscale>  0 0.90029808E+03</rscale>
<asrwt>0</asrwt>
<pdfrwt beam="1">  1        1 0.28183085E+00 0.96761609E+03</pdfrwt>
<pdfrwt beam="2">  1       -1 0.79033141E-01 0.96761609E+03</pdfrwt>
<totfact> 0.62870200E+00</totfact>
</mgrwt>
</event>
<event>
 4    5  0.7176259E-008  0.1706209E+04  0.7818608E-02  0.8776273E-01
          1   -1    0    0  501    0  0.00000000000E+00  0.00000000000E+00  0.20970565236E+04  0.20970565236E+04  0.50400000000E-02 0. -1.
         -1   -1    0    0    0  501 -0.00000000000E+00 -0.00000000000E+00 -0.16776096820E+04  0.16776096820E+04  0.50400000000E-02 0.  1.
    8880023    1    1    2    0    0 -0.24328839804E+03  0.15550403691E+04  0.11242918826E+04  0.20433262681E+04  0.65864270000E+03 0.  0.
    8880022    1    1    2    0    0  0.24328839804E+03 -0.15550403691E+04 -0.70484504109E+03  0.17313399375E+04  0.15294330000E+03 0.  0.
<mgrwt>
<rscale>  0 0.16741046E+04</rscale>
<asrwt>0</asrwt>
<pdfrwt beam="1">  1        1 0.32262408E+00 0.17062092E+04</pdfrwt>
<pdfrwt beam="2">  1       -1 0.25809380E+00 0.17062092E+04</pdfrwt>
<totfact> 0.14555614E-01</totfact>
</mgrwt>
</event>
<event>
 4    5  0.7176259E-008  0.1107665E+04  0.7818608E-02  0.9252569E-01
         -1   -1    0    0    0  501 -0.00000000000E+00  0.00000000000E+00  0.32556482998E+03  0.32556483002E+03  0.50400000000E-02 0.  1.
          1   -1    0    0  501    0  0.00000000000E+00 -0.00000000000E+00 -0.34909466757E+04  0.34909466757E+04  0.50400000000E-02 0. -1.
    8880023    1    1    2    0    0 -0.77599445809E+03 -0.43697240351E+03 -0.23560901849E+04  0.26034752632E+04  0.65864270000E+03 0.  0.
    8880022    1    1    2    0    0  0.77599445809E+03  0.43697240351E+03 -0.80929166082E+03  0.12130362425E+04  0.15294330000E+03 0.  0.
<mgrwt>
<rscale>  0 0.10526917E+04</rscale>
<asrwt>0</asrwt>
<pdfrwt beam="1">  1        1 0.53706869E+00 0.11076653E+04</pdfrwt>
<pdfrwt beam="2">  1       -1 0.50086899E-01 0.11076653E+04</pdfrwt>
<totfact> 0.10385626E+00</totfact>
</mgrwt>
</event>
<event>
 4    5  0.7176259E-008  0.1085892E+04  0.7818608E-02  0.9276929E-01
         -1   -1    0    0    0  501 -0.00000000000E+00  0.00000000000E+00  0.19567856614E+04  0.19567856614E+04  0.50400000000E-02 0.  1.
          1   -1    0    0  501    0  0.00000000000E+00 -0.00000000000E+00 -0.85442766815E+03  0.85442766817E+03  0.50400000000E-02 0. -1.
    8880023    1    1    2    0    0 -0.77412117143E+03  0.38221317323E+03 -0.32727188754E+03  0.11341373781E+04  0.65864270000E+03 0.  0.
    8880022    1    1    2    0    0  0.77412117143E+03 -0.38221317323E+03  0.14296298808E+04  0.16770759515E+04  0.15294330000E+03 0.  0.
<mgrwt>
<rscale>  0 0.10293486E+04</rscale>
<asrwt>0</asrwt>
<pdfrwt beam="1">  1        1 0.13145041E+00 0.10858917E+04</pdfrwt>
<pdfrwt beam="2">  1       -1 0.30104394E+00 0.10858917E+04</pdfrwt>
<totfact> 0.64651992E-01</totfact>
</mgrwt>
</event>
<event>
 4    5  0.7176259E-008  0.7248789E+03  0.7818608E-02  0.9906411E-01
         -1   -1    0    0    0  501 -0.00000000000E+00  0.00000000000E+00  0.13283615447E+04  0.13283615447E+04  0.50400000000E-02 0.  1.
          1   -1    0    0  501    0  0.00000000000E+00 -0.00000000000E+00 -0.61073210264E+03  0.61073210266E+03  0.50400000000E-02 0. -1.
    8880023    1    1    2    0    0  0.22509279371E+03 -0.20241635774E+03 -0.36000063213E+03  0.80935147436E+03  0.65864270000E+03 0. -1.
    8880022    1    1    2    0    0 -0.22509279371E+03  0.20241635774E+03  0.10776300742E+04  0.11297421730E+04  0.15294330000E+03 0.  0.
<mgrwt>
<rscale>  0 0.59951609E+03</rscale>
<asrwt>0</asrwt>
<pdfrwt beam="1">  1        1 0.93958787E-01 0.72487885E+03</pdfrwt>
<pdfrwt beam="2">  1       -1 0.20436331E+00 0.72487885E+03</pdfrwt>
<totfact> 0.48777436E+00</totfact>
</mgrwt>
</event>
<event>
 4    5  0.7176259E-008  0.6735104E+03  0.7818608E-02  0.1013262E+00
         -1   -1    0    0    0  501 -0.00000000000E+00  0.00000000000E+00  0.30710873815E+04  0.30710873815E+04  0.50400000000E-02 0.  1.
          1   -1    0    0  501    0  0.00000000000E+00 -0.00000000000E+00 -0.33343903330E+03  0.33343903334E+03  0.50400000000E-02 0. -1.
    8880023    1    1    2    0    0  0.14038667336E+03  0.98786320588E+01  0.14713665917E+02  0.67367106488E+03  0.65864270000E+03 0. -1.
    8880022    1    1    2    0    0 -0.14038667336E+03 -0.98786320588E+01  0.27229346823E+04  0.27308553499E+04  0.15294330000E+03 0.  0.
<mgrwt>
<rscale>  0 0.50198500E+03</rscale>
<asrwt>0</asrwt>
<pdfrwt beam="1">  1        1 0.51298312E-01 0.67351036E+03</pdfrwt>
<pdfrwt beam="2">  1       -1 0.47247499E+00 0.67351036E+03</pdfrwt>
<totfact> 0.18870117E-01</totfact>
</mgrwt>
</event>
<event>
 4    5  0.7176259E-008  0.9453588E+03  0.7818608E-02  0.9456823E-01
          1   -1    0    0  501    0  0.00000000000E+00  0.00000000000E+00  0.18992316073E+04  0.18992316074E+04  0.50400000000E-02 0. -1.
         -1   -1    0    0    0  501 -0.00000000000E+00 -0.00000000000E+00 -0.45109281707E+03  0.45109281710E+03  0.50400000000E-02 0.  1.
    8880023    1    1    2    0    0  0.11701880191E+03  0.66798176517E+03  0.13502265258E+04  0.16482763469E+04  0.65864270000E+03 0.  0.
    8880022    1    1    2    0    0 -0.11701880191E+03 -0.66798176517E+03  0.97912264478E+02  0.70204807752E+03  0.15294330000E+03 0.  0.
<mgrwt>
<rscale>  0 0.87543293E+03</rscale>
<asrwt>0</asrwt>
<pdfrwt beam="1">  1        1 0.29218948E+00 0.94535879E+03</pdfrwt>
<pdfrwt beam="2">  1       -1 0.69398894E-01 0.94535879E+03</pdfrwt>
<totfact> 0.74502326E+00</totfact>
</mgrwt>
</event>
<event>
 4    5  0.7176259E-008  0.6807820E+03  0.7818608E-02  0.1008885E+00
          1   -1    0    0  501    0  0.00000000000E+00  0.00000000000E+00  0.58257933481E+03  0.58257933483E+03  0.50400000000E-02 0. -1.
         -1   -1    0    0    0  501 -0.00000000000E+00 -0.00000000000E+00 -0.19577346832E+04  0.19577346832E+04  0.50400000000E-02 0.  1.
    8880023    1    1    2    0    0  0.52431159746E+02  0.16402696225E+03  0.37353212508E+03  0.77652451706E+03  0.65864270000E+03 0. -1.
    8880022    1    1    2    0    0 -0.52431159746E+02 -0.16402696225E+03 -0.17486874735E+04  0.17637895010E+04  0.15294330000E+03 0.  0.
<mgrwt>
<rscale>  0 0.51920291E+03</rscale>
<asrwt>0</asrwt>
<pdfrwt beam="1">  1        1 0.89627591E-01 0.68078196E+03</pdfrwt>
<pdfrwt beam="2">  1       -1 0.30118995E+00 0.68078196E+03</pdfrwt>
<totfact> 0.12397969E+00</totfact>
</mgrwt>
</event>
<event>
 4    5  0.7176259E-008  0.1041824E+04  0.7818608E-02  0.9328775E-01
         -1   -1    0    0    0  501 -0.00000000000E+00  0.00000000000E+00  0.16284432340E+04  0.16284432340E+04  0.50400000000E-02 0.  1.
          1   -1    0    0  501    0  0.00000000000E+00 -0.00000000000E+00 -0.53693981343E+03  0.53693981345E+03  0.50400000000E-02 0. -1.
    8880023    1    1    2    0    0 -0.36128111303E+03 -0.72184681660E+03  0.51841462103E+03  0.11636798507E+04  0.65864270000E+03 0.  0.
    8880022    1    1    2    0    0  0.36128111303E+03  0.72184681660E+03  0.57308879950E+03  0.10017031968E+04  0.15294330000E+03 0.  0.
<mgrwt>
<rscale>  0 0.98176374E+03</rscale>
<asrwt>0</asrwt>
<pdfrwt beam="1">  1        1 0.82606125E-01 0.10418239E+04</pdfrwt>
<pdfrwt beam="2">  1       -1 0.25052973E+00 0.10418239E+04</pdfrwt>
<totfact> 0.27854647E+00</totfact>
</mgrwt>
</event>
<event>
 4    5  0.7176259E-008  0.7708312E+03  0.7818608E-02  0.9777833E-01
         -1   -1    0    0    0  501 -0.00000000000E+00  0.00000000000E+00  0.93431019096E+03  0.93431019097E+03  0.50400000000E-02 0.  1.
          1   -1    0    0  501    0  0.00000000000E+00 -0.00000000000E+00 -0.86511328377E+03  0.86511328379E+03  0.50400000000E-02 0. -1.
    8880023    1    1    2    0    0  0.35020723159E+03 -0.19423022122E+03 -0.61902005478E+03  0.98861848980E+03  0.65864270000E+03 0. -1.
    8880022    1    1    2    0    0 -0.35020723159E+03  0.19423022122E+03  0.68821696196E+03  0.81080498496E+03  0.15294330000E+03 0.  0.
<mgrwt>
<rscale>  0 0.66565846E+03</rscale>
<asrwt>0</asrwt>
<pdfrwt beam="1">  1        1 0.13309435E+00 0.77083117E+03</pdfrwt>
<pdfrwt beam="2">  1       -1 0.14374003E+00 0.77083117E+03</pdfrwt>
<totfact> 0.78336466E+00</totfact>
</mgrwt>
</event>
<event>
 4    5  0.7176259E-008  0.1023470E+04  0.7818608E-02  0.9351476E-01
          1   -1    0    0  501    0  0.00000000000E+00  0.00000000000E+00  0.62352897062E+03  0.62352897064E+03  0.50400000000E-02 0. -1.
         -1   -1    0    0    0  501 -0.00000000000E+00 -0.00000000000E+00 -0.17780725907E+04  0.17780725907E+04  0.50400000000E-02 0.  1.
    8880023    1    1    2    0    0  0.71602268160E+03  0.31779337260E+03 -0.31680161883E+02  0.10239604226E+04  0.65864270000E+03 0. -1.
    8880022    1    1    2    0    0 -0.71602268160E+03 -0.31779337260E+03 -0.11228634582E+04  0.13776411387E+04  0.15294330000E+03 0.  0.
<mgrwt>
<rscale>  0 0.96178952E+03</rscale>
<asrwt>0</asrwt>
<pdfrwt beam="1">  1        1 0.95927535E-01 0.10234702E+04</pdfrwt>
<pdfrwt beam="2">  1       -1 0.27354963E+00 0.10234702E+04</pdfrwt>
<totfact> 0.15990249E+00</totfact>
</mgrwt>
</event>
<event>
 4    5  0.7176259E-008  0.1104499E+04  0.7818608E-02  0.9256063E-01
          1   -1    0    0  501    0  0.00000000000E+00  0.00000000000E+00  0.15942667321E+04  0.15942667321E+04  0.50400000000E-02 0. -1.
         -1   -1    0    0    0  501 -0.00000000000E+00 -0.00000000000E+00 -0.10636150618E+04  0.10636150618E+04  0.50400000000E-02 0.  1.
    8880023    1    1    2    0    0 -0.83382003741E+03  0.30141815441E+03 -0.56461832033E+03  0.12404486336E+04  0.65864270000E+03 0.  0.
    8880022    1    1    2    0    0  0.83382003741E+03 -0.30141815441E+03  0.10952699906E+04  0.14174331603E+04  0.15294330000E+03 0.  0.
<mgrwt>
<rscale>  0 0.10493038E+04</rscale>
<asrwt>0</asrwt>
<pdfrwt beam="1">  1        1 0.24527181E+00 0.11044994E+04</pdfrwt>
<pdfrwt beam="2">  1       -1 0.16363309E+00 0.11044994E+04</pdfrwt>
<totfact> 0.15331843E+00</totfact>
</mgrwt>
</event>
<event>
 4    5  0.7176259E-008  0.1385026E+04  0.7818608E-02  0.8995406E-01
         -1   -1    0    0    0  501 -0.00000000000E+00  0.00000000000E+00  0.21253658484E+04  0.21253658484E+04  0.50400000000E-02 0.  1.
          1   -1    0    0  501    0  0.00000000000E+00 -0.00000000000E+00 -0.15591424203E+04  0.15591424203E+04  0.50400000000E-02 0. -1.
    8880023    1    1    2    0    0 -0.11373969061E+04 -0.43682259613E+03 -0.98977415237E+03  0.17023362716E+04  0.65864270000E+03 0.  0.
    8880022    1    1    2    0    0  0.11373969061E+04  0.43682259613E+03  0.15559975806E+04  0.19821719971E+04  0.15294330000E+03 0.  0.
<mgrwt>
<rscale>  0 0.13439685E+04</rscale>
<asrwt>0</asrwt>
<pdfrwt beam="1">  1        1 0.23986806E+00 0.13850256E+04</pdfrwt>
<pdfrwt beam="2">  1       -1 0.32697936E+00 0.13850256E+04</pdfrwt>
<totfact> 0.12592174E-01</totfact>
</mgrwt>
</event>
<event>
 4    5  0.7176259E-008  0.6886266E+03  0.7818608E-02  0.1004812E+00
          1   -1    0    0  501    0  0.00000000000E+00  0.00000000000E+00  0.93925071784E+03  0.93925071785E+03  0.50400000000E-02 0. -1.
         -1   -1    0    0    0  501 -0.00000000000E+00 -0.00000000000E+00 -0.94054096784E+03  0.94054096786E+03  0.50400000000E-02 0.  1.
    8880023    1    1    2    0    0  0.54972772821E+02 -0.19332447323E+03  0.79068628942E+03  0.10485186561E+04  0.65864270000E+03 0. -1.
    8880022    1    1    2    0    0 -0.54972772821E+02  0.19332447323E+03 -0.79197653942E+03  0.83127302958E+03  0.15294330000E+03 0.  0.
<mgrwt>
<rscale>  0 0.53589563E+03</rscale>
<asrwt>0</asrwt>
<pdfrwt beam="1">  1        1 0.14450011E+00 0.68862658E+03</pdfrwt>
<pdfrwt beam="2">  1       -1 0.14469861E+00 0.68862658E+03</pdfrwt>
<totfact> 0.67823886E+00</totfact>
</mgrwt>
</event>
<event>
 4    5  0.7176259E-008  0.9055866E+03  0.7818608E-02  0.9517122E-01
          1   -1    0    0  501    0  0.00000000000E+00  0.00000000000E+00  0.13740634881E+04  0.13740634881E+04  0.50400000000E-02 0. -1.
         -1   -1    0    0    0  501 -0.00000000000E+00 -0.00000000000E+00 -0.20991068254E+04  0.20991068254E+04  0.50400000000E-02 0.  1.
    8880023    1    1    2    0    0 -0.25683835103E+03 -0.56596013766E+03  0.11662209245E+04  0.14765359010E+04  0.65864270000E+03 0. -1.
    8880022    1    1    2    0    0  0.25683835103E+03  0.56596013766E+03 -0.18912642618E+04  0.19966344125E+04  0.15294330000E+03 0.  0.
<mgrwt>
<rscale>  0 0.83033156E+03</rscale>
<asrwt>0</asrwt>
<pdfrwt beam="1">  1        1 0.21139438E+00 0.90558656E+03</pdfrwt>
<pdfrwt beam="2">  1       -1 0.32293951E+00 0.90558656E+03</pdfrwt>
<totfact> 0.19473715E-01</totfact>
</mgrwt>
</event>
<event>
 4    5  0.7176259E-008  0.8696964E+03  0.7818608E-02  0.9576543E-01
          1   -1    0    0  501    0  0.00000000000E+00  0.00000000000E+00  0.66649074588E+03  0.66649074590E+03  0.50400000000E-02 0. -1.
         -1   -1    0    0    0  501 -0.00000000000E+00 -0.00000000000E+00 -0.25190712414E+04  0.25190712414E+04  0.50400000000E-02 0.  1.
    8880023    1    1    2    0    0 -0.55117890892E+03 -0.13697985066E+03  0.32614486569E+03  0.92883924809E+03  0.65864270000E+03 0. -1.
    8880022    1    1    2    0    0  0.55117890892E+03  0.13697985066E+03 -0.21787253612E+04  0.22567227392E+04  0.15294330000E+03 0.  0.
<mgrwt>
<rscale>  0 0.78868386E+03</rscale>
<asrwt>0</asrwt>
<pdfrwt beam="1">  1        1 0.10253704E+00 0.86969643E+03</pdfrwt>
<pdfrwt beam="2">  1       -1 0.38754942E+00 0.86969643E+03</pdfrwt>
<totfact> 0.26750390E-01</totfact>
</mgrwt>
</event>
<event>
 4    5  0.7176259E-008  0.7678264E+03  0.7818608E-02  0.9785251E-01
          1   -1    0    0  501    0  0.00000000000E+00  0.00000000000E+00  0.26294230410E+03  0.26294230414E+03  0.50400000000E-02 0. -1.
         -1   -1    0    0    0  501 -0.00000000000E+00 -0.00000000000E+00 -0.16746902651E+04  0.16746902651E+04  0.50400000000E-02 0.  1.
    8880023    1    1    2    0    0  0.38939323253E+03  0.64187955872E+02 -0.45764802559E+03  0.89386749847E+03  0.65864270000E+03 0. -1.
    8880022    1    1    2    0    0 -0.38939323253E+03 -0.64187955872E+02 -0.95409993538E+03  0.10437650708E+04  0.15294330000E+03 0.  1.
<mgrwt>
<rscale>  0 0.66160077E+03</rscale>
<asrwt>0</asrwt>
<pdfrwt beam="1">  1        1 0.40452663E-01 0.76782641E+03</pdfrwt>
<pdfrwt beam="2">  1       -1 0.25764465E+00 0.76782641E+03</pdfrwt>
<totfact> 0.67037066E+00</totfact>
</mgrwt>
</event>
<event>
 4    5  0.7176259E-008  0.1345826E+04  0.7818608E-02  0.9026963E-01
          1   -1    0    0  501    0  0.00000000000E+00  0.00000000000E+00  0.25908369572E+04  0.25908369572E+04  0.50400000000E-02 0. -1.
         -1   -1    0    0    0  501 -0.00000000000E+00 -0.00000000000E+00 -0.62407898168E+03  0.62407898170E+03  0.50400000000E-02 0.  1.
    8880023    1    1    2    0    0  0.10996863345E+04 -0.41003488714E+03  0.12123363139E+04  0.18113553454E+04  0.65864270000E+03 0. -1.
    8880022    1    1    2    0    0 -0.10996863345E+04  0.41003488714E+03  0.75442166159E+03  0.14035605935E+04  0.15294330000E+03 0.  0.
<mgrwt>
<rscale>  0 0.13032868E+04</rscale>
<asrwt>0</asrwt>
<pdfrwt beam="1">  1        1 0.39859029E+00 0.13458265E+04</pdfrwt>
<pdfrwt beam="2">  1       -1 0.96012153E-01 0.13458265E+04</pdfrwt>
<totfact> 0.11924544E+00</totfact>
</mgrwt>
</event>
<event>
 4    5  0.7176259E-008  0.8743561E+03  0.7818608E-02  0.9568520E-01
         -1   -1    0    0    0  501 -0.00000000000E+00  0.00000000000E+00  0.12209791501E+04  0.12209791502E+04  0.50400000000E-02 0.  1.
          1   -1    0    0  501    0  0.00000000000E+00 -0.00000000000E+00 -0.85661713776E+03  0.85661713777E+03  0.50400000000E-02 0. -1.
    8880023    1    1    2    0    0  0.29421381266E+03 -0.49409176174E+03 -0.51580254328E+03  0.10151605324E+04  0.65864270000E+03 0.  0.
    8880022    1    1    2    0    0 -0.29421381266E+03  0.49409176174E+03  0.88016455567E+03  0.10624357555E+04  0.15294330000E+03 0.  0.
<mgrwt>
<rscale>  0 0.79415259E+03</rscale>
<asrwt>0</asrwt>
<pdfrwt beam="1">  1        1 0.13178725E+00 0.87435613E+03</pdfrwt>
<pdfrwt beam="2">  1       -1 0.18784295E+00 0.87435613E+03</pdfrwt>
<totfact> 0.36884079E+00</totfact>
</mgrwt>
</event>
<event>
 4    5  0.7176259E-008  0.1549563E+04  0.7818608E-02  0.8875408E-01
         -1   -1    0    0    0  501 -0.00000000000E+00  0.00000000000E+00  0.20566089764E+04  0.20566089764E+04  0.50400000000E-02 0.  1.
          1   -1    0    0  501    0  0.00000000000E+00 -0.00000000000E+00 -0.11177429423E+04  0.11177429423E+04  0.50400000000E-02 0. -1.
    8880023    1    1    2    0    0  0.38681500192E+03 -0.13482249028E+04  0.14731354005E+03  0.15565499412E+04  0.65864270000E+03 0.  0.
    8880022    1    1    2    0    0 -0.38681500192E+03  0.13482249028E+04  0.79155249411E+03  0.16178019774E+04  0.15294330000E+03 0.  0.
<mgrwt>
<rscale>  0 0.15136779E+04</rscale>
<asrwt>0</asrwt>
<pdfrwt beam="1">  1        1 0.17196045E+00 0.15495633E+04</pdfrwt>
<pdfrwt beam="2">  1       -1 0.31640138E+00 0.15495633E+04</pdfrwt>
<totfact> 0.30014842E-01</totfact>
</mgrwt>
</event>
<event>
 4    5  0.7176259E-008  0.8772358E+03  0.7818608E-02  0.9563611E-01
          1   -1    0    0  501    0  0.00000000000E+00  0.00000000000E+00  0.15016636307E+04  0.15016636307E+04  0.50400000000E-02 0. -1.
         -1   -1    0    0    0  501 -0.00000000000E+00 -0.00000000000E+00 -0.79007592087E+03  0.79007592089E+03  0.50400000000E-02 0.  1.
    8880023    1    1    2    0    0 -0.89692455740E+02 -0.57244006703E+03  0.12222018996E+04  0.15044334670E+04  0.65864270000E+03 0.  0.
    8880022    1    1    2    0    0  0.89692455740E+02  0.57244006703E+03 -0.51061418981E+03  0.78730608457E+03  0.15294330000E+03 0.  0.
<mgrwt>
<rscale>  0 0.79752224E+03</rscale>
<asrwt>0</asrwt>
<pdfrwt beam="1">  1        1 0.23102517E+00 0.87723576E+03</pdfrwt>
<pdfrwt beam="2">  1       -1 0.12155014E+00 0.87723576E+03</pdfrwt>
<totfact> 0.40006093E+00</totfact>
</mgrwt>
</event>
<event>
 4    5  0.7932567E-008  0.7956813E+03  0.7818608E-02  0.9720213E-01
          1   -1    0    0  501    0  0.00000000000E+00  0.00000000000E+00  0.21008820809E+04  0.21008820810E+04  0.50400000000E-02 0. -1.
         -1   -1    0    0    0  501 -0.00000000000E+00 -0.00000000000E+00 -0.88418234093E+03  0.88418234095E+03  0.50400000000E-02 0.  1.
    8880023    1    1    2    0    0  0.44642830344E+03  0.49556834462E+00  0.19539350797E+04  0.21097324422E+04  0.65864270000E+03 0. -1.
    8880022    1    1    2    0    0 -0.44642830344E+03 -0.49556834462E+00 -0.73723533965E+03  0.87533197974E+03  0.15294330000E+03 0.  0.
<mgrwt>
<rscale>  0 0.69825969E+03</rscale>
<asrwt>0</asrwt>
<pdfrwt beam="1">  1        1 0.32321263E+00 0.79568127E+03</pdfrwt>
<pdfrwt beam="2">  1       -1 0.13602805E+00 0.79568127E+03</pdfrwt>
<totfact> 0.12062285E+00</totfact>
</mgrwt>
</event>
<event>
 4    5  0.7176259E-008  0.6603708E+03  0.7818608E-02  0.1023780E+00
          1   -1    0    0  501    0  0.00000000000E+00  0.00000000000E+00  0.88823493974E+03  0.88823493975E+03  0.50400000000E-02 0. -1.
         -1   -1    0    0    0  501 -0.00000000000E+00 -0.00000000000E+00 -0.43731543723E+03  0.43731543726E+03  0.50400000000E-02 0.  1.
    8880023    1    1    2    0    0 -0.15254626853E+01  0.47718138165E+02  0.74198939134E+03  0.99329643655E+03  0.65864270000E+03 0. -1.
    8880022    1    1    2    0    0  0.15254626853E+01 -0.47718138165E+02 -0.29106988883E+03  0.33225394045E+03  0.15294330000E+03 0.  0.
<mgrwt>
<rscale>  0 0.46346958E+03</rscale>
<asrwt>0</asrwt>
<pdfrwt beam="1">  1        1 0.13665153E+00 0.66037077E+03</pdfrwt>
<pdfrwt beam="2">  1       -1 0.67279298E-01 0.66037077E+03</pdfrwt>
<totfact> 0.43053617E+01</totfact>
</mgrwt>
</event>
<event>
 4    5  0.7176259E-008  0.9009942E+03  0.7818608E-02  0.9524437E-01
         -1   -1    0    0    0  501 -0.00000000000E+00  0.00000000000E+00  0.31765275136E+03  0.31765275140E+03  0.50400000000E-02 0.  1.
          1   -1    0    0  501    0  0.00000000000E+00 -0.00000000000E+00 -0.19443248830E+04  0.19443248830E+04  0.50400000000E-02 0. -1.
    8880023    1    1    2    0    0 -0.15506409021E+03 -0.59492480925E+03 -0.70728086378E+03  0.11454417608E+04  0.65864270000E+03 0. -1.
    8880022    1    1    2    0    0  0.15506409021E+03  0.59492480925E+03 -0.91939126784E+03  0.11165358736E+04  0.15294330000E+03 0.  1.
<mgrwt>
<rscale>  0 0.82505880E+03</rscale>
<asrwt>0</asrwt>
<pdfrwt beam="1">  1        1 0.29912690E+00 0.90099423E+03</pdfrwt>
<pdfrwt beam="2">  1       -1 0.48869655E-01 0.90099423E+03</pdfrwt>
<totfact> 0.13925975E+01</totfact>
</mgrwt>
</event>
<event>
 4    5  0.7176259E-008  0.7070822E+03  0.7818608E-02  0.9969000E-01
         -1   -1    0    0    0  501 -0.00000000000E+00  0.00000000000E+00  0.12913330389E+04  0.12913330389E+04  0.50400000000E-02 0.  1.
          1   -1    0    0  501    0  0.00000000000E+00 -0.00000000000E+00 -0.14080093749E+04  0.14080093749E+04  0.50400000000E-02 0. -1.
    8880023    1    1    2    0    0  0.17153140454E+03 -0.19165595377E+03 -0.12994128543E+04  0.14793373515E+04  0.65864270000E+03 0. -1.
    8880022    1    1    2    0    0 -0.17153140454E+03  0.19165595377E+03  0.11827365183E+04  0.12200050623E+04  0.15294330000E+03 0.  0.
<mgrwt>
<rscale>  0 0.57030688E+03</rscale>
<asrwt>0</asrwt>
<pdfrwt beam="1">  1        1 0.21661683E+00 0.70708220E+03</pdfrwt>
<pdfrwt beam="2">  1       -1 0.19866662E+00 0.70708220E+03</pdfrwt>
<totfact> 0.12356865E+00</totfact>
</mgrwt>
</event>
<event>
 4    5  0.7176259E-008  0.7074159E+03  0.7818608E-02  0.9967725E-01
         -1   -1    0    0    0  501 -0.00000000000E+00  0.00000000000E+00  0.70045301355E+03  0.70045301357E+03  0.50400000000E-02 0.  1.
          1   -1    0    0  501    0  0.00000000000E+00 -0.00000000000E+00 -0.87493486613E+03  0.87493486615E+03  0.50400000000E-02 0. -1.
    8880023    1    1    2    0    0  0.11628109928E+03  0.23044672062E+03 -0.68404882231E+03  0.98405283530E+03  0.65864270000E+03 0. -1.
    8880022    1    1    2    0    0 -0.11628109928E+03 -0.23044672062E+03  0.50956696973E+03  0.59133504441E+03  0.15294330000E+03 0.  0.
<mgrwt>
<rscale>  0 0.57088370E+03</rscale>
<asrwt>0</asrwt>
<pdfrwt beam="1">  1        1 0.13460536E+00 0.70741585E+03</pdfrwt>
<pdfrwt beam="2">  1       -1 0.10776200E+00 0.70741585E+03</pdfrwt>
<totfact> 0.15823326E+01</totfact>
</mgrwt>
</event>
<event>
 4    5  0.7176259E-008  0.1488018E+04  0.7818608E-02  0.8918143E-01
          1   -1    0    0  501    0  0.00000000000E+00  0.00000000000E+00  0.18418410464E+04  0.18418410464E+04  0.50400000000E-02 0. -1.
         -1   -1    0    0    0  501 -0.00000000000E+00 -0.00000000000E+00 -0.11755775953E+04  0.11755775953E+04  0.50400000000E-02 0.  1.
    8880023    1    1    2    0    0  0.48157054148E+03  0.12443782845E+04  0.76044914616E+03  0.16710716955E+04  0.65864270000E+03 0. -1.
    8880022    1    1    2    0    0 -0.48157054148E+03 -0.12443782845E+04 -0.94185695000E+02  0.13463469462E+04  0.15294330000E+03 0.  0.
<mgrwt>
<rscale>  0 0.14503709E+04</rscale>
<asrwt>0</asrwt>
<pdfrwt beam="1">  1        1 0.28336016E+00 0.14880180E+04</pdfrwt>
<pdfrwt beam="2">  1       -1 0.18085809E+00 0.14880180E+04</pdfrwt>
<totfact> 0.74257743E-01</totfact>
</mgrwt>
</event>
<event>
 4    5  0.7176259E-008  0.1020865E+04  0.7818608E-02  0.9354754E-01
         -1   -1    0    0    0  501 -0.00000000000E+00  0.00000000000E+00  0.44327684977E+03  0.44327684980E+03  0.50400000000E-02 0.  1.
          1   -1    0    0  501    0  0.00000000000E+00 -0.00000000000E+00 -0.24286617901E+04  0.24286617901E+04  0.50400000000E-02 0. -1.
    8880023    1    1    2    0    0  0.59673690270E+03 -0.50225592834E+03 -0.17784414554E+04  0.20506145823E+04  0.65864270000E+03 0.  0.
    8880022    1    1    2    0    0 -0.59673690270E+03  0.50225592834E+03 -0.20694348490E+03  0.82132405758E+03  0.15294330000E+03 0.  0.
<mgrwt>
<rscale>  0 0.95894635E+03</rscale>
<asrwt>0</asrwt>
<pdfrwt beam="1">  1        1 0.37364027E+00 0.10208654E+04</pdfrwt>
<pdfrwt beam="2">  1       -1 0.68196439E-01 0.10208654E+04</pdfrwt>
<totfact> 0.33528664E+00</totfact>
</mgrwt>
</event>
<event>
 4    5  0.7176259E-008  0.7907467E+03  0.7818608E-02  0.9731173E-01
          1   -1    0    0  501    0  0.00000000000E+00  0.00000000000E+00  0.40309690917E+04  0.40309690917E+04  0.50400000000E-02 0. -1.
         -1   -1    0    0    0  501 -0.00000000000E+00 -0.00000000000E+00 -0.14261313398E+03  0.14261313407E+03  0.50400000000E-02 0.  1.
    8880023    1    1    2    0    0  0.12383105295E+03  0.41968552498E+03  0.34363181623E+04  0.35261257476E+04  0.65864270000E+03 0.  0.
    8880022    1    1    2    0    0 -0.12383105295E+03 -0.41968552498E+03  0.45203779546E+03  0.64745647814E+03  0.15294330000E+03 0.  0.
<mgrwt>
<rscale>  0 0.69190729E+03</rscale>
<asrwt>0</asrwt>
<pdfrwt beam="1">  1        1 0.62014916E+00 0.79074666E+03</pdfrwt>
<pdfrwt beam="2">  1       -1 0.21940480E-01 0.79074666E+03</pdfrwt>
<totfact> 0.17218316E+00</totfact>
</mgrwt>
</event>
<event>
 4    5  0.7176259E-008  0.8036698E+03  0.7818608E-02  0.9702917E-01
          1   -1    0    0  501    0  0.00000000000E+00  0.00000000000E+00  0.11744963022E+04  0.11744963022E+04  0.50400000000E-02 0. -1.
         -1   -1    0    0    0  501 -0.00000000000E+00 -0.00000000000E+00 -0.82444120440E+03  0.82444120442E+03  0.50400000000E-02 0.  1.
    8880023    1    1    2    0    0 -0.43437576265E+03 -0.15294675933E+03  0.93891711818E+03  0.12359007142E+04  0.65864270000E+03 0. -1.
    8880022    1    1    2    0    0  0.43437576265E+03  0.15294675933E+03 -0.58886202042E+03  0.76303679235E+03  0.15294330000E+03 0.  0.
<mgrwt>
<rscale>  0 0.70843406E+03</rscale>
<asrwt>0</asrwt>
<pdfrwt beam="1">  1        1 0.18069174E+00 0.80366985E+03</pdfrwt>
<pdfrwt beam="2">  1       -1 0.12683711E+00 0.80366985E+03</pdfrwt>
<totfact> 0.61920924E+00</totfact>
</mgrwt>
</event>
<event>
 4    5  0.7176259E-008  0.1652115E+04  0.7818608E-02  0.8809078E-01
          1   -1    0    0  501    0  0.00000000000E+00  0.00000000000E+00  0.10766338001E+04  0.10766338002E+04  0.50400000000E-02 0. -1.
         -1   -1    0    0    0  501 -0.00000000000E+00 -0.00000000000E+00 -0.29205140993E+04  0.29205140993E+04  0.50400000000E-02 0.  1.
    8880023    1    1    2    0    0 -0.27276421353E+03 -0.14903939887E+04 -0.18419198386E+04  0.24742985786E+04  0.65864270000E+03 0.  0.
    8880022    1    1    2    0    0  0.27276421353E+03  0.14903939887E+04 -0.19604606217E+01  0.15228493209E+04  0.15294330000E+03 0.  0.
<mgrwt>
<rscale>  0 0.16188045E+04</rscale>
<asrwt>0</asrwt>
<pdfrwt beam="1">  1        1 0.16563597E+00 0.16521152E+04</pdfrwt>
<pdfrwt beam="2">  1       -1 0.44930986E+00 0.16521152E+04</pdfrwt>
<totfact> 0.40302603E-02</totfact>
</mgrwt>
</event>
<event>
 4    5  0.7176259E-008  0.7472114E+03  0.7818608E-02  0.9839418E-01
         -1   -1    0    0    0  501 -0.00000000000E+00  0.00000000000E+00  0.13705009250E+04  0.13705009251E+04  0.50400000000E-02 0.  1.
          1   -1    0    0  501    0  0.00000000000E+00 -0.00000000000E+00 -0.10680611704E+04  0.10680611704E+04  0.50400000000E-02 0. -1.
    8880023    1    1    2    0    0 -0.85216434770E+02  0.34242209802E+03 -0.90369359142E+03  0.11725984169E+04  0.65864270000E+03 0.  0.
    8880022    1    1    2    0    0  0.85216434770E+02 -0.34242209802E+03  0.12061333460E+04  0.12659636786E+04  0.15294330000E+03 0.  0.
<mgrwt>
<rscale>  0 0.63289403E+03</rscale>
<asrwt>0</asrwt>
<pdfrwt beam="1">  1        1 0.16431710E+00 0.74721144E+03</pdfrwt>
<pdfrwt beam="2">  1       -1 0.21084630E+00 0.74721144E+03</pdfrwt>
<totfact> 0.17791881E+00</totfact>
</mgrwt>
</event>
<event>
 4    5  0.7176259E-008  0.7058837E+03  0.7818608E-02  0.9973616E-01
         -1   -1    0    0    0  501 -0.00000000000E+00  0.00000000000E+00  0.81026340888E+03  0.81026340890E+03  0.50400000000E-02 0.  1.
          1   -1    0    0  501    0  0.00000000000E+00 -0.00000000000E+00 -0.10393009871E+04  0.10393009871E+04  0.50400000000E-02 0. -1.
    8880023    1    1    2    0    0  0.13961191035E+03 -0.21206153729E+03 -0.88364880875E+03  0.11309761291E+04  0.65864270000E+03 0. -1.
    8880022    1    1    2    0    0 -0.13961191035E+03  0.21206153729E+03  0.65461123057E+03  0.71858826689E+03  0.15294330000E+03 0.  0.
<mgrwt>
<rscale>  0 0.56822401E+03</rscale>
<asrwt>0</asrwt>
<pdfrwt beam="1">  1        1 0.15989246E+00 0.70588369E+03</pdfrwt>
<pdfrwt beam="2">  1       -1 0.12465591E+00 0.70588369E+03</pdfrwt>
<totfact> 0.82713045E+00</totfact>
</mgrwt>
</event>
<event>
 4    5  0.7176259E-008  0.6668744E+03  0.7818608E-02  0.1018010E+00
         -1   -1    0    0    0  501 -0.00000000000E+00  0.00000000000E+00  0.45339695456E+03  0.45339695459E+03  0.50400000000E-02 0.  1.
          1   -1    0    0  501    0  0.00000000000E+00 -0.00000000000E+00 -0.12645601972E+04  0.12645601972E+04  0.50400000000E-02 0. -1.
    8880023    1    1    2    0    0  0.55645790222E+02  0.88401331110E+02 -0.11513977963E+04  0.13305781980E+04  0.65864270000E+03 0.  0.
    8880022    1    1    2    0    0 -0.55645790222E+02 -0.88401331110E+02  0.34023455369E+03  0.38737895381E+03  0.15294330000E+03 0.  1.
<mgrwt>
<rscale>  0 0.48411595E+03</rscale>
<asrwt>0</asrwt>
<pdfrwt beam="1">  1        1 0.19454772E+00 0.66687439E+03</pdfrwt>
<pdfrwt beam="2">  1       -1 0.69753378E-01 0.66687439E+03</pdfrwt>
<totfact> 0.20796709E+01</totfact>
</mgrwt>
</event>
<event>
 4    5  0.7176259E-008  0.1025102E+04  0.7818608E-02  0.9349430E-01
         -1   -1    0    0    0  501 -0.00000000000E+00  0.00000000000E+00  0.54855295327E+03  0.54855295329E+03  0.50400000000E-02 0.  1.
          1   -1    0    0  501    0  0.00000000000E+00 -0.00000000000E+00 -0.26641036649E+04  0.26641036649E+04  0.50400000000E-02 0. -1.
    8880023    1    1    2    0    0 -0.19113269956E+03  0.76189977039E+03 -0.21808282049E+04  0.24097395782E+04  0.65864270000E+03 0.  0.
    8880022    1    1    2    0    0  0.19113269956E+03 -0.76189977039E+03  0.65277493324E+02  0.80291704000E+03  0.15294330000E+03 0.  0.
<mgrwt>
<rscale>  0 0.96356900E+03</rscale>
<asrwt>0</asrwt>
<pdfrwt beam="1">  1        1 0.40986210E+00 0.10251015E+04</pdfrwt>
<pdfrwt beam="2">  1       -1 0.84392763E-01 0.10251015E+04</pdfrwt>
<totfact> 0.14721543E+00</totfact>
</mgrwt>
</event>
<event>
 4    5  0.7176259E-008  0.1077855E+04  0.7818608E-02  0.9286122E-01
          1   -1    0    0  501    0  0.00000000000E+00  0.00000000000E+00  0.38007435147E+04  0.38007435147E+04  0.50400000000E-02 0. -1.
         -1   -1    0    0    0  501 -0.00000000000E+00 -0.00000000000E+00 -0.27183787986E+03  0.27183787990E+03  0.50400000000E-02 0.  1.
    8880023    1    1    2    0    0  0.25114469303E+03 -0.81540605844E+03  0.25299415470E+04  0.27499772971E+04  0.65864270000E+03 0.  0.
    8880022    1    1    2    0    0 -0.25114469303E+03  0.81540605844E+03  0.99896408783E+03  0.13226040975E+04  0.15294330000E+03 0.  0.
<mgrwt>
<rscale>  0 0.10207059E+04</rscale>
<asrwt>0</asrwt>
<pdfrwt beam="1">  1        1 0.58472970E+00 0.10778548E+04</pdfrwt>
<pdfrwt beam="2">  1       -1 0.41821218E-01 0.10778548E+04</pdfrwt>
<totfact> 0.82580034E-01</totfact>
</mgrwt>
</event>
<event>
 4    5  0.7176259E-008  0.1081979E+04  0.7818608E-02  0.9281390E-01
          1   -1    0    0  501    0  0.00000000000E+00  0.00000000000E+00  0.27530072748E+04  0.27530072748E+04  0.50400000000E-02 0. -1.
         -1   -1    0    0    0  501 -0.00000000000E+00 -0.00000000000E+00 -0.42336693263E+03  0.42336693266E+03  0.50400000000E-02 0.  1.
    8880023    1    1    2    0    0  0.81415961288E+03 -0.27205269315E+03  0.19400469990E+04  0.22213646948E+04  0.65864270000E+03 0.  0.
    8880022    1    1    2    0    0 -0.81415961288E+03  0.27205269315E+03  0.38959334322E+03  0.95500951262E+03  0.15294330000E+03 0.  0.
<mgrwt>
<rscale>  0 0.10251430E+04</rscale>
<asrwt>0</asrwt>
<pdfrwt beam="1">  1        1 0.42353958E+00 0.10819791E+04</pdfrwt>
<pdfrwt beam="2">  1       -1 0.65133374E-01 0.10819791E+04</pdfrwt>
<totfact> 0.21756577E+00</totfact>
</mgrwt>
</event>
<event>
 4    5  0.7176259E-008  0.7890774E+03  0.7818608E-02  0.9734930E-01
          1   -1    0    0  501    0  0.00000000000E+00  0.00000000000E+00  0.10384699463E+04  0.10384699463E+04  0.50400000000E-02 0. -1.
         -1   -1    0    0    0  501 -0.00000000000E+00 -0.00000000000E+00 -0.16732296235E+04  0.16732296235E+04  0.50400000000E-02 0.  1.
    8880023    1    1    2    0    0  0.28205292813E+03  0.33057396782E+03  0.84840662749E+03  0.11586358420E+04  0.65864270000E+03 0. -1.
    8880022    1    1    2    0    0 -0.28205292813E+03 -0.33057396782E+03 -0.14831663046E+04  0.15530637278E+04  0.15294330000E+03 0.  0.
<mgrwt>
<rscale>  0 0.68974602E+03</rscale>
<asrwt>0</asrwt>
<pdfrwt beam="1">  1        1 0.15976461E+00 0.78907744E+03</pdfrwt>
<pdfrwt beam="2">  1       -1 0.25741994E+00 0.78907744E+03</pdfrwt>
<totfact> 0.92105763E-01</totfact>
</mgrwt>
</event>
<event>
 4    5  0.7176259E-008  0.1297856E+04  0.7818608E-02  0.9067413E-01
          1   -1    0    0  501    0  0.00000000000E+00  0.00000000000E+00  0.12691107697E+04  0.12691107697E+04  0.50400000000E-02 0. -1.
         -1   -1    0    0    0  501 -0.00000000000E+00 -0.00000000000E+00 -0.18610303518E+04  0.18610303518E+04  0.50400000000E-02 0.  1.
    8880023    1    1    2    0    0 -0.37806426298E+03 -0.10524678055E+04  0.65034295885E+03  0.14516808323E+04  0.65864270000E+03 0. -1.
    8880022    1    1    2    0    0  0.37806426298E+03  0.10524678055E+04 -0.12422625409E+04  0.16784602891E+04  0.15294330000E+03 0.  0.
<mgrwt>
<rscale>  0 0.12533337E+04</rscale>
<asrwt>0</asrwt>
<pdfrwt beam="1">  1        1 0.19524781E+00 0.12978564E+04</pdfrwt>
<pdfrwt beam="2">  1       -1 0.28631236E+00 0.12978564E+04</pdfrwt>
<totfact> 0.37426150E-01</totfact>
</mgrwt>
</event>
<event>
 4    5  0.7176259E-008  0.6803155E+03  0.7818608E-02  0.1009146E+00
          1   -1    0    0  501    0  0.00000000000E+00  0.00000000000E+00  0.33582359419E+04  0.33582359419E+04  0.50400000000E-02 0. -1.
         -1   -1    0    0    0  501 -0.00000000000E+00 -0.00000000000E+00 -0.86372453829E+02  0.86372453976E+02  0.50400000000E-02 0.  1.
    8880023    1    1    2    0    0  0.10012293152E+03  0.13782022612E+03  0.30530248231E+04  0.31279050166E+04  0.65864270000E+03 0. -1.
    8880022    1    1    2    0    0 -0.10012293152E+03 -0.13782022612E+03  0.21883866497E+03  0.31670337928E+03  0.15294330000E+03 0.  0.
<mgrwt>
<rscale>  0 0.51815567E+03</rscale>
<asrwt>0</asrwt>
<pdfrwt beam="1">  1        1 0.51665169E+00 0.68031553E+03</pdfrwt>
<pdfrwt beam="2">  1       -1 0.13288070E-01 0.68031553E+03</pdfrwt>
<totfact> 0.13975737E+01</totfact>
</mgrwt>
</event>
<event>
 4    5  0.7176259E-008  0.9268619E+03  0.7818608E-02  0.9484217E-01
         -1   -1    0    0    0  501 -0.00000000000E+00  0.00000000000E+00  0.70379599601E+03  0.70379599603E+03  0.50400000000E-02 0.  1.
          1   -1    0    0  501    0  0.00000000000E+00 -0.00000000000E+00 -0.38324782586E+04  0.38324782586E+04  0.50400000000E-02 0. -1.
    8880023    1    1    2    0    0 -0.65170208111E+03  0.23391251624E+02 -0.35999042898E+04  0.37173086844E+04  0.65864270000E+03 0.  0.
    8880022    1    1    2    0    0  0.65170208111E+03 -0.23391251624E+02  0.47122202725E+03  0.81896557019E+03  0.15294330000E+03 0.  0.
<mgrwt>
<rscale>  0 0.85457515E+03</rscale>
<asrwt>0</asrwt>
<pdfrwt beam="1">  1        1 0.58961203E+00 0.92686189E+03</pdfrwt>
<pdfrwt beam="2">  1       -1 0.10827631E+00 0.92686189E+03</pdfrwt>
<totfact> 0.11298021E-01</totfact>
</mgrwt>
</event>
<event>
 4    5  0.7176259E-008  0.1559881E+04  0.7818608E-02  0.8868470E-01
          1   -1    0    0  501    0  0.00000000000E+00  0.00000000000E+00  0.26510606892E+04  0.26510606892E+04  0.50400000000E-02 0. -1.
         -1   -1    0    0    0  501 -0.00000000000E+00 -0.00000000000E+00 -0.11751655589E+04  0.11751655589E+04  0.50400000000E-02 0.  1.
    8880023    1    1    2    0    0  0.45961261648E+03 -0.13372264314E+04  0.17852386029E+04  0.23707183219E+04  0.65864270000E+03 0.  0.
    8880022    1    1    2    0    0 -0.45961261648E+03  0.13372264314E+04 -0.30934347268E+03  0.14555079262E+04  0.15294330000E+03 0.  0.
<mgrwt>
<rscale>  0 0.15242737E+04</rscale>
<asrwt>0</asrwt>
<pdfrwt beam="1">  1        1 0.40785549E+00 0.15598809E+04</pdfrwt>
<pdfrwt beam="2">  1       -1 0.18079470E+00 0.15598809E+04</pdfrwt>
<totfact> 0.20526052E-01</totfact>
</mgrwt>
</event>
<event>
 4    5  0.7176259E-008  0.7332589E+03  0.7818608E-02  0.9880037E-01
          1   -1    0    0  501    0  0.00000000000E+00  0.00000000000E+00  0.90364662200E+03  0.90364662201E+03  0.50400000000E-02 0. -1.
         -1   -1    0    0    0  501 -0.00000000000E+00 -0.00000000000E+00 -0.67391862545E+03  0.67391862547E+03  0.50400000000E-02 0.  1.
    8880023    1    1    2    0    0 -0.22111894273E+03  0.23444566530E+03  0.68210170534E+03  0.10014645773E+04  0.65864270000E+03 0. -1.
    8880022    1    1    2    0    0  0.22111894273E+03 -0.23444566530E+03 -0.45237370879E+03  0.57610067022E+03  0.15294330000E+03 0.  0.
<mgrwt>
<rscale>  0 0.61238595E+03</rscale>
<asrwt>0</asrwt>
<pdfrwt beam="1">  1        1 0.13902256E+00 0.73325886E+03</pdfrwt>
<pdfrwt beam="2">  1       -1 0.10367979E+00 0.73325886E+03</pdfrwt>
<totfact> 0.16344007E+01</totfact>
</mgrwt>
</event>
<event>
 4    5  0.7176259E-008  0.1453715E+04  0.7818608E-02  0.8943030E-01
         -1   -1    0    0    0  501 -0.00000000000E+00  0.00000000000E+00  0.22556203701E+04  0.22556203701E+04  0.50400000000E-02 0.  1.
          1   -1    0    0  501    0  0.00000000000E+00 -0.00000000000E+00 -0.19755324520E+04  0.19755324520E+04  0.50400000000E-02 0. -1.
    8880023    1    1    2    0    0  0.14063425018E+03 -0.12882928328E+04 -0.14572192003E+04  0.20583426390E+04  0.65864270000E+03 0.  0.
    8880022    1    1    2    0    0 -0.14063425018E+03  0.12882928328E+04  0.17373071184E+04  0.21728101832E+04  0.15294330000E+03 0.  0.
<mgrwt>
<rscale>  0 0.14150019E+04</rscale>
<asrwt>0</asrwt>
<pdfrwt beam="1">  1        1 0.30392807E+00 0.14537148E+04</pdfrwt>
<pdfrwt beam="2">  1       -1 0.34701852E+00 0.14537148E+04</pdfrwt>
<totfact> 0.47848907E-02</totfact>
</mgrwt>
</event>
<event>
 4    5  0.7176259E-008  0.1434381E+04  0.7818608E-02  0.8957418E-01
         -1   -1    0    0    0  501 -0.00000000000E+00  0.00000000000E+00  0.96806145578E+03  0.96806145580E+03  0.50400000000E-02 0.  1.
          1   -1    0    0  501    0  0.00000000000E+00 -0.00000000000E+00 -0.31829905603E+04  0.31829905603E+04  0.50400000000E-02 0. -1.
    8880023    1    1    2    0    0 -0.91182038613E+03 -0.89006811751E+03 -0.24570070879E+04  0.28450539022E+04  0.65864270000E+03 0.  0.
    8880022    1    1    2    0    0  0.91182038613E+03  0.89006811751E+03  0.24207798338E+03  0.13059981139E+04  0.15294330000E+03 0.  0.
<mgrwt>
<rscale>  0 0.13950378E+04</rscale>
<asrwt>0</asrwt>
<pdfrwt beam="1">  1        1 0.48969085E+00 0.14343807E+04</pdfrwt>
<pdfrwt beam="2">  1       -1 0.14893253E+00 0.14343807E+04</pdfrwt>
<totfact> 0.14973577E-01</totfact>
</mgrwt>
</event>
<event>
 4    5  0.7176259E-008  0.1045380E+04  0.7818608E-02  0.9324456E-01
         -1   -1    0    0    0  501 -0.00000000000E+00  0.00000000000E+00  0.98069170892E+03  0.98069170894E+03  0.50400000000E-02 0.  1.
          1   -1    0    0  501    0  0.00000000000E+00 -0.00000000000E+00 -0.99373032820E+03  0.99373032822E+03  0.50400000000E-02 0. -1.
    8880023    1    1    2    0    0  0.80713523064E+03  0.86843581822E+02 -0.31983975168E+03  0.10932139595E+04  0.65864270000E+03 0. -1.
    8880022    1    1    2    0    0 -0.80713523064E+03 -0.86843581822E+02  0.30680113240E+03  0.88120807764E+03  0.15294330000E+03 0.  0.
<mgrwt>
<rscale>  0 0.98562241E+03</rscale>
<asrwt>0</asrwt>
<pdfrwt beam="1">  1        1 0.15288159E+00 0.10453800E+04</pdfrwt>
<pdfrwt beam="2">  1       -1 0.15087565E+00 0.10453800E+04</pdfrwt>
<totfact> 0.52430825E+00</totfact>
</mgrwt>
</event>
<event>
 4    5  0.7176259E-008  0.1601671E+04  0.7818608E-02  0.8840990E-01
          1   -1    0    0  501    0  0.00000000000E+00  0.00000000000E+00  0.13446888348E+04  0.13446888348E+04  0.50400000000E-02 0. -1.
         -1   -1    0    0    0  501 -0.00000000000E+00 -0.00000000000E+00 -0.22416608977E+04  0.22416608977E+04  0.50400000000E-02 0.  1.
    8880023    1    1    2    0    0 -0.12728838048E+04  0.71505791605E+03  0.37384751133E+03  0.16447228252E+04  0.65864270000E+03 0.  0.
    8880022    1    1    2    0    0  0.12728838048E+04 -0.71505791605E+03 -0.12708195743E+04  0.19416269073E+04  0.15294330000E+03 0.  0.
<mgrwt>
<rscale>  0 0.15671453E+04</rscale>
<asrwt>0</asrwt>
<pdfrwt beam="1">  1        1 0.20687520E+00 0.16016714E+04</pdfrwt>
<pdfrwt beam="2">  1       -1 0.34487091E+00 0.16016714E+04</pdfrwt>
<totfact> 0.13228598E-01</totfact>
</mgrwt>
</event>
<event>
 4    5  0.7176259E-008  0.9332659E+03  0.7818608E-02  0.9474611E-01
         -1   -1    0    0    0  501 -0.00000000000E+00  0.00000000000E+00  0.52651104037E+03  0.52651104039E+03  0.50400000000E-02 0.  1.
          1   -1    0    0  501    0  0.00000000000E+00 -0.00000000000E+00 -0.19092066768E+04  0.19092066768E+04  0.50400000000E-02 0. -1.
    8880023    1    1    2    0    0 -0.29502681230E+03  0.59172134388E+03 -0.14804507958E+04  0.17500627799E+04  0.65864270000E+03 0. -1.
    8880022    1    1    2    0    0  0.29502681230E+03 -0.59172134388E+03  0.97755159342E+02  0.68565493725E+03  0.15294330000E+03 0.  0.
<mgrwt>
<rscale>  0 0.86181807E+03</rscale>
<asrwt>0</asrwt>
<pdfrwt beam="1">  1        1 0.29372410E+00 0.93326587E+03</pdfrwt>
<pdfrwt beam="2">  1       -1 0.81001700E-01 0.93326587E+03</pdfrwt>
<totfact> 0.53161103E+00</totfact>
</mgrwt>
</event>
<event>
 4    5  0.7176259E-008  0.9677446E+03  0.7818608E-02  0.9425030E-01
          1   -1    0    0  501    0  0.00000000000E+00  0.00000000000E+00  0.14082852400E+04  0.14082852400E+04  0.50400000000E-02 0. -1.
         -1   -1    0    0    0  501 -0.00000000000E+00 -0.00000000000E+00 -0.71993940709E+03  0.71993940711E+03  0.50400000000E-02 0.  1.
    8880023    1    1    2    0    0  0.58931330422E+03 -0.39424502347E+03 -0.19298363189E+03  0.98679896509E+03  0.65864270000E+03 0.  0.
    8880022    1    1    2    0    0 -0.58931330422E+03  0.39424502347E+03  0.88132946482E+03  0.11414256820E+04  0.15294330000E+03 0. -1.
<mgrwt>
<rscale>  0 0.90044091E+03</rscale>
<asrwt>0</asrwt>
<pdfrwt beam="1">  1        1 0.21665927E+00 0.96774455E+03</pdfrwt>
<pdfrwt beam="2">  1       -1 0.11075991E+00 0.96774455E+03</pdfrwt>
<totfact> 0.57411504E+00</totfact>
</mgrwt>
</event>
<event>
 4    5  0.7176259E-008  0.7132948E+03  0.7818608E-02  0.9945963E-01
         -1   -1    0    0    0  501 -0.00000000000E+00  0.00000000000E+00  0.85476942096E+03  0.85476942098E+03  0.50400000000E-02 0.  1.
          1   -1    0    0  501    0  0.00000000000E+00 -0.00000000000E+00 -0.11528423237E+04  0.11528423237E+04  0.50400000000E-02 0. -1.
    8880023    1    1    2    0    0  0.19081765575E+03 -0.19638722431E+03 -0.10060577092E+04  0.12332646270E+04  0.65864270000E+03 0. -1.
    8880022    1    1    2    0    0 -0.19081765575E+03  0.19638722431E+03  0.70798480643E+03  0.77434711775E+03  0.15294330000E+03 0.  0.
<mgrwt>
<rscale>  0 0.58084490E+03</rscale>
<asrwt>0</asrwt>
<pdfrwt beam="1">  1        1 0.17736036E+00 0.71329484E+03</pdfrwt>
<pdfrwt beam="2">  1       -1 0.13150299E+00 0.71329484E+03</pdfrwt>
<totfact> 0.59465993E+00</totfact>
</mgrwt>
</event>
<event>
 4    5  0.7176259E-008  0.8082033E+03  0.7818608E-02  0.9693332E-01
          1   -1    0    0  501    0  0.00000000000E+00  0.00000000000E+00  0.25262481212E+04  0.25262481212E+04  0.50400000000E-02 0. -1.
         -1   -1    0    0    0  501 -0.00000000000E+00 -0.00000000000E+00 -0.25356273821E+03  0.25356273826E+03  0.50400000000E-02 0.  1.
    8880023    1    1    2    0    0  0.46400037936E+03 -0.63921370672E+02  0.21123097387E+04  0.22616465091E+04  0.65864270000E+03 0. -1.
    8880022    1    1    2    0    0 -0.46400037936E+03  0.63921370672E+02  0.16037564429E+03  0.51816435035E+03  0.15294330000E+03 0.  0.
<mgrwt>
<rscale>  0 0.71415208E+03</rscale>
<asrwt>0</asrwt>
<pdfrwt beam="1">  1        1 0.38865354E+00 0.80820325E+03</pdfrwt>
<pdfrwt beam="2">  1       -1 0.39009654E-01 0.80820325E+03</pdfrwt>
<totfact> 0.86581155E+00</totfact>
</mgrwt>
</event>
<event>
 4    5  0.7176259E-008  0.8566694E+03  0.7818608E-02  0.9599516E-01
         -1   -1    0    0    0  501 -0.00000000000E+00  0.00000000000E+00  0.41421930975E+03  0.41421930978E+03  0.50400000000E-02 0.  1.
          1   -1    0    0  501    0  0.00000000000E+00 -0.00000000000E+00 -0.15214440555E+04  0.15214440555E+04  0.50400000000E-02 0. -1.
    8880023    1    1    2    0    0 -0.51063203061E+03 -0.19831071997E+03 -0.10629689585E+04  0.13652052686E+04  0.65864270000E+03 0.  0.
    8880022    1    1    2    0    0  0.51063203061E+03  0.19831071997E+03 -0.44255787204E+02  0.57045809667E+03  0.15294330000E+03 0.  0.
<mgrwt>
<rscale>  0 0.77328245E+03</rscale>
<asrwt>0</asrwt>
<pdfrwt beam="1">  1        1 0.23406831E+00 0.85666938E+03</pdfrwt>
<pdfrwt beam="2">  1       -1 0.63726048E-01 0.85666938E+03</pdfrwt>
<totfact> 0.16134287E+01</totfact>
</mgrwt>
</event>
<event>
 4    5  0.7176259E-008  0.1343620E+04  0.7818608E-02  0.9028777E-01
         -1   -1    0    0    0  501 -0.00000000000E+00  0.00000000000E+00  0.88338458357E+03  0.88338458359E+03  0.50400000000E-02 0.  1.
          1   -1    0    0  501    0  0.00000000000E+00 -0.00000000000E+00 -0.27442708384E+04  0.27442708384E+04  0.50400000000E-02 0. -1.
    8880023    1    1    2    0    0  0.68068221356E+03  0.95298339197E+03 -0.20301737982E+04  0.24345269517E+04  0.65864270000E+03 0.  0.
    8880022    1    1    2    0    0 -0.68068221356E+03 -0.95298339197E+03  0.16928754342E+03  0.11931284703E+04  0.15294330000E+03 0.  1.
<mgrwt>
<rscale>  0 0.13009938E+04</rscale>
<asrwt>0</asrwt>
<pdfrwt beam="1">  1        1 0.42219551E+00 0.13436204E+04</pdfrwt>
<pdfrwt beam="2">  1       -1 0.13590532E+00 0.13436204E+04</pdfrwt>
<totfact> 0.40137534E-01</totfact>
</mgrwt>
</event>
<event>
 4    5  0.7176259E-008  0.1616510E+04  0.7818608E-02  0.8831464E-01
         -1   -1    0    0    0  501 -0.00000000000E+00  0.00000000000E+00  0.73800150630E+03  0.73800150632E+03  0.50400000000E-02 0.  1.
          1   -1    0    0  501    0  0.00000000000E+00 -0.00000000000E+00 -0.42872238438E+04  0.42872238438E+04  0.50400000000E-02 0. -1.
    8880023    1    1    2    0    0  0.10169030711E+04  0.10701412137E+04 -0.30631287188E+04  0.34635042699E+04  0.65864270000E+03 0.  0.
    8880022    1    1    2    0    0 -0.10169030711E+04 -0.10701412137E+04 -0.48609361873E+03  0.15617210803E+04  0.15294330000E+03 0.  0.
<mgrwt>
<rscale>  0 0.15823511E+04</rscale>
<asrwt>0</asrwt>
<pdfrwt beam="1">  1        1 0.65957288E+00 0.16165099E+04</pdfrwt>
<pdfrwt beam="2">  1       -1 0.11353870E+00 0.16165099E+04</pdfrwt>
<totfact> 0.35423185E-02</totfact>
</mgrwt>
</event>
<event>
 4    5  0.7817125E-008  0.7983946E+03  0.7818608E-02  0.9714278E-01
         -1   -1    0    0    0  501 -0.00000000000E+00  0.00000000000E+00  0.12713699647E+04  0.12713699647E+04  0.50400000000E-02 0.  1.
          1   -1    0    0  501    0  0.00000000000E+00 -0.00000000000E+00 -0.13481161541E+04  0.13481161541E+04  0.50400000000E-02 0. -1.
    8880023    1    1    2    0    0 -0.37831691808E+03  0.24596757504E+03 -0.11760021662E+04  0.14214130433E+04  0.65864270000E+03 0.  0.
    8880022    1    1    2    0    0  0.37831691808E+03 -0.24596757504E+03  0.10992559768E+04  0.11980730754E+04  0.15294330000E+03 0.  0.
<mgrwt>
<rscale>  0 0.70173010E+03</rscale>
<asrwt>0</asrwt>
<pdfrwt beam="1">  1        1 0.20740249E+00 0.79839460E+03</pdfrwt>
<pdfrwt beam="2">  1       -1 0.19559538E+00 0.79839460E+03</pdfrwt>
<totfact> 0.14026778E+00</totfact>
</mgrwt>
</event>
<event>
 4    5  0.7176259E-008  0.1335510E+04  0.7818608E-02  0.9035486E-01
         -1   -1    0    0    0  501 -0.00000000000E+00  0.00000000000E+00  0.13710040125E+04  0.13710040125E+04  0.50400000000E-02 0.  1.
          1   -1    0    0  501    0  0.00000000000E+00 -0.00000000000E+00 -0.17914592900E+04  0.17914592900E+04  0.50400000000E-02 0. -1.
    8880023    1    1    2    0    0  0.99246830842E+03 -0.60397255424E+03 -0.11665743358E+04  0.17732687548E+04  0.65864270000E+03 0. -1.
    8880022    1    1    2    0    0 -0.99246830842E+03  0.60397255424E+03  0.74611905826E+03  0.13891945478E+04  0.15294330000E+03 0.  0.
<mgrwt>
<rscale>  0 0.12925601E+04</rscale>
<asrwt>0</asrwt>
<pdfrwt beam="1">  1        1 0.27560912E+00 0.13355098E+04</pdfrwt>
<pdfrwt beam="2">  1       -1 0.21092369E+00 0.13355098E+04</pdfrwt>
<totfact> 0.50414200E-01</totfact>
</mgrwt>
</event>
<event>
 4    5  0.7301205E-008  0.1138197E+04  0.7818608E-02  0.9219675E-01
         -1   -1    0    0    0  501 -0.00000000000E+00  0.00000000000E+00  0.11806914204E+04  0.11806914204E+04  0.50400000000E-02 0.  1.
          1   -1    0    0  501    0  0.00000000000E+00 -0.00000000000E+00 -0.19457621398E+04  0.19457621398E+04  0.50400000000E-02 0. -1.
    8880023    1    1    2    0    0 -0.58890371660E+03  0.71754752746E+03 -0.15348832262E+04  0.19108528896E+04  0.65864270000E+03 0. -1.
    8880022    1    1    2    0    0  0.58890371660E+03 -0.71754752746E+03  0.76981250677E+03  0.12156006705E+04  0.15294330000E+03 0.  0.
<mgrwt>
<rscale>  0 0.10852642E+04</rscale>
<asrwt>0</asrwt>
<pdfrwt beam="1">  1        1 0.29934802E+00 0.11381969E+04</pdfrwt>
<pdfrwt beam="2">  1       -1 0.18164483E+00 0.11381969E+04</pdfrwt>
<totfact> 0.65038353E-01</totfact>
</mgrwt>
</event>
<event>
 4    5  0.7176259E-008  0.8987264E+03  0.7818608E-02  0.9528079E-01
         -1   -1    0    0    0  501 -0.00000000000E+00  0.00000000000E+00  0.12377770659E+04  0.12377770659E+04  0.50400000000E-02 0.  1.
          1   -1    0    0  501    0  0.00000000000E+00 -0.00000000000E+00 -0.11439354156E+04  0.11439354156E+04  0.50400000000E-02 0. -1.
    8880023    1    1    2    0    0  0.61062727973E+03 -0.32143813768E+02 -0.85640324519E+03  0.12414248363E+04  0.65864270000E+03 0. -1.
    8880022    1    1    2    0    0 -0.61062727973E+03  0.32143813768E+02  0.95024489549E+03  0.11402876453E+04  0.15294330000E+03 0.  0.
<mgrwt>
<rscale>  0 0.82244932E+03</rscale>
<asrwt>0</asrwt>
<pdfrwt beam="1">  1        1 0.17599006E+00 0.89872638E+03</pdfrwt>
<pdfrwt beam="2">  1       -1 0.19042724E+00 0.89872638E+03</pdfrwt>
<totfact> 0.21012015E+00</totfact>
</mgrwt>
</event>
<event>
 4    5  0.7176259E-008  0.8879718E+03  0.7818608E-02  0.9545623E-01
         -1   -1    0    0    0  501 -0.00000000000E+00  0.00000000000E+00  0.37838171785E+03  0.37838171788E+03  0.50400000000E-02 0.  1.
          1   -1    0    0  501    0  0.00000000000E+00 -0.00000000000E+00 -0.21872062585E+04  0.21872062585E+04  0.50400000000E-02 0. -1.
    8880023    1    1    2    0    0  0.30882560668E+02  0.59475196421E+03 -0.17314366554E+04  0.19458588668E+04  0.65864270000E+03 0. -1.
    8880022    1    1    2    0    0 -0.30882560668E+02 -0.59475196421E+03 -0.77387885233E+02  0.61972910960E+03  0.15294330000E+03 0.  0.
<mgrwt>
<rscale>  0 0.81002169E+03</rscale>
<asrwt>0</asrwt>
<pdfrwt beam="1">  1        1 0.33649326E+00 0.88797176E+03</pdfrwt>
<pdfrwt beam="2">  1       -1 0.58212573E-01 0.88797176E+03</pdfrwt>
<totfact> 0.68386234E+00</totfact>
</mgrwt>
</event>
<event>
 4    5  0.7244557E-008  0.1514884E+04  0.7818608E-02  0.8899197E-01
          1   -1    0    0  501    0  0.00000000000E+00  0.00000000000E+00  0.26795453479E+04  0.26795453479E+04  0.50400000000E-02 0. -1.
         -1   -1    0    0    0  501 -0.00000000000E+00 -0.00000000000E+00 -0.26196304605E+04  0.26196304605E+04  0.50400000000E-02 0.  1.
    8880023    1    1    2    0    0 -0.72354271092E+03 -0.11565249964E+04  0.22511798476E+04  0.27134268065E+04  0.65864270000E+03 0.  0.
    8880022    1    1    2    0    0  0.72354271092E+03  0.11565249964E+04 -0.21912649602E+04  0.25857490018E+04  0.15294330000E+03 0.  0.
<mgrwt>
<rscale>  0 0.14780286E+04</rscale>
<asrwt>0</asrwt>
<pdfrwt beam="1">  1        1 0.41223775E+00 0.15148843E+04</pdfrwt>
<pdfrwt beam="2">  1       -1 0.40302007E+00 0.15148843E+04</pdfrwt>
<totfact> 0.65243323E-03</totfact>
</mgrwt>
</event>
<event>
 4    5  0.7176259E-008  0.9009125E+03  0.7818608E-02  0.9524568E-01
         -1   -1    0    0    0  501 -0.00000000000E+00  0.00000000000E+00  0.12855689267E+04  0.12855689267E+04  0.50400000000E-02 0.  1.
          1   -1    0    0  501    0  0.00000000000E+00 -0.00000000000E+00 -0.13479080881E+04  0.13479080881E+04  0.50400000000E-02 0. -1.
    8880023    1    1    2    0    0 -0.57291373822E+03 -0.22271728213E+03 -0.10974892842E+04  0.14199035440E+04  0.65864270000E+03 0.  0.
    8880022    1    1    2    0    0  0.57291373822E+03  0.22271728213E+03  0.10351501228E+04  0.12135734708E+04  0.15294330000E+03 0.  0.
<mgrwt>
<rscale>  0 0.82496483E+03</rscale>
<asrwt>0</asrwt>
<pdfrwt beam="1">  1        1 0.20737048E+00 0.90091251E+03</pdfrwt>
<pdfrwt beam="2">  1       -1 0.19777983E+00 0.90091251E+03</pdfrwt>
<totfact> 0.13315271E+00</totfact>
</mgrwt>
</event>
<event>
 4    5  0.7176259E-008  0.7473617E+03  0.7818608E-02  0.9839000E-01
          1   -1    0    0  501    0  0.00000000000E+00  0.00000000000E+00  0.42687134767E+04  0.42687134767E+04  0.50400000000E-02 0. -1.
         -1   -1    0    0    0  501 -0.00000000000E+00 -0.00000000000E+00 -0.10590338490E+03  0.10590338502E+03  0.50400000000E-02 0.  1.
    8880023    1    1    2    0    0  0.28731680510E+03  0.20539789239E+03  0.36901829196E+04  0.37651028441E+04  0.65864270000E+03 0. -1.
    8880022    1    1    2    0    0 -0.28731680510E+03 -0.20539789239E+03  0.47262717218E+03  0.60951401755E+03  0.15294330000E+03 0.  0.
<mgrwt>
<rscale>  0 0.63310948E+03</rscale>
<asrwt>0</asrwt>
<pdfrwt beam="1">  1        1 0.65672504E+00 0.74736166E+03</pdfrwt>
<pdfrwt beam="2">  1       -1 0.16292831E-01 0.74736166E+03</pdfrwt>
<totfact> 0.17409569E+00</totfact>
</mgrwt>
</event>
<event>
 4    5  0.8277336E-008  0.1184750E+04  0.7818608E-02  0.9172091E-01
          1   -1    0    0  501    0  0.00000000000E+00  0.00000000000E+00  0.19872624712E+04  0.19872624712E+04  0.50400000000E-02 0. -1.
         -1   -1    0    0    0  501 -0.00000000000E+00 -0.00000000000E+00 -0.11311529205E+04  0.11311529205E+04  0.50400000000E-02 0.  1.
    8880023    1    1    2    0    0  0.60686447414E+03 -0.77558835334E+03  0.15153408728E+04  0.19235098000E+04  0.65864270000E+03 0.  0.
    8880022    1    1    2    0    0 -0.60686447414E+03  0.77558835334E+03 -0.65923132214E+03  0.11949055916E+04  0.15294330000E+03 0.  0.
<mgrwt>
<rscale>  0 0.11346196E+04</rscale>
<asrwt>0</asrwt>
<pdfrwt beam="1">  1        1 0.30573269E+00 0.11847498E+04</pdfrwt>
<pdfrwt beam="2">  1       -1 0.17402353E+00 0.11847498E+04</pdfrwt>
<totfact> 0.68775802E-01</totfact>
</mgrwt>
</event>
<event>
 4    5  0.8407603E-008  0.7161603E+03  0.7818608E-02  0.9935799E-01
         -1   -1    0    0    0  501 -0.00000000000E+00  0.00000000000E+00  0.91378086988E+03  0.91378086989E+03  0.50400000000E-02 0.  1.
          1   -1    0    0  501    0  0.00000000000E+00 -0.00000000000E+00 -0.24539140147E+04  0.24539140147E+04  0.50400000000E-02 0. -1.
    8880023    1    1    2    0    0  0.85182690212E+02  0.26799123327E+03 -0.23712646238E+04  0.24770509713E+04  0.65864270000E+03 0. -1.
    8880022    1    1    2    0    0 -0.85182690212E+02 -0.26799123327E+03  0.83113147904E+03  0.89064391329E+03  0.15294330000E+03 0.  0.
<mgrwt>
<rscale>  0 0.58557256E+03</rscale>
<asrwt>0</asrwt>
<pdfrwt beam="1">  1        1 0.37752523E+00 0.71616032E+03</pdfrwt>
<pdfrwt beam="2">  1       -1 0.14058167E+00 0.71616032E+03</pdfrwt>
<totfact> 0.65156225E-01</totfact>
</mgrwt>
</event>
<event>
 4    5  0.9220057E-008  0.9140354E+03  0.7818608E-02  0.9503866E-01
         -1   -1    0    0    0  501 -0.00000000000E+00  0.00000000000E+00  0.11140963825E+04  0.11140963825E+04  0.50400000000E-02 0.  1.
          1   -1    0    0  501    0  0.00000000000E+00 -0.00000000000E+00 -0.17736316432E+04  0.17736316432E+04  0.50400000000E-02 0. -1.
    8880023    1    1    2    0    0  0.28777611593E+03  0.56465509476E+03 -0.15408037694E+04  0.17915180521E+04  0.65864270000E+03 0. -1.
    8880022    1    1    2    0    0 -0.28777611593E+03 -0.56465509476E+03  0.88126850871E+03  0.10962099737E+04  0.15294330000E+03 0.  0.
<mgrwt>
<rscale>  0 0.83999413E+03</rscale>
<asrwt>0</asrwt>
<pdfrwt beam="1">  1        1 0.27286641E+00 0.91403538E+03</pdfrwt>
<pdfrwt beam="2">  1       -1 0.17139944E+00 0.91403538E+03</pdfrwt>
<totfact> 0.10436673E+00</totfact>
</mgrwt>
</event>
<event>
 4    5  0.7176259E-008  0.7448597E+03  0.7818608E-02  0.9846011E-01
          1   -1    0    0  501    0  0.00000000000E+00  0.00000000000E+00  0.19684885673E+04  0.19684885673E+04  0.50400000000E-02 0. -1.
         -1   -1    0    0    0  501 -0.00000000000E+00 -0.00000000000E+00 -0.17459930895E+04  0.17459930895E+04  0.50400000000E-02 0.  1.
    8880023    1    1    2    0    0  0.30883089921E+03  0.16009122697E+03  0.18756912328E+04  0.20181757933E+04  0.65864270000E+03 0. -1.
    8880022    1    1    2    0    0 -0.30883089921E+03 -0.16009122697E+03 -0.16531957550E+04  0.16963058635E+04  0.15294330000E+03 0.  0.
<mgrwt>
<rscale>  0 0.62950728E+03</rscale>
<asrwt>0</asrwt>
<pdfrwt beam="1">  1        1 0.30284439E+00 0.74485967E+03</pdfrwt>
<pdfrwt beam="2">  1       -1 0.26861432E+00 0.74485967E+03</pdfrwt>
<totfact> 0.17805066E-01</totfact>
</mgrwt>
</event>
<event>
 4    5  0.7176259E-008  0.7430322E+03  0.7818608E-02  0.9851201E-01
         -1   -1    0    0    0  501 -0.00000000000E+00  0.00000000000E+00  0.18597980053E+03  0.18597980059E+03  0.50400000000E-02 0.  1.
          1   -1    0    0  501    0  0.00000000000E+00 -0.00000000000E+00 -0.27042692799E+04  0.27042692799E+04  0.50400000000E-02 0. -1.
    8880023    1    1    2    0    0  0.18234822604E+03  0.29160901477E+03 -0.23732869230E+04  0.24868831332E+04  0.65864270000E+03 0. -1.
    8880022    1    1    2    0    0 -0.18234822604E+03 -0.29160901477E+03 -0.14500255630E+03  0.40336594723E+03  0.15294330000E+03 0.  0.
<mgrwt>
<rscale>  0 0.62685728E+03</rscale>
<asrwt>0</asrwt>
<pdfrwt beam="1">  1        1 0.41604140E+00 0.74303223E+03</pdfrwt>
<pdfrwt beam="2">  1       -1 0.28612279E-01 0.74303223E+03</pdfrwt>
<totfact> 0.11418360E+01</totfact>
</mgrwt>
</event>
<event>
 4    5  0.7176259E-008  0.9651978E+03  0.7818608E-02  0.9428577E-01
          1   -1    0    0  501    0  0.00000000000E+00  0.00000000000E+00  0.95355167432E+03  0.95355167434E+03  0.50400000000E-02 0. -1.
         -1   -1    0    0    0  501 -0.00000000000E+00 -0.00000000000E+00 -0.82765337676E+03  0.82765337677E+03  0.50400000000E-02 0.  1.
    8880023    1    1    2    0    0 -0.40496286628E+02  0.70438383699E+03  0.34778218576E+03  0.10259430754E+04  0.65864270000E+03 0.  0.
    8880022    1    1    2    0    0  0.40496286628E+02 -0.70438383699E+03 -0.22188388820E+03  0.75526197567E+03  0.15294330000E+03 0.  0.
<mgrwt>
<rscale>  0 0.89760767E+03</rscale>
<asrwt>0</asrwt>
<pdfrwt beam="1">  1        1 0.14670026E+00 0.96519778E+03</pdfrwt>
<pdfrwt beam="2">  1       -1 0.12733129E+00 0.96519778E+03</pdfrwt>
<totfact> 0.88522993E+00</totfact>
</mgrwt>
</event>
<event>
 4    5  0.7176259E-008  0.1058437E+04  0.7818608E-02  0.9308807E-01
          1   -1    0    0  501    0  0.00000000000E+00  0.00000000000E+00  0.10092521474E+04  0.10092521474E+04  0.50400000000E-02 0. -1.
         -1   -1    0    0    0  501 -0.00000000000E+00 -0.00000000000E+00 -0.12054489490E+04  0.12054489490E+04  0.50400000000E-02 0.  1.
    8880023    1    1    2    0    0  0.49775723024E+03  0.66235727238E+03  0.45276013596E+03  0.11512086533E+04  0.65864270000E+03 0.  0.
    8880022    1    1    2    0    0 -0.49775723024E+03 -0.66235727238E+03 -0.64895693763E+03  0.10634924431E+04  0.15294330000E+03 0.  0.
<mgrwt>
<rscale>  0 0.99976126E+03</rscale>
<asrwt>0</asrwt>
<pdfrwt beam="1">  1        1 0.15526956E+00 0.10584373E+04</pdfrwt>
<pdfrwt beam="2">  1       -1 0.18545368E+00 0.10584373E+04</pdfrwt>
<totfact> 0.28212698E+00</totfact>
</mgrwt>
</event>
<event>
 4    5  0.7176259E-008  0.1245422E+04  0.7818608E-02  0.9114185E-01
          1   -1    0    0  501    0  0.00000000000E+00  0.00000000000E+00  0.24333809271E+04  0.24333809271E+04  0.50400000000E-02 0. -1.
         -1   -1    0    0    0  501 -0.00000000000E+00 -0.00000000000E+00 -0.14346079739E+04  0.14346079739E+04  0.50400000000E-02 0.  1.
    8880023    1    1    2    0    0  0.34105711663E+03 -0.10004730631E+04  0.20311510009E+04  0.23825723287E+04  0.65864270000E+03 0.  0.
    8880022    1    1    2    0    0 -0.34105711663E+03  0.10004730631E+04 -0.10323780477E+04  0.14854165723E+04  0.15294330000E+03 0.  0.
<mgrwt>
<rscale>  0 0.11984830E+04</rscale>
<asrwt>0</asrwt>
<pdfrwt beam="1">  1        1 0.37436630E+00 0.12454222E+04</pdfrwt>
<pdfrwt beam="2">  1       -1 0.22070892E+00 0.12454222E+04</pdfrwt>
<totfact> 0.16042247E-01</totfact>
</mgrwt>
</event>
<event>
 4    5  0.7176259E-008  0.6906096E+03  0.7818608E-02  0.1003864E+00
          1   -1    0    0  501    0  0.00000000000E+00  0.00000000000E+00  0.52306054691E+03  0.52306054693E+03  0.50400000000E-02 0. -1.
         -1   -1    0    0    0  501 -0.00000000000E+00 -0.00000000000E+00 -0.48465549153E+03  0.48465549156E+03  0.50400000000E-02 0.  1.
    8880023    1    1    2    0    0 -0.20454063941E+03  0.35979938292E+02  0.17973084786E+03  0.71361391036E+03  0.65864270000E+03 0. -1.
    8880022    1    1    2    0    0  0.20454063941E+03 -0.35979938292E+02 -0.14132579249E+03  0.29410212812E+03  0.15294330000E+03 0.  0.
<mgrwt>
<rscale>  0 0.53987847E+03</rscale>
<asrwt>0</asrwt>
<pdfrwt beam="1">  1        1 0.80470854E-01 0.69060961E+03</pdfrwt>
<pdfrwt beam="2">  1       -1 0.74562383E-01 0.69060961E+03</pdfrwt>
<totfact> 0.77150877E+01</totfact>
</mgrwt>
</event>
<event>
 4    5  0.7176259E-008  0.7722875E+03  0.7818608E-02  0.9774276E-01
          1   -1    0    0  501    0  0.00000000000E+00  0.00000000000E+00  0.71124665685E+03  0.71124665687E+03  0.50400000000E-02 0. -1.
         -1   -1    0    0    0  501 -0.00000000000E+00 -0.00000000000E+00 -0.10521880182E+04  0.10521880182E+04  0.50400000000E-02 0.  1.
    8880023    1    1    2    0    0  0.35908470807E+03  0.18351026810E+03  0.42714718799E+03  0.88254335448E+03  0.65864270000E+03 0.  0.
    8880022    1    1    2    0    0 -0.35908470807E+03 -0.18351026810E+03 -0.76808854938E+03  0.88089132063E+03  0.15294330000E+03 0.  0.
<mgrwt>
<rscale>  0 0.66761512E+03</rscale>
<asrwt>0</asrwt>
<pdfrwt beam="1">  1        1 0.10942256E+00 0.77228755E+03</pdfrwt>
<pdfrwt beam="2">  1       -1 0.16187508E+00 0.77228755E+03</pdfrwt>
<totfact> 0.77415944E+00</totfact>
</mgrwt>
</event>
<event>
 4    5  0.7176259E-008  0.9821737E+03  0.7818608E-02  0.9405261E-01
          1   -1    0    0  501    0  0.00000000000E+00  0.00000000000E+00  0.26131317305E+04  0.26131317305E+04  0.50400000000E-02 0. -1.
         -1   -1    0    0    0  501 -0.00000000000E+00 -0.00000000000E+00 -0.78456641056E+03  0.78456641057E+03  0.50400000000E-02 0.  1.
    8880023    1    1    2    0    0  0.72731396267E+03  0.43235176056E+02 -0.39059367385E+03  0.10569903051E+04  0.65864270000E+03 0.  1.
    8880022    1    1    2    0    0 -0.72731396267E+03 -0.43235176056E+02  0.22191589938E+04  0.23407078360E+04  0.15294330000E+03 0.  0.
<mgrwt>
<rscale>  0 0.91644010E+03</rscale>
<asrwt>0</asrwt>
<pdfrwt beam="1">  1        1 0.40202027E+00 0.98217365E+03</pdfrwt>
<pdfrwt beam="2">  1       -1 0.12070252E+00 0.98217365E+03</pdfrwt>
<totfact> 0.70559300E-01</totfact>
</mgrwt>
</event>
<event>
 4    5  0.1188624E-007  0.7491376E+03  0.7818608E-02  0.9834087E-01
         -1   -1    0    0    0  501 -0.00000000000E+00  0.00000000000E+00  0.12635798255E+04  0.12635798255E+04  0.50400000000E-02 0.  1.
          1   -1    0    0  501    0  0.00000000000E+00 -0.00000000000E+00 -0.15717220262E+04  0.15717220262E+04  0.50400000000E-02 0. -1.
    8880023    1    1    2    0    0  0.22990338231E+03  0.27302252564E+03 -0.14484390511E+04  0.16307000815E+04  0.65864270000E+03 0. -1.
    8880022    1    1    2    0    0 -0.22990338231E+03 -0.27302252564E+03  0.11402968505E+04  0.12046017702E+04  0.15294330000E+03 0.  0.
<mgrwt>
<rscale>  0 0.63564877E+03</rscale>
<asrwt>0</asrwt>
<pdfrwt beam="1">  1        1 0.24180339E+00 0.74913755E+03</pdfrwt>
<pdfrwt beam="2">  1       -1 0.19439690E+00 0.74913755E+03</pdfrwt>
<totfact> 0.10121662E+00</totfact>
</mgrwt>
</event>
<event>
 4    5  0.7176259E-008  0.8804800E+03  0.7818608E-02  0.9558123E-01
          1   -1    0    0  501    0  0.00000000000E+00  0.00000000000E+00  0.19935867064E+04  0.19935867064E+04  0.50400000000E-02 0. -1.
         -1   -1    0    0    0  501 -0.00000000000E+00 -0.00000000000E+00 -0.36471722312E+03  0.36471722316E+03  0.50400000000E-02 0.  1.
    8880023    1    1    2    0    0 -0.58422511312E+03  0.10764277883E+02  0.15021012994E+04  0.17411356559E+04  0.65864270000E+03 0.  0.
    8880022    1    1    2    0    0  0.58422511312E+03 -0.10764277883E+02  0.12676818387E+03  0.61716827360E+03  0.15294330000E+03 0.  0.
<mgrwt>
<rscale>  0 0.80130975E+03</rscale>
<asrwt>0</asrwt>
<pdfrwt beam="1">  1        1 0.30670564E+00 0.88048002E+03</pdfrwt>
<pdfrwt beam="2">  1       -1 0.56110343E-01 0.88048002E+03</pdfrwt>
<totfact> 0.99259821E+00</totfact>
</mgrwt>
</event>
<event>
 4    5  0.7176259E-008  0.7823579E+03  0.7818608E-02  0.9750327E-01
         -1   -1    0    0    0  501 -0.00000000000E+00  0.00000000000E+00  0.85210159115E+03  0.85210159117E+03  0.50400000000E-02 0.  1.
          1   -1    0    0  501    0  0.00000000000E+00 -0.00000000000E+00 -0.60571812718E+03  0.60571812720E+03  0.50400000000E-02 0. -1.
    8880023    1    1    2    0    0  0.21332704627E+03  0.36436974465E+03 -0.21765158000E+03  0.81206905865E+03  0.65864270000E+03 0.  1.
    8880022    1    1    2    0    0 -0.21332704627E+03 -0.36436974465E+03  0.46403504397E+03  0.64575065972E+03  0.15294330000E+03 0.  0.
<mgrwt>
<rscale>  0 0.68097794E+03</rscale>
<asrwt>0</asrwt>
<pdfrwt beam="1">  1        1 0.93187404E-01 0.78235794E+03</pdfrwt>
<pdfrwt beam="2">  1       -1 0.13109255E+00 0.78235794E+03</pdfrwt>
<totfact> 0.17167168E+01</totfact>
</mgrwt>
</event>
<event>
 4    5  0.7176259E-008  0.8298368E+03  0.7818608E-02  0.9649650E-01
         -1   -1    0    0    0  501 -0.00000000000E+00  0.00000000000E+00  0.36667717036E+03  0.36667717040E+03  0.50400000000E-02 0.  1.
          1   -1    0    0  501    0  0.00000000000E+00 -0.00000000000E+00 -0.24580945418E+04  0.24580945418E+04  0.50400000000E-02 0. -1.
    8880023    1    1    2    0    0  0.17419759863E+03  0.47378704605E+03 -0.21398241525E+04  0.22950983809E+04  0.65864270000E+03 0. -1.
    8880022    1    1    2    0    0 -0.17419759863E+03 -0.47378704605E+03  0.48406781063E+02  0.52967333125E+03  0.15294330000E+03 0.  0.
<mgrwt>
<rscale>  0 0.74095400E+03</rscale>
<asrwt>0</asrwt>
<pdfrwt beam="1">  1        1 0.37816838E+00 0.82983684E+03</pdfrwt>
<pdfrwt beam="2">  1       -1 0.56411874E-01 0.82983684E+03</pdfrwt>
<totfact> 0.48077736E+00</totfact>
</mgrwt>
</event>
<event>
 4    5  0.7176259E-008  0.8183685E+03  0.7818608E-02  0.9672402E-01
         -1   -1    0    0    0  501 -0.00000000000E+00  0.00000000000E+00  0.25291351677E+04  0.25291351677E+04  0.50400000000E-02 0.  1.
          1   -1    0    0  501    0  0.00000000000E+00 -0.00000000000E+00 -0.58330449351E+03  0.58330449353E+03  0.50400000000E-02 0. -1.
    8880023    1    1    2    0    0 -0.47646986124E+03 -0.94304034922E+02 -0.25207815476E+03  0.85631208215E+03  0.65864270000E+03 0. -1.
    8880022    1    1    2    0    0  0.47646986124E+03  0.94304034922E+02  0.21979088290E+04  0.22561275791E+04  0.15294330000E+03 0.  0.
<mgrwt>
<rscale>  0 0.72683989E+03</rscale>
<asrwt>0</asrwt>
<pdfrwt beam="1">  1        1 0.89739151E-01 0.81836849E+03</pdfrwt>
<pdfrwt beam="2">  1       -1 0.38909773E+00 0.81836849E+03</pdfrwt>
<totfact> 0.32049453E-01</totfact>
</mgrwt>
</event>
<event>
 4    5  0.7176259E-008  0.6588204E+03  0.7818608E-02  0.1025399E+00
          1   -1    0    0  501    0  0.00000000000E+00  0.00000000000E+00  0.29885214709E+03  0.29885214713E+03  0.50400000000E-02 0. -1.
         -1   -1    0    0    0  501 -0.00000000000E+00 -0.00000000000E+00 -0.16570122479E+04  0.16570122479E+04  0.50400000000E-02 0.  1.
    8880023    1    1    2    0    0 -0.15139346448E+02 -0.22033590407E+01 -0.74482591461E+02  0.66301728280E+03  0.65864270000E+03 0. -1.
    8880022    1    1    2    0    0  0.15139346448E+02  0.22033590407E+01 -0.12836775094E+04  0.12928471123E+04  0.15294330000E+03 0.  0.
<mgrwt>
<rscale>  0 0.45787651E+03</rscale>
<asrwt>0</asrwt>
<pdfrwt beam="1">  1        1 0.45977254E-01 0.65882036E+03</pdfrwt>
<pdfrwt beam="2">  1       -1 0.25492496E+00 0.65882036E+03</pdfrwt>
<totfact> 0.60048124E+00</totfact>
</mgrwt>
</event>
<event>
 4    5  0.7176259E-008  0.8805484E+03  0.7818608E-02  0.9558008E-01
         -1   -1    0    0    0  501 -0.00000000000E+00  0.00000000000E+00  0.67769038861E+03  0.67769038863E+03  0.50400000000E-02 0.  1.
          1   -1    0    0  501    0  0.00000000000E+00 -0.00000000000E+00 -0.13079935945E+04  0.13079935945E+04  0.50400000000E-02 0. -1.
    8880023    1    1    2    0    0  0.57107472163E+03 -0.12421358342E+03 -0.95570222993E+03  0.12995123357E+04  0.65864270000E+03 0. -1.
    8880022    1    1    2    0    0 -0.57107472163E+03  0.12421358342E+03  0.32539902402E+03  0.68617164750E+03  0.15294330000E+03 0.  0.
<mgrwt>
<rscale>  0 0.80138953E+03</rscale>
<asrwt>0</asrwt>
<pdfrwt beam="1">  1        1 0.20122978E+00 0.88054844E+03</pdfrwt>
<pdfrwt beam="2">  1       -1 0.10426006E+00 0.88054844E+03</pdfrwt>
<totfact> 0.78691874E+00</totfact>
</mgrwt>
</event>
<event>
 4    5  0.7176259E-008  0.1643604E+04  0.7818608E-02  0.8814371E-01
         -1   -1    0    0    0  501 -0.00000000000E+00  0.00000000000E+00  0.17475268690E+04  0.17475268690E+04  0.50400000000E-02 0.  1.
          1   -1    0    0  501    0  0.00000000000E+00 -0.00000000000E+00 -0.17463110297E+04  0.17463110298E+04  0.50400000000E-02 0. -1.
    8880023    1    1    2    0    0  0.79106728843E+03  0.12813414024E+04 -0.74700196217E+03  0.18053934147E+04  0.65864270000E+03 0.  0.
    8880022    1    1    2    0    0 -0.79106728843E+03 -0.12813414024E+04  0.74821780139E+03  0.16884444840E+04  0.15294330000E+03 0.  0.
<mgrwt>
<rscale>  0 0.16100944E+04</rscale>
<asrwt>0</asrwt>
<pdfrwt beam="1">  1        1 0.26866324E+00 0.16436038E+04</pdfrwt>
<pdfrwt beam="2">  1       -1 0.26885029E+00 0.16436038E+04</pdfrwt>
<totfact> 0.21639993E-01</totfact>
</mgrwt>
</event>
<event>
 4    5  0.7176259E-008  0.1118041E+04  0.7818608E-02  0.9241231E-01
         -1   -1    0    0    0  501 -0.00000000000E+00  0.00000000000E+00  0.15635358158E+04  0.15635358158E+04  0.50400000000E-02 0.  1.
          1   -1    0    0  501    0  0.00000000000E+00 -0.00000000000E+00 -0.12862914552E+04  0.12862914552E+04  0.50400000000E-02 0. -1.
    8880023    1    1    2    0    0 -0.19982448568E+03  0.88106461312E+03 -0.84469703260E+03  0.14012594195E+04  0.65864270000E+03 0.  0.
    8880022    1    1    2    0    0  0.19982448568E+03 -0.88106461312E+03  0.11219413933E+04  0.14485678515E+04  0.15294330000E+03 0.  0.
<mgrwt>
<rscale>  0 0.10637805E+04</rscale>
<asrwt>0</asrwt>
<pdfrwt beam="1">  1        1 0.19789099E+00 0.11180406E+04</pdfrwt>
<pdfrwt beam="2">  1       -1 0.24054397E+00 0.11180406E+04</pdfrwt>
<totfact> 0.73762567E-01</totfact>
</mgrwt>
</event>
<event>
 4    5  0.7176259E-008  0.6911366E+03  0.7818608E-02  0.1003617E+00
          1   -1    0    0  501    0  0.00000000000E+00  0.00000000000E+00  0.21221670772E+04  0.21221670772E+04  0.50400000000E-02 0. -1.
         -1   -1    0    0    0  501 -0.00000000000E+00 -0.00000000000E+00 -0.52665789549E+03  0.52665789551E+03  0.50400000000E-02 0.  1.
    8880023    1    1    2    0    0  0.17361913029E+03  0.11711503167E+03  0.20291135430E+04  0.21435884655E+04  0.65864270000E+03 0. -1.
    8880022    1    1    2    0    0 -0.17361913029E+03 -0.11711503167E+03 -0.43360436127E+03  0.50523650717E+03  0.15294330000E+03 0.  0.
<mgrwt>
<rscale>  0 0.54092293E+03</rscale>
<asrwt>0</asrwt>
<pdfrwt beam="1">  1        1 0.32648725E+00 0.69113656E+03</pdfrwt>
<pdfrwt beam="2">  1       -1 0.81024291E-01 0.69113656E+03</pdfrwt>
<totfact> 0.39801654E+00</totfact>
</mgrwt>
</event>
<event>
 4    5  0.7176259E-008  0.7581786E+03  0.7818608E-02  0.9809846E-01
         -1   -1    0    0    0  501 -0.00000000000E+00  0.00000000000E+00  0.69354426411E+03  0.69354426413E+03  0.50400000000E-02 0.  1.
          1   -1    0    0  501    0  0.00000000000E+00 -0.00000000000E+00 -0.13167961116E+04  0.13167961116E+04  0.50400000000E-02 0. -1.
    8880023    1    1    2    0    0 -0.12091609632E+02 -0.37533771081E+03 -0.11303406163E+04  0.13610674926E+04  0.65864270000E+03 0. -1.
    8880022    1    1    2    0    0  0.12091609632E+02  0.37533771081E+03  0.50708876889E+03  0.64927288310E+03  0.15294330000E+03 0.  0.
<mgrwt>
<rscale>  0 0.64836825E+03</rscale>
<asrwt>0</asrwt>
<pdfrwt beam="1">  1        1 0.20258402E+00 0.75817861E+03</pdfrwt>
<pdfrwt beam="2">  1       -1 0.10669912E+00 0.75817861E+03</pdfrwt>
<totfact> 0.74763762E+00</totfact>
</mgrwt>
</event>
<event>
 4    5  0.7176259E-008  0.1086482E+04  0.7818608E-02  0.9276258E-01
          1   -1    0    0  501    0  0.00000000000E+00  0.00000000000E+00  0.12570999370E+04  0.12570999370E+04  0.50400000000E-02 0. -1.
         -1   -1    0    0    0  501 -0.00000000000E+00 -0.00000000000E+00 -0.10299028324E+04  0.10299028324E+04  0.50400000000E-02 0.  1.
    8880023    1    1    2    0    0  0.60109525085E+03  0.62073875936E+03  0.69780070870E+03  0.12912661009E+04  0.65864270000E+03 0. -1.
    8880022    1    1    2    0    0 -0.60109525085E+03 -0.62073875936E+03 -0.47060360406E+03  0.99573666857E+03  0.15294330000E+03 0.  0.
<mgrwt>
<rscale>  0 0.10299824E+04</rscale>
<asrwt>0</asrwt>
<pdfrwt beam="1">  1        1 0.19339999E+00 0.10864816E+04</pdfrwt>
<pdfrwt beam="2">  1       -1 0.15844659E+00 0.10864816E+04</pdfrwt>
<totfact> 0.28966958E+00</totfact>
</mgrwt>
</event>
<event>
 4    5  0.7176259E-008  0.7126173E+03  0.7818608E-02  0.9948407E-01
          1   -1    0    0  501    0  0.00000000000E+00  0.00000000000E+00  0.77496918831E+03  0.77496918833E+03  0.50400000000E-02 0. -1.
         -1   -1    0    0    0  501 -0.00000000000E+00 -0.00000000000E+00 -0.96689318131E+03  0.96689318132E+03  0.50400000000E-02 0.  1.
    8880023    1    1    2    0    0  0.26787640162E+03  0.47491728054E+02  0.57384027457E+03  0.91494048865E+03  0.65864270000E+03 0. -1.
    8880022    1    1    2    0    0 -0.26787640162E+03 -0.47491728054E+02 -0.76576426757E+03  0.82692188101E+03  0.15294330000E+03 0.  0.
<mgrwt>
<rscale>  0 0.57971544E+03</rscale>
<asrwt>0</asrwt>
<pdfrwt beam="1">  1        1 0.11922603E+00 0.71261731E+03</pdfrwt>
<pdfrwt beam="2">  1       -1 0.14875280E+00 0.71261731E+03</pdfrwt>
<totfact> 0.86107632E+00</totfact>
</mgrwt>
</event>
<event>
 4    5  0.7176259E-008  0.9664141E+03  0.7818608E-02  0.9426881E-01
         -1   -1    0    0    0  501 -0.00000000000E+00  0.00000000000E+00  0.91109483174E+03  0.91109483176E+03  0.50400000000E-02 0.  1.
          1   -1    0    0  501    0  0.00000000000E+00 -0.00000000000E+00 -0.12799456318E+04  0.12799456318E+04  0.50400000000E-02 0. -1.
    8880023    1    1    2    0    0 -0.10737351891E+02 -0.70712850180E+03  0.47717786769E+03  0.10778009707E+04  0.65864270000E+03 0.  0.
    8880022    1    1    2    0    0  0.10737351891E+02  0.70712850180E+03 -0.84602866774E+03  0.11132394929E+04  0.15294330000E+03 0.  0.
<mgrwt>
<rscale>  0 0.89896117E+03</rscale>
<asrwt>0</asrwt>
<pdfrwt beam="1">  1        1 0.19691471E+00 0.96641410E+03</pdfrwt>
<pdfrwt beam="2">  1       -1 0.14016844E+00 0.96641410E+03</pdfrwt>
<totfact> 0.39383079E+00</totfact>
</mgrwt>
</event>
<event>
 4    5  0.7176259E-008  0.6947641E+03  0.7818608E-02  0.1001966E+00
          1   -1    0    0  501    0  0.00000000000E+00  0.00000000000E+00  0.28413290098E+04  0.28413290098E+04  0.50400000000E-02 0. -1.
         -1   -1    0    0    0  501 -0.00000000000E+00 -0.00000000000E+00 -0.18349624305E+03  0.18349624312E+03  0.50400000000E-02 0.  1.
    8880023    1    1    2    0    0  0.10223004200E+02 -0.22086743621E+03  0.26668134027E+04  0.27558285261E+04  0.65864270000E+03 0. -1.
    8880022    1    1    2    0    0 -0.10223004200E+02  0.22086743621E+03 -0.89806359710E+01  0.26899672680E+03  0.15294330000E+03 0.  0.
<mgrwt>
<rscale>  0 0.54796678E+03</rscale>
<asrwt>0</asrwt>
<pdfrwt beam="1">  1        1 0.43712752E+00 0.69476409E+03</pdfrwt>
<pdfrwt beam="2">  1       -1 0.28230193E-01 0.69476409E+03</pdfrwt>
<totfact> 0.94535649E+00</totfact>
</mgrwt>
</event>
<event>
 4    5  0.7176259E-008  0.9688258E+03  0.7818608E-02  0.9423530E-01
          1   -1    0    0  501    0  0.00000000000E+00  0.00000000000E+00  0.16761296173E+04  0.16761296173E+04  0.50400000000E-02 0. -1.
         -1   -1    0    0    0  501 -0.00000000000E+00 -0.00000000000E+00 -0.77996922285E+03  0.77996922286E+03  0.50400000000E-02 0.  1.
    8880023    1    1    2    0    0 -0.22858673133E+02 -0.71013431643E+03  0.13026039237E+04  0.16233916516E+04  0.65864270000E+03 0.  0.
    8880022    1    1    2    0    0  0.22858673133E+02  0.71013431643E+03 -0.40644352926E+03  0.83270718851E+03  0.15294330000E+03 0.  0.
<mgrwt>
<rscale>  0 0.90164294E+03</rscale>
<asrwt>0</asrwt>
<pdfrwt beam="1">  1        1 0.25786609E+00 0.96882582E+03</pdfrwt>
<pdfrwt beam="2">  1       -1 0.11999527E+00 0.96882582E+03</pdfrwt>
<totfact> 0.30986971E+00</totfact>
</mgrwt>
</event>
<event>
 4    5  0.7176259E-008  0.1162454E+04  0.7818608E-02  0.9194513E-01
         -1   -1    0    0    0  501 -0.00000000000E+00  0.00000000000E+00  0.48396028497E+04  0.48396028497E+04  0.50400000000E-02 0.  1.
          1   -1    0    0  501    0  0.00000000000E+00 -0.00000000000E+00 -0.49588111399E+03  0.49588111402E+03  0.50400000000E-02 0. -1.
    8880023    1    1    2    0    0  0.91433916607E+03  0.28543472040E+03  0.33310976362E+03  0.12092400139E+04  0.65864270000E+03 0.  0.
    8880022    1    1    2    0    0 -0.91433916607E+03 -0.28543472040E+03  0.40106119721E+04  0.41262439499E+04  0.15294330000E+03 0.  0.
<mgrwt>
<rscale>  0 0.11110245E+04</rscale>
<asrwt>0</asrwt>
<pdfrwt beam="1">  1        1 0.76289404E-01 0.11624540E+04</pdfrwt>
<pdfrwt beam="2">  1       -1 0.74455426E+00 0.11624540E+04</pdfrwt>
<totfact> 0.60857256E-03</totfact>
</mgrwt>
</event>
<event>
 4    5  0.7176259E-008  0.7279629E+03  0.7818608E-02  0.9896509E-01
          1   -1    0    0  501    0  0.00000000000E+00  0.00000000000E+00  0.49780778920E+03  0.49780778923E+03  0.50400000000E-02 0. -1.
         -1   -1    0    0    0  501 -0.00000000000E+00 -0.00000000000E+00 -0.11286334200E+04  0.11286334200E+04  0.50400000000E-02 0.  1.
    8880023    1    1    2    0    0 -0.95285939788E+02 -0.29502602367E+03  0.17577063305E+03  0.74888269220E+03  0.65864270000E+03 0. -1.
    8880022    1    1    2    0    0  0.95285939788E+02  0.29502602367E+03 -0.80659626386E+03  0.87755851705E+03  0.15294330000E+03 0.  0.
<mgrwt>
<rscale>  0 0.60430767E+03</rscale>
<asrwt>0</asrwt>
<pdfrwt beam="1">  1        1 0.76585814E-01 0.72796289E+03</pdfrwt>
<pdfrwt beam="2">  1       -1 0.17363591E+00 0.72796289E+03</pdfrwt>
<totfact> 0.10661081E+01</totfact>
</mgrwt>
</event>
<event>
 4    5  0.7176259E-008  0.1095709E+04  0.7818608E-02  0.9265849E-01
         -1   -1    0    0    0  501 -0.00000000000E+00  0.00000000000E+00  0.73301293132E+03  0.73301293134E+03  0.50400000000E-02 0.  1.
          1   -1    0    0  501    0  0.00000000000E+00 -0.00000000000E+00 -0.25126597547E+04  0.25126597547E+04  0.50400000000E-02 0. -1.
    8880023    1    1    2    0    0 -0.24455549817E+03 -0.84080943510E+03 -0.20432502027E+04  0.23185015624E+04  0.65864270000E+03 0.  0.
    8880022    1    1    2    0    0  0.24455549817E+03  0.84080943510E+03  0.26360337934E+03  0.92717112361E+03  0.15294330000E+03 0.  0.
<mgrwt>
<rscale>  0 0.10398861E+04</rscale>
<asrwt>0</asrwt>
<pdfrwt beam="1">  1        1 0.38656303E+00 0.10957090E+04</pdfrwt>
<pdfrwt beam="2">  1       -1 0.11277122E+00 0.10957090E+04</pdfrwt>
<totfact> 0.95861786E-01</totfact>
</mgrwt>
</event>
<event>
 4    5  0.7176259E-008  0.1244531E+04  0.7818608E-02  0.9115005E-01
         -1   -1    0    0    0  501 -0.00000000000E+00  0.00000000000E+00  0.20695505710E+04  0.20695505710E+04  0.50400000000E-02 0.  1.
          1   -1    0    0  501    0  0.00000000000E+00 -0.00000000000E+00 -0.10380668168E+04  0.10380668168E+04  0.50400000000E-02 0. -1.
    8880023    1    1    2    0    0  0.54013768761E+03 -0.90735781083E+03 -0.41347146313E+03  0.13114174681E+04  0.65864270000E+03 0. -1.
    8880022    1    1    2    0    0 -0.54013768761E+03  0.90735781083E+03  0.14449552173E+04  0.17961999197E+04  0.15294330000E+03 0.  0.
<mgrwt>
<rscale>  0 0.11975481E+04</rscale>
<asrwt>0</asrwt>
<pdfrwt beam="1">  1        1 0.15970259E+00 0.12445309E+04</pdfrwt>
<pdfrwt beam="2">  1       -1 0.31839240E+00 0.12445309E+04</pdfrwt>
<totfact> 0.34751710E-01</totfact>
</mgrwt>
</event>
<event>
 4    5  0.8543352E-008  0.8374600E+03  0.7818608E-02  0.9634988E-01
         -1   -1    0    0    0  501 -0.00000000000E+00  0.00000000000E+00  0.13977358994E+04  0.13977358994E+04  0.50400000000E-02 0.  1.
          1   -1    0    0  501    0  0.00000000000E+00 -0.00000000000E+00 -0.25045844848E+04  0.25045844848E+04  0.50400000000E-02 0. -1.
    8880023    1    1    2    0    0  0.51721915373E+03  0.36610716626E+01 -0.23781691574E+04  0.25213146976E+04  0.65864270000E+03 0.  0.
    8880022    1    1    2    0    0 -0.51721915373E+03 -0.36610716626E+01  0.12713205720E+04  0.13810056866E+04  0.15294330000E+03 0.  0.
<mgrwt>
<rscale>  0 0.75023080E+03</rscale>
<asrwt>0</asrwt>
<pdfrwt beam="1">  1        1 0.38532069E+00 0.83746001E+03</pdfrwt>
<pdfrwt beam="2">  1       -1 0.21503629E+00 0.83746001E+03</pdfrwt>
<totfact> 0.16902245E-01</totfact>
</mgrwt>
</event>
<event>
 4    5  0.7176259E-008  0.7687070E+03  0.7818608E-02  0.9783066E-01
         -1   -1    0    0    0  501 -0.00000000000E+00  0.00000000000E+00  0.45607815380E+03  0.45607815382E+03  0.50400000000E-02 0.  1.
          1   -1    0    0  501    0  0.00000000000E+00 -0.00000000000E+00 -0.23907898920E+04  0.23907898920E+04  0.50400000000E-02 0. -1.
    8880023    1    1    2    0    0 -0.71628349265E+02 -0.38983290665E+03 -0.22105087191E+04  0.23403545285E+04  0.65864270000E+03 0.  0.
    8880022    1    1    2    0    0  0.71628349265E+02  0.38983290665E+03  0.27579698092E+03  0.50651351732E+03  0.15294330000E+03 0.  0.
<mgrwt>
<rscale>  0 0.66279295E+03</rscale>
<asrwt>0</asrwt>
<pdfrwt beam="1">  1        1 0.36781382E+00 0.76870705E+03</pdfrwt>
<pdfrwt beam="2">  1       -1 0.70165871E-01 0.76870705E+03</pdfrwt>
<totfact> 0.34927448E+00</totfact>
</mgrwt>
</event>
<event>
 4    5  0.7176259E-008  0.9643027E+03  0.7818608E-02  0.9429828E-01
         -1   -1    0    0    0  501 -0.00000000000E+00  0.00000000000E+00  0.14015695917E+04  0.14015695917E+04  0.50400000000E-02 0.  1.
          1   -1    0    0  501    0  0.00000000000E+00 -0.00000000000E+00 -0.11388066468E+04  0.11388066468E+04  0.50400000000E-02 0. -1.
    8880023    1    1    2    0    0 -0.66685008495E+03 -0.22667248018E+03 -0.80226502676E+03  0.12543958022E+04  0.65864270000E+03 0. -1.
    8880022    1    1    2    0    0  0.66685008495E+03  0.22667248018E+03  0.10650279717E+04  0.12859804363E+04  0.15294330000E+03 0.  0.
<mgrwt>
<rscale>  0 0.89661120E+03</rscale>
<asrwt>0</asrwt>
<pdfrwt beam="1">  1        1 0.17520102E+00 0.96430268E+03</pdfrwt>
<pdfrwt beam="2">  1       -1 0.21562609E+00 0.96430268E+03</pdfrwt>
<totfact> 0.14116801E+00</totfact>
</mgrwt>
</event>
<event>
 4    5  0.7176259E-008  0.7215754E+03  0.7818608E-02  0.9917291E-01
          1   -1    0    0  501    0  0.00000000000E+00  0.00000000000E+00  0.17060018801E+04  0.17060018801E+04  0.50400000000E-02 0. -1.
         -1   -1    0    0    0  501 -0.00000000000E+00 -0.00000000000E+00 -0.15006067884E+04  0.15006067884E+04  0.50400000000E-02 0.  1.
    8880023    1    1    2    0    0 -0.16047533336E+03 -0.24720143422E+03  0.16094621286E+04  0.17638138879E+04  0.65864270000E+03 0. -1.
    8880022    1    1    2    0    0  0.16047533336E+03  0.24720143422E+03 -0.14040670369E+04  0.14427947806E+04  0.15294330000E+03 0.  0.
<mgrwt>
<rscale>  0 0.59430567E+03</rscale>
<asrwt>0</asrwt>
<pdfrwt beam="1">  1        1 0.26246183E+00 0.72157542E+03</pdfrwt>
<pdfrwt beam="2">  1       -1 0.23086258E+00 0.72157542E+03</pdfrwt>
<totfact> 0.47050504E-01</totfact>
</mgrwt>
</event>
<event>
 4    5  0.7176259E-008  0.1302113E+04  0.7818608E-02  0.9063738E-01
         -1   -1    0    0    0  501 -0.00000000000E+00  0.00000000000E+00  0.68391568166E+03  0.68391568168E+03  0.50400000000E-02 0.  1.
          1   -1    0    0  501    0  0.00000000000E+00 -0.00000000000E+00 -0.25473260811E+04  0.25473260811E+04  0.50400000000E-02 0. -1.
    8880023    1    1    2    0    0  0.11019023025E+04 -0.21794212673E+03 -0.16082062951E+04  0.20692571490E+04  0.65864270000E+03 0.  0.
    8880022    1    1    2    0    0 -0.11019023025E+04  0.21794212673E+03 -0.25520410438E+03  0.11619846138E+04  0.15294330000E+03 0.  1.
<mgrwt>
<rscale>  0 0.12577742E+04</rscale>
<asrwt>0</asrwt>
<pdfrwt beam="1">  1        1 0.39189631E+00 0.13021128E+04</pdfrwt>
<pdfrwt beam="2">  1       -1 0.10521780E+00 0.13021128E+04</pdfrwt>
<totfact> 0.10401475E+00</totfact>
</mgrwt>
</event>
<event>
 4    5  0.7176259E-008  0.1084243E+04  0.7818608E-02  0.9278805E-01
          1   -1    0    0  501    0  0.00000000000E+00  0.00000000000E+00  0.15473119953E+04  0.15473119953E+04  0.50400000000E-02 0. -1.
         -1   -1    0    0    0  501 -0.00000000000E+00 -0.00000000000E+00 -0.65245479963E+03  0.65245479965E+03  0.50400000000E-02 0.  1.
    8880023    1    1    2    0    0  0.30122423839E+03 -0.80686856105E+03  0.73670997231E+03  0.13108488495E+04  0.65864270000E+03 0.  0.
    8880022    1    1    2    0    0 -0.30122423839E+03  0.80686856105E+03  0.15814722339E+03  0.88891794552E+03  0.15294330000E+03 0.  0.
<mgrwt>
<rscale>  0 0.10275770E+04</rscale>
<asrwt>0</asrwt>
<pdfrwt beam="1">  1        1 0.23804800E+00 0.10842431E+04</pdfrwt>
<pdfrwt beam="2">  1       -1 0.10037766E+00 0.10842431E+04</pdfrwt>
<totfact> 0.57113455E+00</totfact>
</mgrwt>
</event>
<event>
 4    5  0.7176259E-008  0.9678740E+03  0.7818608E-02  0.9424851E-01
          1   -1    0    0  501    0  0.00000000000E+00  0.00000000000E+00  0.11571578455E+04  0.11571578455E+04  0.50400000000E-02 0. -1.
         -1   -1    0    0    0  501 -0.00000000000E+00 -0.00000000000E+00 -0.73197451775E+03  0.73197451777E+03  0.50400000000E-02 0.  1.
    8880023    1    1    2    0    0  0.54945034413E+03 -0.44841286679E+03  0.60534787172E+03  0.11415892571E+04  0.65864270000E+03 0. -1.
    8880022    1    1    2    0    0 -0.54945034413E+03  0.44841286679E+03 -0.18016454395E+03  0.74754310624E+03  0.15294330000E+03 0.  0.
<mgrwt>
<rscale>  0 0.90058479E+03</rscale>
<asrwt>0</asrwt>
<pdfrwt beam="1">  1        1 0.17802428E+00 0.96787395E+03</pdfrwt>
<pdfrwt beam="2">  1       -1 0.11261146E+00 0.96787395E+03</pdfrwt>
<totfact> 0.83496450E+00</totfact>
</mgrwt>
</event>
<event>
 4    5  0.7176259E-008  0.1290076E+04  0.7818608E-02  0.9074178E-01
          1   -1    0    0  501    0  0.00000000000E+00  0.00000000000E+00  0.22044374827E+04  0.22044374827E+04  0.50400000000E-02 0. -1.
         -1   -1    0    0    0  501 -0.00000000000E+00 -0.00000000000E+00 -0.74938330607E+03  0.74938330608E+03  0.50400000000E-02 0.  1.
    8880023    1    1    2    0    0 -0.41321941207E+03 -0.10294341079E+04  0.12856447713E+04  0.18213120406E+04  0.65864270000E+03 0. -1.
    8880022    1    1    2    0    0  0.41321941207E+03  0.10294341079E+04  0.16940940538E+03  0.11325087482E+04  0.15294330000E+03 0.  0.
<mgrwt>
<rscale>  0 0.12452118E+04</rscale>
<asrwt>0</asrwt>
<pdfrwt beam="1">  1        1 0.33914422E+00 0.12900756E+04</pdfrwt>
<pdfrwt beam="2">  1       -1 0.11528974E+00 0.12900756E+04</pdfrwt>
<totfact> 0.14401983E+00</totfact>
</mgrwt>
</event>
<event>
 4    5  0.7176259E-008  0.1133033E+04  0.7818608E-02  0.9225140E-01
         -1   -1    0    0    0  501 -0.00000000000E+00  0.00000000000E+00  0.50503736986E+03  0.50503736988E+03  0.50400000000E-02 0.  1.
          1   -1    0    0  501    0  0.00000000000E+00 -0.00000000000E+00 -0.28141891716E+04  0.28141891716E+04  0.50400000000E-02 0. -1.
    8880023    1    1    2    0    0  0.37558372999E+03  0.84195577136E+03 -0.20616473577E+04  0.23524779899E+04  0.65864270000E+03 0.  0.
    8880022    1    1    2    0    0 -0.37558372999E+03 -0.84195577136E+03 -0.24750444402E+03  0.96674855158E+03  0.15294330000E+03 0.  0.
<mgrwt>
<rscale>  0 0.10797669E+04</rscale>
<asrwt>0</asrwt>
<pdfrwt beam="1">  1        1 0.43295217E+00 0.11330326E+04</pdfrwt>
<pdfrwt beam="2">  1       -1 0.77698058E-01 0.11330326E+04</pdfrwt>
<totfact> 0.13576125E+00</totfact>
</mgrwt>
</event>
<event>
 4    5  0.7176259E-008  0.7045126E+03  0.7818608E-02  0.9978972E-01
         -1   -1    0    0    0  501 -0.00000000000E+00  0.00000000000E+00  0.41433185386E+03  0.41433185390E+03  0.50400000000E-02 0.  1.
          1   -1    0    0  501    0  0.00000000000E+00 -0.00000000000E+00 -0.15441248000E+04  0.15441248001E+04  0.50400000000E-02 0. -1.
    8880023    1    1    2    0    0 -0.23736477336E+03 -0.78649284879E+02 -0.13952305687E+04  0.15630119295E+04  0.65864270000E+03 0. -1.
    8880022    1    1    2    0    0  0.23736477336E+03  0.78649284879E+02  0.26543762251E+03  0.39544472446E+03  0.15294330000E+03 0.  0.
<mgrwt>
<rscale>  0 0.56581956E+03</rscale>
<asrwt>0</asrwt>
<pdfrwt beam="1">  1        1 0.23755766E+00 0.70451256E+03</pdfrwt>
<pdfrwt beam="2">  1       -1 0.63743363E-01 0.70451256E+03</pdfrwt>
<totfact> 0.15878174E+01</totfact>
</mgrwt>
</event>
<event>
 4    5  0.7176259E-008  0.7621278E+03  0.7818608E-02  0.9799630E-01
         -1   -1    0    0    0  501 -0.00000000000E+00  0.00000000000E+00  0.15995829998E+03  0.15995830006E+03  0.50400000000E-02 0.  1.
          1   -1    0    0  501    0  0.00000000000E+00 -0.00000000000E+00 -0.41122660395E+04  0.41122660395E+04  0.50400000000E-02 0. -1.
    8880023    1    1    2    0    0  0.31574222409E+03 -0.21756703795E+03 -0.37225684191E+04  0.37997834687E+04  0.65864270000E+03 0.  0.
    8880022    1    1    2    0    0 -0.31574222409E+03  0.21756703795E+03 -0.22973932042E+03  0.47244087084E+03  0.15294330000E+03 0.  0.
<mgrwt>
<rscale>  0 0.65382420E+03</rscale>
<asrwt>0</asrwt>
<pdfrwt beam="1">  1        1 0.63265623E+00 0.76212779E+03</pdfrwt>
<pdfrwt beam="2">  1       -1 0.24608972E-01 0.76212779E+03</pdfrwt>
<totfact> 0.12099812E+00</totfact>
</mgrwt>
</event>
<event>
 4    5  0.7176259E-008  0.1468982E+04  0.7818608E-02  0.8931855E-01
          1   -1    0    0  501    0  0.00000000000E+00  0.00000000000E+00  0.11098959635E+04  0.11098959635E+04  0.50400000000E-02 0. -1.
         -1   -1    0    0    0  501 -0.00000000000E+00 -0.00000000000E+00 -0.21665077368E+04  0.21665077368E+04  0.50400000000E-02 0.  1.
    8880023    1    1    2    0    0  0.13002762487E+04 -0.18270330816E+03 -0.12644576843E+04  0.19382368955E+04  0.65864270000E+03 0.  0.
    8880022    1    1    2    0    0 -0.13002762487E+04  0.18270330816E+03  0.20784591097E+03  0.13381668048E+04  0.15294330000E+03 0.  0.
<mgrwt>
<rscale>  0 0.14307517E+04</rscale>
<asrwt>0</asrwt>
<pdfrwt beam="1">  1        1 0.17075323E+00 0.14689823E+04</pdfrwt>
<pdfrwt beam="2">  1       -1 0.33330888E+00 0.14689823E+04</pdfrwt>
<totfact> 0.23804201E-01</totfact>
</mgrwt>
</event>
<event>
 4    5  0.7176259E-008  0.6796464E+03  0.7818608E-02  0.1009524E+00
          1   -1    0    0  501    0  0.00000000000E+00  0.00000000000E+00  0.57610210427E+03  0.57610210429E+03  0.50400000000E-02 0. -1.
         -1   -1    0    0    0  501 -0.00000000000E+00 -0.00000000000E+00 -0.52124923578E+03  0.52124923581E+03  0.50400000000E-02 0.  1.
    8880023    1    1    2    0    0 -0.13221014660E+03  0.10309943971E+03  0.31757857473E+03  0.75018356068E+03  0.65864270000E+03 0.  0.
    8880022    1    1    2    0    0  0.13221014660E+03 -0.10309943971E+03 -0.26272570624E+03  0.34716777942E+03  0.15294330000E+03 0.  0.
<mgrwt>
<rscale>  0 0.51664101E+03</rscale>
<asrwt>0</asrwt>
<pdfrwt beam="1">  1        1 0.88631092E-01 0.67964640E+03</pdfrwt>
<pdfrwt beam="2">  1       -1 0.80192191E-01 0.67964640E+03</pdfrwt>
<totfact> 0.57892022E+01</totfact>
</mgrwt>
</event>
<event>
 4    5  0.7176259E-008  0.1275823E+04  0.7818608E-02  0.9086725E-01
          1   -1    0    0  501    0  0.00000000000E+00  0.00000000000E+00  0.90558304235E+03  0.90558304236E+03  0.50400000000E-02 0. -1.
         -1   -1    0    0    0  501 -0.00000000000E+00 -0.00000000000E+00 -0.18197167300E+04  0.18197167300E+04  0.50400000000E-02 0.  1.
    8880023    1    1    2    0    0 -0.10519619099E+04 -0.29544835717E+03  0.25514549665E+02  0.12760778934E+04  0.65864270000E+03 0.  0.
    8880022    1    1    2    0    0  0.10519619099E+04  0.29544835717E+03 -0.93964823735E+03  0.14492218790E+04  0.15294330000E+03 0.  0.
<mgrwt>
<rscale>  0 0.12303189E+04</rscale>
<asrwt>0</asrwt>
<pdfrwt beam="1">  1        1 0.13932047E+00 0.12758228E+04</pdfrwt>
<pdfrwt beam="2">  1       -1 0.27995642E+00 0.12758228E+04</pdfrwt>
<totfact> 0.78244719E-01</totfact>
</mgrwt>
</event>
<event>
 4    5  0.7176259E-008  0.7779179E+03  0.7818608E-02  0.9760751E-01
          1   -1    0    0  501    0  0.00000000000E+00  0.00000000000E+00  0.86124744230E+03  0.86124744231E+03  0.50400000000E-02 0. -1.
         -1   -1    0    0    0  501 -0.00000000000E+00 -0.00000000000E+00 -0.65997636864E+03  0.65997636866E+03  0.50400000000E-02 0.  1.
    8880023    1    1    2    0    0  0.26652444030E+03 -0.31671883021E+03  0.55504581163E+03  0.95563180878E+03  0.65864270000E+03 0.  0.
    8880022    1    1    2    0    0 -0.26652444030E+03  0.31671883021E+03 -0.35377473797E+03  0.56559200218E+03  0.15294330000E+03 0.  0.
<mgrwt>
<rscale>  0 0.67512098E+03</rscale>
<asrwt>0</asrwt>
<pdfrwt beam="1">  1        1 0.13249961E+00 0.77791793E+03</pdfrwt>
<pdfrwt beam="2">  1       -1 0.10153483E+00 0.77791793E+03</pdfrwt>
<totfact> 0.18484926E+01</totfact>
</mgrwt>
</event>
<event>
 4    5  0.7176259E-008  0.8135040E+03  0.7818608E-02  0.9682324E-01
          1   -1    0    0  501    0  0.00000000000E+00  0.00000000000E+00  0.13249885835E+04  0.13249885835E+04  0.50400000000E-02 0. -1.
         -1   -1    0    0    0  501 -0.00000000000E+00 -0.00000000000E+00 -0.77916666684E+03  0.77916666686E+03  0.50400000000E-02 0.  1.
    8880023    1    1    2    0    0  0.33897131073E+03  0.33626920840E+03  0.10926766000E+04  0.13622521384E+04  0.65864270000E+03 0. -1.
    8880022    1    1    2    0    0 -0.33897131073E+03 -0.33626920840E+03 -0.54685468330E+03  0.74190311205E+03  0.15294330000E+03 0.  0.
<mgrwt>
<rscale>  0 0.72079038E+03</rscale>
<asrwt>0</asrwt>
<pdfrwt beam="1">  1        1 0.20384440E+00 0.81350399E+03</pdfrwt>
<pdfrwt beam="2">  1       -1 0.11987180E+00 0.81350399E+03</pdfrwt>
<totfact> 0.55449496E+00</totfact>
</mgrwt>
</event>
<event>
 4    5  0.7176259E-008  0.7417227E+03  0.7818608E-02  0.9854957E-01
         -1   -1    0    0    0  501 -0.00000000000E+00  0.00000000000E+00  0.29634737896E+03  0.29634737901E+03  0.50400000000E-02 0.  1.
          1   -1    0    0  501    0  0.00000000000E+00 -0.00000000000E+00 -0.17138473449E+04  0.17138473449E+04  0.50400000000E-02 0. -1.
    8880023    1    1    2    0    0 -0.68976312224E+01  0.34102028624E+03 -0.14563687570E+04  0.16343691675E+04  0.65864270000E+03 0. -1.
    8880022    1    1    2    0    0  0.68976312224E+01 -0.34102028624E+03  0.38868791071E+02  0.37582555644E+03  0.15294330000E+03 0.  0.
<mgrwt>
<rscale>  0 0.62494814E+03</rscale>
<asrwt>0</asrwt>
<pdfrwt beam="1">  1        1 0.26366882E+00 0.74172274E+03</pdfrwt>
<pdfrwt beam="2">  1       -1 0.45591905E-01 0.74172274E+03</pdfrwt>
<totfact> 0.23118488E+01</totfact>
</mgrwt>
</event>
<event>
 4    5  0.7176259E-008  0.1837431E+04  0.7818608E-02  0.8702109E-01
          1   -1    0    0  501    0  0.00000000000E+00  0.00000000000E+00  0.32121805149E+04  0.32121805149E+04  0.50400000000E-02 0. -1.
         -1   -1    0    0    0  501 -0.00000000000E+00 -0.00000000000E+00 -0.10066791276E+04  0.10066791276E+04  0.50400000000E-02 0.  1.
    8880023    1    1    2    0    0 -0.47178232379E+03  0.16491703566E+04  0.14389877688E+04  0.23338460599E+04  0.65864270000E+03 0. -1.
    8880022    1    1    2    0    0  0.47178232379E+03 -0.16491703566E+04  0.76651361863E+03  0.18850135827E+04  0.15294330000E+03 0.  0.
<mgrwt>
<rscale>  0 0.18079014E+04</rscale>
<asrwt>0</asrwt>
<pdfrwt beam="1">  1        1 0.49418162E+00 0.18374307E+04</pdfrwt>
<pdfrwt beam="2">  1       -1 0.15487371E+00 0.18374307E+04</pdfrwt>
<totfact> 0.12197903E-01</totfact>
</mgrwt>
</event>
<event>
 4    5  0.7176259E-008  0.1296573E+04  0.7818608E-02  0.9068525E-01
          1   -1    0    0  501    0  0.00000000000E+00  0.00000000000E+00  0.20105923219E+04  0.20105923219E+04  0.50400000000E-02 0. -1.
         -1   -1    0    0    0  501 -0.00000000000E+00 -0.00000000000E+00 -0.13534859147E+04  0.13534859147E+04  0.50400000000E-02 0.  1.
    8880023    1    1    2    0    0  0.46373577028E+03  0.10159929361E+04  0.14806073757E+04  0.19680703539E+04  0.65864270000E+03 0. -1.
    8880022    1    1    2    0    0 -0.46373577028E+03 -0.10159929361E+04 -0.82350096845E+03  0.13960078828E+04  0.15294330000E+03 0.  0.
<mgrwt>
<rscale>  0 0.12519949E+04</rscale>
<asrwt>0</asrwt>
<pdfrwt beam="1">  1        1 0.30932190E+00 0.12965735E+04</pdfrwt>
<pdfrwt beam="2">  1       -1 0.20822860E+00 0.12965735E+04</pdfrwt>
<totfact> 0.37530427E-01</totfact>
</mgrwt>
</event>
<event>
 4    5  0.7176259E-008  0.1126778E+04  0.7818608E-02  0.9231812E-01
          1   -1    0    0  501    0  0.00000000000E+00  0.00000000000E+00  0.17466855152E+04  0.17466855152E+04  0.50400000000E-02 0. -1.
         -1   -1    0    0    0  501 -0.00000000000E+00 -0.00000000000E+00 -0.10351428741E+04  0.10351428741E+04  0.50400000000E-02 0.  1.
    8880023    1    1    2    0    0 -0.64643794428E+03 -0.64647916877E+03  0.12714717534E+04  0.16989019858E+04  0.65864270000E+03 0. -1.
    8880022    1    1    2    0    0  0.64643794428E+03  0.64647916877E+03 -0.55992911233E+03  0.10829264035E+04  0.15294330000E+03 0.  0.
<mgrwt>
<rscale>  0 0.10731019E+04</rscale>
<asrwt>0</asrwt>
<pdfrwt beam="1">  1        1 0.26872085E+00 0.11267775E+04</pdfrwt>
<pdfrwt beam="2">  1       -1 0.15925275E+00 0.11267775E+04</pdfrwt>
<totfact> 0.12988188E+00</totfact>
</mgrwt>
</event>
<event>
 4    5  0.7176259E-008  0.8267584E+03  0.7818608E-02  0.9655673E-01
         -1   -1    0    0    0  501 -0.00000000000E+00  0.00000000000E+00  0.30088417687E+03  0.30088417691E+03  0.50400000000E-02 0.  1.
          1   -1    0    0  501    0  0.00000000000E+00 -0.00000000000E+00 -0.22600240700E+04  0.22600240700E+04  0.50400000000E-02 0. -1.
    8880023    1    1    2    0    0 -0.74441309431E+02  0.49414349537E+03 -0.18509856320E+04  0.20272339082E+04  0.65864270000E+03 0.  0.
    8880022    1    1    2    0    0  0.74441309431E+02 -0.49414349537E+03 -0.10815426115E+03  0.53367433870E+03  0.15294330000E+03 0.  0.
<mgrwt>
<rscale>  0 0.73718479E+03</rscale>
<asrwt>0</asrwt>
<pdfrwt beam="1">  1        1 0.34769600E+00 0.82675843E+03</pdfrwt>
<pdfrwt beam="2">  1       -1 0.46289875E-01 0.82675843E+03</pdfrwt>
<totfact> 0.95549801E+00</totfact>
</mgrwt>
</event>
<event>
 4    5  0.7176259E-008  0.1154954E+04  0.7818608E-02  0.9202204E-01
          1   -1    0    0  501    0  0.00000000000E+00  0.00000000000E+00  0.95288504361E+03  0.95288504363E+03  0.50400000000E-02 0. -1.
         -1   -1    0    0    0  501 -0.00000000000E+00 -0.00000000000E+00 -0.23817181175E+04  0.23817181175E+04  0.50400000000E-02 0.  1.
    8880023    1    1    2    0    0  0.86499016833E+03 -0.38974461214E+03  0.43778027250E+03  0.12351399221E+04  0.65864270000E+03 0. -1.
    8880022    1    1    2    0    0 -0.86499016833E+03  0.38974461214E+03 -0.18666133464E+04  0.20994632390E+04  0.15294330000E+03 0.  0.
<mgrwt>
<rscale>  0 0.11030703E+04</rscale>
<asrwt>0</asrwt>
<pdfrwt beam="1">  1        1 0.14659770E+00 0.11549541E+04</pdfrwt>
<pdfrwt beam="2">  1       -1 0.36641817E+00 0.11549541E+04</pdfrwt>
<totfact> 0.19854146E-01</totfact>
</mgrwt>
</event>
<event>
 4    5  0.7176259E-008  0.7080251E+03  0.7818608E-02  0.9965409E-01
          1   -1    0    0  501    0  0.00000000000E+00  0.00000000000E+00  0.11710116707E+04  0.11710116707E+04  0.50400000000E-02 0. -1.
         -1   -1    0    0    0  501 -0.00000000000E+00 -0.00000000000E+00 -0.12338234644E+04  0.12338234644E+04  0.50400000000E-02 0.  1.
    8880023    1    1    2    0    0  0.25789872983E+03  0.31265745910E+02  0.10419134880E+04  0.12597155331E+04  0.65864270000E+03 0. -1.
    8880022    1    1    2    0    0 -0.25789872983E+03 -0.31265745910E+02 -0.11047252817E+04  0.11451196019E+04  0.15294330000E+03 0.  0.
<mgrwt>
<rscale>  0 0.57193357E+03</rscale>
<asrwt>0</asrwt>
<pdfrwt beam="1">  1        1 0.18015564E+00 0.70802508E+03</pdfrwt>
<pdfrwt beam="2">  1       -1 0.18981899E+00 0.70802508E+03</pdfrwt>
<totfact> 0.20934674E+00</totfact>
</mgrwt>
</event>
<event>
 4    5  0.7176259E-008  0.8492684E+03  0.7818608E-02  0.9612945E-01
         -1   -1    0    0    0  501 -0.00000000000E+00  0.00000000000E+00  0.35920457295E+03  0.35920457299E+03  0.50400000000E-02 0.  1.
          1   -1    0    0  501    0  0.00000000000E+00 -0.00000000000E+00 -0.24502288250E+04  0.24502288250E+04  0.50400000000E-02 0. -1.
    8880023    1    1    2    0    0 -0.53445057725E+03  0.42535492960E+02 -0.20855930506E+04  0.22518781642E+04  0.65864270000E+03 0. -1.
    8880022    1    1    2    0    0  0.53445057725E+03 -0.42535492960E+02 -0.54312014278E+01  0.55755523372E+03  0.15294330000E+03 0.  0.
<mgrwt>
<rscale>  0 0.76445260E+03</rscale>
<asrwt>0</asrwt>
<pdfrwt beam="1">  1        1 0.37695827E+00 0.84926845E+03</pdfrwt>
<pdfrwt beam="2">  1       -1 0.55262244E-01 0.84926845E+03</pdfrwt>
<totfact> 0.50502418E+00</totfact>
</mgrwt>
</event>
<event>
 4    5  0.7176259E-008  0.7079248E+03  0.7818608E-02  0.9965789E-01
         -1   -1    0    0    0  501 -0.00000000000E+00  0.00000000000E+00  0.12190774673E+04  0.12190774673E+04  0.50400000000E-02 0.  1.
          1   -1    0    0  501    0  0.00000000000E+00 -0.00000000000E+00 -0.35067229079E+04  0.35067229079E+04  0.50400000000E-02 0. -1.
    8880023    1    1    2    0    0  0.44697106488E+02 -0.25563551099E+03 -0.34516250104E+04  0.35234745301E+04  0.65864270000E+03 0. -1.
    8880022    1    1    2    0    0 -0.44697106488E+02  0.25563551099E+03  0.11639795698E+04  0.12023258451E+04  0.15294330000E+03 0.  0.
<mgrwt>
<rscale>  0 0.57176110E+03</rscale>
<asrwt>0</asrwt>
<pdfrwt beam="1">  1        1 0.53949583E+00 0.70792482E+03</pdfrwt>
<pdfrwt beam="2">  1       -1 0.18755038E+00 0.70792482E+03</pdfrwt>
<totfact> 0.51060898E-02</totfact>
</mgrwt>
</event>
<event>
 4    5  0.7176259E-008  0.7585012E+03  0.7818608E-02  0.9809003E-01
          1   -1    0    0  501    0  0.00000000000E+00  0.00000000000E+00  0.10091634720E+04  0.10091634720E+04  0.50400000000E-02 0. -1.
         -1   -1    0    0    0  501 -0.00000000000E+00 -0.00000000000E+00 -0.10266573226E+04  0.10266573226E+04  0.50400000000E-02 0.  1.
    8880023    1    1    2    0    0  0.28427878385E+02  0.37510768004E+03  0.81267717615E+03  0.11116511660E+04  0.65864270000E+03 0. -1.
    8880022    1    1    2    0    0 -0.28427878385E+02 -0.37510768004E+03 -0.83017102678E+03  0.92416962870E+03  0.15294330000E+03 0.  0.
<mgrwt>
<rscale>  0 0.64881612E+03</rscale>
<asrwt>0</asrwt>
<pdfrwt beam="1">  1        1 0.15525592E+00 0.75850123E+03</pdfrwt>
<pdfrwt beam="2">  1       -1 0.15794728E+00 0.75850123E+03</pdfrwt>
<totfact> 0.46700138E+00</totfact>
</mgrwt>
</event>
<event>
 4    5  0.7176259E-008  0.9585307E+03  0.7818608E-02  0.9437945E-01
         -1   -1    0    0    0  501 -0.00000000000E+00  0.00000000000E+00  0.11306429191E+04  0.11306429191E+04  0.50400000000E-02 0.  1.
          1   -1    0    0  501    0  0.00000000000E+00 -0.00000000000E+00 -0.14380345639E+04  0.14380345640E+04  0.50400000000E-02 0. -1.
    8880023    1    1    2    0    0 -0.52849841409E+03  0.45349793277E+03 -0.11288771742E+04  0.14809270169E+04  0.65864270000E+03 0.  0.
    8880022    1    1    2    0    0  0.52849841409E+03 -0.45349793277E+03  0.82148552935E+03  0.10877504662E+04  0.15294330000E+03 0.  0.
<mgrwt>
<rscale>  0 0.89017671E+03</rscale>
<asrwt>0</asrwt>
<pdfrwt beam="1">  1        1 0.22123609E+00 0.95853073E+03</pdfrwt>
<pdfrwt beam="2">  1       -1 0.17394506E+00 0.95853073E+03</pdfrwt>
<totfact> 0.16827871E+00</totfact>
</mgrwt>
</event>
<event>
 4    5  0.7176259E-008  0.6830358E+03  0.7818608E-02  0.1007656E+00
         -1   -1    0    0    0  501 -0.00000000000E+00  0.00000000000E+00  0.80662681752E+03  0.80662681754E+03  0.50400000000E-02 0.  1.
          1   -1    0    0  501    0  0.00000000000E+00 -0.00000000000E+00 -0.34109570937E+03  0.34109570940E+03  0.50400000000E-02 0. -1.
    8880023    1    1    2    0    0  0.11090749938E+02  0.18056780487E+03  0.69917680271E+02  0.68660499938E+03  0.65864270000E+03 0. -1.
    8880022    1    1    2    0    0 -0.11090749938E+02 -0.18056780487E+03  0.39561342789E+03  0.46111752757E+03  0.15294330000E+03 0.  0.
<mgrwt>
<rscale>  0 0.52416948E+03</rscale>
<asrwt>0</asrwt>
<pdfrwt beam="1">  1        1 0.52476264E-01 0.68303583E+03</pdfrwt>
<pdfrwt beam="2">  1       -1 0.12409643E+00 0.68303583E+03</pdfrwt>
<totfact> 0.43363323E+01</totfact>
</mgrwt>
</event>
<event>
 4    5  0.7176259E-008  0.7239145E+03  0.7818608E-02  0.9909557E-01
          1   -1    0    0  501    0  0.00000000000E+00  0.00000000000E+00  0.60985492193E+03  0.60985492196E+03  0.50400000000E-02 0. -1.
         -1   -1    0    0    0  501 -0.00000000000E+00 -0.00000000000E+00 -0.55315070078E+04  0.55315070078E+04  0.50400000000E-02 0.  1.
    8880023    1    1    2    0    0 -0.20132091501E+03 -0.22296159581E+03  0.38778364052E+03  0.82123586268E+03  0.65864270000E+03 0. -1.
    8880022    1    1    2    0    0  0.20132091501E+03  0.22296159581E+03 -0.53094357264E+04  0.53201260671E+04  0.15294330000E+03 0.  0.
<mgrwt>
<rscale>  0 0.59800362E+03</rscale>
<asrwt>0</asrwt>
<pdfrwt beam="1">  1        1 0.93823838E-01 0.72391449E+03</pdfrwt>
<pdfrwt beam="2">  1       -1 0.85100104E+00 0.72391449E+03</pdfrwt>
<totfact> 0.11834206E-03</totfact>
</mgrwt>
</event>
<event>
 4    5  0.7176259E-008  0.1334449E+04  0.7818608E-02  0.9036367E-01
         -1   -1    0    0    0  501 -0.00000000000E+00  0.00000000000E+00  0.54869884425E+03  0.54869884427E+03  0.50400000000E-02 0.  1.
          1   -1    0    0  501    0  0.00000000000E+00 -0.00000000000E+00 -0.39277936816E+04  0.39277936816E+04  0.50400000000E-02 0. -1.
    8880023    1    1    2    0    0  0.40984057951E+03  0.10858065398E+04 -0.60434483249E+03  0.14649191190E+04  0.65864270000E+03 0.  0.
    8880022    1    1    2    0    0 -0.40984057951E+03 -0.10858065398E+04 -0.27747500048E+04  0.30115734068E+04  0.15294330000E+03 0.  0.
<mgrwt>
<rscale>  0 0.12914572E+04</rscale>
<asrwt>0</asrwt>
<pdfrwt beam="1">  1        1 0.60427593E+00 0.13344495E+04</pdfrwt>
<pdfrwt beam="2">  1       -1 0.84415209E-01 0.13344495E+04</pdfrwt>
<totfact> 0.15319601E-01</totfact>
</mgrwt>
</event>
<event>
 4    5  0.7176259E-008  0.1269583E+04  0.7818608E-02  0.9092282E-01
         -1   -1    0    0    0  501 -0.00000000000E+00  0.00000000000E+00  0.24724832433E+04  0.24724832433E+04  0.50400000000E-02 0.  1.
          1   -1    0    0  501    0  0.00000000000E+00 -0.00000000000E+00 -0.14646003261E+04  0.14646003261E+04  0.50400000000E-02 0. -1.
    8880023    1    1    2    0    0 -0.62935113764E+03 -0.88427854303E+03 -0.10222300880E+04  0.16299680841E+04  0.65864270000E+03 0.  0.
    8880022    1    1    2    0    0  0.62935113764E+03  0.88427854303E+03  0.20301130052E+04  0.23071154854E+04  0.15294330000E+03 0.  0.
<mgrwt>
<rscale>  0 0.12237928E+04</rscale>
<asrwt>0</asrwt>
<pdfrwt beam="1">  1        1 0.22532313E+00 0.12695832E+04</pdfrwt>
<pdfrwt beam="2">  1       -1 0.38038203E+00 0.12695832E+04</pdfrwt>
<totfact> 0.65902996E-02</totfact>
</mgrwt>
</event>
<event>
 4    5  0.7176259E-008  0.7171928E+03  0.7818608E-02  0.9932201E-01
         -1   -1    0    0    0  501 -0.00000000000E+00  0.00000000000E+00  0.22611324581E+04  0.22611324581E+04  0.50400000000E-02 0.  1.
          1   -1    0    0  501    0  0.00000000000E+00 -0.00000000000E+00 -0.26625225189E+03  0.26625225194E+03  0.50400000000E-02 0. -1.
    8880023    1    1    2    0    0  0.25792078139E+03 -0.11845768661E+03  0.26010254108E+03  0.76290162611E+03  0.65864270000E+03 0.  0.
    8880022    1    1    2    0    0 -0.25792078139E+03  0.11845768661E+03  0.17347776652E+04  0.17644830839E+04  0.15294330000E+03 0.  0.
<mgrwt>
<rscale>  0 0.58725734E+03</rscale>
<asrwt>0</asrwt>
<pdfrwt beam="1">  1        1 0.40961887E-01 0.71719283E+03</pdfrwt>
<pdfrwt beam="2">  1       -1 0.34786652E+00 0.71719283E+03</pdfrwt>
<totfact> 0.17494248E+00</totfact>
</mgrwt>
</event>
<event>
 4    5  0.7176259E-008  0.1157081E+04  0.7818608E-02  0.9200016E-01
          1   -1    0    0  501    0  0.00000000000E+00  0.00000000000E+00  0.11368543082E+04  0.11368543082E+04  0.50400000000E-02 0. -1.
         -1   -1    0    0    0  501 -0.00000000000E+00 -0.00000000000E+00 -0.17114917747E+04  0.17114917747E+04  0.50400000000E-02 0.  1.
    8880023    1    1    2    0    0 -0.47337267956E+03  0.82519331514E+03  0.62066883545E+03  0.13130368276E+04  0.65864270000E+03 0.  0.
    8880022    1    1    2    0    0  0.47337267956E+03 -0.82519331514E+03 -0.11953063020E+04  0.15353092554E+04  0.15294330000E+03 0.  0.
<mgrwt>
<rscale>  0 0.11053267E+04</rscale>
<asrwt>0</asrwt>
<pdfrwt beam="1">  1        1 0.17490066E+00 0.11570808E+04</pdfrwt>
<pdfrwt beam="2">  1       -1 0.26330643E+00 0.11570808E+04</pdfrwt>
<totfact> 0.67105657E-01</totfact>
</mgrwt>
</event>
<event>
 4    5  0.7176259E-008  0.9300360E+03  0.7818608E-02  0.9479439E-01
         -1   -1    0    0    0  501 -0.00000000000E+00  0.00000000000E+00  0.52305302167E+03  0.52305302169E+03  0.50400000000E-02 0.  1.
          1   -1    0    0  501    0  0.00000000000E+00 -0.00000000000E+00 -0.22671224337E+04  0.22671224337E+04  0.50400000000E-02 0. -1.
    8880023    1    1    2    0    0 -0.16593847832E+03 -0.63531184432E+03 -0.18845020765E+04  0.21015030337E+04  0.65864270000E+03 0. -1.
    8880022    1    1    2    0    0  0.16593847832E+03  0.63531184432E+03  0.14043266447E+03  0.68867242168E+03  0.15294330000E+03 0.  0.
<mgrwt>
<rscale>  0 0.85816802E+03</rscale>
<asrwt>0</asrwt>
<pdfrwt beam="1">  1        1 0.34878806E+00 0.93003598E+03</pdfrwt>
<pdfrwt beam="2">  1       -1 0.80469697E-01 0.93003598E+03</pdfrwt>
<totfact> 0.30966871E+00</totfact>
</mgrwt>
</event>
<event>
 4    5  0.7176259E-008  0.8743282E+03  0.7818608E-02  0.9568568E-01
          1   -1    0    0  501    0  0.00000000000E+00  0.00000000000E+00  0.32400290058E+03  0.32400290062E+03  0.50400000000E-02 0. -1.
         -1   -1    0    0    0  501 -0.00000000000E+00 -0.00000000000E+00 -0.24809693348E+04  0.24809693348E+04  0.50400000000E-02 0.  1.
    8880023    1    1    2    0    0  0.33100787805E+03 -0.47018434227E+03 -0.42205606462E+03  0.97086613856E+03  0.65864270000E+03 0. -1.
    8880022    1    1    2    0    0 -0.33100787805E+03  0.47018434227E+03 -0.17349103696E+04  0.18341060969E+04  0.15294330000E+03 0.  0.
<mgrwt>
<rscale>  0 0.79411983E+03</rscale>
<asrwt>0</asrwt>
<pdfrwt beam="1">  1        1 0.49846602E-01 0.87432816E+03</pdfrwt>
<pdfrwt beam="2">  1       -1 0.38168758E+00 0.87432816E+03</pdfrwt>
<totfact> 0.78857739E-01</totfact>
</mgrwt>
</event>
<event>
 4    5  0.7176259E-008  0.6957461E+03  0.7818608E-02  0.1001533E+00
          1   -1    0    0  501    0  0.00000000000E+00  0.00000000000E+00  0.59767853853E+03  0.59767853855E+03  0.50400000000E-02 0. -1.
         -1   -1    0    0    0  501 -0.00000000000E+00 -0.00000000000E+00 -0.52299820611E+03  0.52299820613E+03  0.50400000000E-02 0.  1.
    8880023    1    1    2    0    0  0.16494253022E+03 -0.15181055016E+03  0.30981147871E+03  0.76160740544E+03  0.65864270000E+03 0. -1.
    8880022    1    1    2    0    0 -0.16494253022E+03  0.15181055016E+03 -0.23513114629E+03  0.35906933924E+03  0.15294330000E+03 0.  0.
<mgrwt>
<rscale>  0 0.54983246E+03</rscale>
<asrwt>0</asrwt>
<pdfrwt beam="1">  1        1 0.91950545E-01 0.69574614E+03</pdfrwt>
<pdfrwt beam="2">  1       -1 0.80461262E-01 0.69574614E+03</pdfrwt>
<totfact> 0.54465309E+01</totfact>
</mgrwt>
</event>
<event>
 4    5  0.7595241E-008  0.1141215E+04  0.7818608E-02  0.9216499E-01
         -1   -1    0    0    0  501 -0.00000000000E+00  0.00000000000E+00  0.11853738356E+04  0.11853738356E+04  0.50400000000E-02 0.  1.
          1   -1    0    0  501    0  0.00000000000E+00 -0.00000000000E+00 -0.20106736350E+04  0.20106736350E+04  0.50400000000E-02 0. -1.
    8880023    1    1    2    0    0  0.33046128127E+03  0.87141028234E+03 -0.16063672910E+04  0.19704787790E+04  0.65864270000E+03 0.  0.
    8880022    1    1    2    0    0 -0.33046128127E+03 -0.87141028234E+03  0.78106749159E+03  0.12255686917E+04  0.15294330000E+03 0.  0.
<mgrwt>
<rscale>  0 0.10884743E+04</rscale>
<asrwt>0</asrwt>
<pdfrwt beam="1">  1        1 0.30933440E+00 0.11412146E+04</pdfrwt>
<pdfrwt beam="2">  1       -1 0.18236521E+00 0.11412146E+04</pdfrwt>
<totfact> 0.58074748E-01</totfact>
</mgrwt>
</event>
<event>
 4    5  0.7176259E-008  0.7762080E+03  0.7818608E-02  0.9764821E-01
         -1   -1    0    0    0  501 -0.00000000000E+00  0.00000000000E+00  0.11460218284E+04  0.11460218284E+04  0.50400000000E-02 0.  1.
          1   -1    0    0  501    0  0.00000000000E+00 -0.00000000000E+00 -0.11201959263E+04  0.11201959263E+04  0.50400000000E-02 0. -1.
    8880023    1    1    2    0    0 -0.30642824071E+03 -0.27347818679E+03 -0.93199172069E+03  0.12128921465E+04  0.65864270000E+03 0. -1.
    8880022    1    1    2    0    0  0.30642824071E+03  0.27347818679E+03  0.95781762282E+03  0.10533256082E+04  0.15294330000E+03 0.  0.
<mgrwt>
<rscale>  0 0.67285100E+03</rscale>
<asrwt>0</asrwt>
<pdfrwt beam="1">  1        1 0.17233784E+00 0.77620796E+03</pdfrwt>
<pdfrwt beam="2">  1       -1 0.17631105E+00 0.77620796E+03</pdfrwt>
<totfact> 0.28090700E+00</totfact>
</mgrwt>
</event>
<event>
 4    5  0.7176259E-008  0.1003071E+04  0.7818608E-02  0.9377551E-01
         -1   -1    0    0    0  501 -0.00000000000E+00  0.00000000000E+00  0.96302123610E+03  0.96302123611E+03  0.50400000000E-02 0.  1.
          1   -1    0    0  501    0  0.00000000000E+00 -0.00000000000E+00 -0.16308452038E+04  0.16308452038E+04  0.50400000000E-02 0. -1.
    8880023    1    1    2    0    0  0.33524861477E+03  0.67819575289E+03 -0.12675444894E+04  0.16164220834E+04  0.65864270000E+03 0. -1.
    8880022    1    1    2    0    0 -0.33524861477E+03 -0.67819575289E+03  0.59972052167E+03  0.97744435651E+03  0.15294330000E+03 0.  0.
<mgrwt>
<rscale>  0 0.93946407E+03</rscale>
<asrwt>0</asrwt>
<pdfrwt beam="1">  1        1 0.25089926E+00 0.10030709E+04</pdfrwt>
<pdfrwt beam="2">  1       -1 0.14815711E+00 0.10030709E+04</pdfrwt>
<totfact> 0.19291140E+00</totfact>
</mgrwt>
</event>
<event>
 4    5  0.7176259E-008  0.6617251E+03  0.7818608E-02  0.1022455E+00
          1   -1    0    0  501    0  0.00000000000E+00  0.00000000000E+00  0.14965843578E+04  0.14965843578E+04  0.50400000000E-02 0. -1.
         -1   -1    0    0    0  501 -0.00000000000E+00 -0.00000000000E+00 -0.18084140904E+03  0.18084140911E+03  0.50400000000E-02 0.  1.
    8880023    1    1    2    0    0 -0.62289384415E+02  0.13783905139E+02  0.13542693426E+04  0.15072908220E+04  0.65864270000E+03 0. -1.
    8880022    1    1    2    0    0  0.62289384415E+02 -0.13783905139E+02 -0.38526393846E+02  0.17013494494E+03  0.15294330000E+03 0.  0.
<mgrwt>
<rscale>  0 0.46811116E+03</rscale>
<asrwt>0</asrwt>
<pdfrwt beam="1">  1        1 0.23024375E+00 0.66172515E+03</pdfrwt>
<pdfrwt beam="2">  1       -1 0.27821755E-01 0.66172515E+03</pdfrwt>
<totfact> 0.79153502E+01</totfact>
</mgrwt>
</event>
<event>
 4    5  0.7176259E-008  0.7189316E+03  0.7818608E-02  0.9926218E-01
         -1   -1    0    0    0  501 -0.00000000000E+00  0.00000000000E+00  0.27934855665E+04  0.27934855665E+04  0.50400000000E-02 0.  1.
          1   -1    0    0  501    0  0.00000000000E+00 -0.00000000000E+00 -0.88297760083E+03  0.88297760085E+03  0.50400000000E-02 0. -1.
    8880023    1    1    2    0    0  0.14022694734E+03 -0.25177139073E+03 -0.72489128665E+03  0.10209456468E+04  0.65864270000E+03 0. -1.
    8880022    1    1    2    0    0 -0.14022694734E+03  0.25177139073E+03  0.26353992523E+04  0.26555175205E+04  0.15294330000E+03 0.  0.
<mgrwt>
<rscale>  0 0.59007317E+03</rscale>
<asrwt>0</asrwt>
<pdfrwt beam="1">  1        1 0.13584271E+00 0.71893159E+03</pdfrwt>
<pdfrwt beam="2">  1       -1 0.42976701E+00 0.71893159E+03</pdfrwt>
<totfact> 0.91612045E-02</totfact>
</mgrwt>
</event>
<event>
 4    5  0.7176259E-008  0.9846509E+03  0.7818608E-02  0.9401920E-01
         -1   -1    0    0    0  501 -0.00000000000E+00  0.00000000000E+00  0.83688600878E+03  0.83688600879E+03  0.50400000000E-02 0.  1.
          1   -1    0    0  501    0  0.00000000000E+00 -0.00000000000E+00 -0.11739484248E+04  0.11739484248E+04  0.50400000000E-02 0. -1.
    8880023    1    1    2    0    0  0.72583205473E+03  0.94313855862E+02 -0.67137876148E+03  0.11917579128E+04  0.65864270000E+03 0.  0.
    8880022    1    1    2    0    0 -0.72583205473E+03 -0.94313855862E+02  0.33431634546E+03  0.81907652080E+03  0.15294330000E+03 0.  0.
<mgrwt>
<rscale>  0 0.91917827E+03</rscale>
<asrwt>0</asrwt>
<pdfrwt beam="1">  1        1 0.18060745E+00 0.98465094E+03</pdfrwt>
<pdfrwt beam="2">  1       -1 0.12875169E+00 0.98465094E+03</pdfrwt>
<totfact> 0.58317816E+00</totfact>
</mgrwt>
</event>
<event>
 4    5  0.7176259E-008  0.9580570E+03  0.7818608E-02  0.9438615E-01
         -1   -1    0    0    0  501 -0.00000000000E+00  0.00000000000E+00  0.40605475985E+03  0.40605475988E+03  0.50400000000E-02 0.  1.
          1   -1    0    0  501    0  0.00000000000E+00 -0.00000000000E+00 -0.18750008027E+04  0.18750008027E+04  0.50400000000E-02 0. -1.
    8880023    1    1    2    0    0  0.10703385122E+03  0.68746397900E+03 -0.11602769299E+04  0.15046978860E+04  0.65864270000E+03 0. -1.
    8880022    1    1    2    0    0 -0.10703385122E+03 -0.68746397900E+03 -0.30866911293E+03  0.77635767661E+03  0.15294330000E+03 0.  0.
<mgrwt>
<rscale>  0 0.88964789E+03</rscale>
<asrwt>0</asrwt>
<pdfrwt beam="1">  1        1 0.28846166E+00 0.95805698E+03</pdfrwt>
<pdfrwt beam="2">  1       -1 0.62469964E-01 0.95805698E+03</pdfrwt>
<totfact> 0.95555848E+00</totfact>
</mgrwt>
</event>
<event>
 4    5  0.7176259E-008  0.1426707E+04  0.7818608E-02  0.8963203E-01
         -1   -1    0    0    0  501 -0.00000000000E+00  0.00000000000E+00  0.90203293573E+03  0.90203293574E+03  0.50400000000E-02 0.  1.
          1   -1    0    0  501    0  0.00000000000E+00 -0.00000000000E+00 -0.30715299290E+04  0.30715299290E+04  0.50400000000E-02 0. -1.
    8880023    1    1    2    0    0 -0.11070197387E+04 -0.61334422694E+03 -0.22847086696E+04  0.26935826985E+04  0.65864270000E+03 0.  0.
    8880022    1    1    2    0    0  0.11070197387E+04  0.61334422694E+03  0.11521167636E+03  0.12799801662E+04  0.15294330000E+03 0.  0.
<mgrwt>
<rscale>  0 0.13871083E+04</rscale>
<asrwt>0</asrwt>
<pdfrwt beam="1">  1        1 0.47254306E+00 0.14267074E+04</pdfrwt>
<pdfrwt beam="2">  1       -1 0.13877430E+00 0.14267074E+04</pdfrwt>
<totfact> 0.21873578E-01</totfact>
</mgrwt>
</event>
<event>
 4    5  0.7176259E-008  0.7577540E+03  0.7818608E-02  0.9810957E-01
          1   -1    0    0  501    0  0.00000000000E+00  0.00000000000E+00  0.26105732543E+04  0.26105732543E+04  0.50400000000E-02 0. -1.
         -1   -1    0    0    0  501 -0.00000000000E+00 -0.00000000000E+00 -0.46038299843E+03  0.46038299845E+03  0.50400000000E-02 0.  1.
    8880023    1    1    2    0    0  0.63902390887E+02  0.36918478350E+03  0.24518076009E+04  0.25662329664E+04  0.65864270000E+03 0.  0.
    8880022    1    1    2    0    0 -0.63902390887E+02 -0.36918478350E+03 -0.30161734502E+03  0.50472328633E+03  0.15294330000E+03 0.  0.
<mgrwt>
<rscale>  0 0.64777820E+03</rscale>
<asrwt>0</asrwt>
<pdfrwt beam="1">  1        1 0.40162666E+00 0.75775400E+03</pdfrwt>
<pdfrwt beam="2">  1       -1 0.70828153E-01 0.75775400E+03</pdfrwt>
<totfact> 0.24297261E+00</totfact>
</mgrwt>
</event>
<event>
 4    5  0.7176259E-008  0.1053438E+04  0.7818608E-02  0.9314760E-01
          1   -1    0    0  501    0  0.00000000000E+00  0.00000000000E+00  0.14809018658E+04  0.14809018658E+04  0.50400000000E-02 0. -1.
         -1   -1    0    0    0  501 -0.00000000000E+00 -0.00000000000E+00 -0.75917291828E+03  0.75917291830E+03  0.50400000000E-02 0.  1.
    8880023    1    1    2    0    0 -0.39457026830E+03  0.72127310341E+03  0.89940722129E+03  0.13851585261E+04  0.65864270000E+03 0. -1.
    8880022    1    1    2    0    0  0.39457026830E+03 -0.72127310341E+03 -0.17767827376E+03  0.85491625807E+03  0.15294330000E+03 0.  0.
<mgrwt>
<rscale>  0 0.99435281E+03</rscale>
<asrwt>0</asrwt>
<pdfrwt beam="1">  1        1 0.22783106E+00 0.10534376E+04</pdfrwt>
<pdfrwt beam="2">  1       -1 0.11679583E+00 0.10534376E+04</pdfrwt>
<totfact> 0.44545911E+00</totfact>
</mgrwt>
</event>
<event>
 4    5  0.7176259E-008  0.8055763E+03  0.7818608E-02  0.9698866E-01
         -1   -1    0    0    0  501 -0.00000000000E+00  0.00000000000E+00  0.11519284427E+03  0.11519284438E+03  0.50400000000E-02 0.  1.
          1   -1    0    0  501    0  0.00000000000E+00 -0.00000000000E+00 -0.47713867743E+04  0.47713867743E+04  0.50400000000E-02 0. -1.
    8880023    1    1    2    0    0 -0.33886754791E+03 -0.31672032639E+03 -0.39280762339E+04  0.40098299323E+04  0.65864270000E+03 0.  0.
    8880022    1    1    2    0    0  0.33886754791E+03  0.31672032639E+03 -0.72811769614E+03  0.87674968641E+03  0.15294330000E+03 0.  0.
<mgrwt>
<rscale>  0 0.71084341E+03</rscale>
<asrwt>0</asrwt>
<pdfrwt beam="1">  1        1 0.73405935E+00 0.80557631E+03</pdfrwt>
<pdfrwt beam="2">  1       -1 0.17721980E-01 0.80557631E+03</pdfrwt>
<totfact> 0.46126717E-01</totfact>
</mgrwt>
</event>
<event>
 4    5  0.7176259E-008  0.1331714E+04  0.7818608E-02  0.9038646E-01
          1   -1    0    0  501    0  0.00000000000E+00  0.00000000000E+00  0.31347029942E+04  0.31347029942E+04  0.50400000000E-02 0. -1.
         -1   -1    0    0    0  501 -0.00000000000E+00 -0.00000000000E+00 -0.88745835826E+03  0.88745835827E+03  0.50400000000E-02 0.  1.
    8880023    1    1    2    0    0 -0.75478573784E+03 -0.87746823767E+03 -0.16533727275E+03  0.13419383884E+04  0.65864270000E+03 0.  1.
    8880022    1    1    2    0    0  0.75478573784E+03  0.87746823767E+03  0.24125819087E+04  0.26802229641E+04  0.15294330000E+03 0.  0.
<mgrwt>
<rscale>  0 0.12886113E+04</rscale>
<asrwt>0</asrwt>
<pdfrwt beam="1">  1        1 0.48226200E+00 0.13317140E+04</pdfrwt>
<pdfrwt beam="2">  1       -1 0.13653205E+00 0.13317140E+04</pdfrwt>
<totfact> 0.20772469E-01</totfact>
</mgrwt>
</event>
<event>
 4    5  0.7176259E-008  0.7202565E+03  0.7818608E-02  0.9921719E-01
         -1   -1    0    0    0  501 -0.00000000000E+00  0.00000000000E+00  0.19289007545E+03  0.19289007552E+03  0.50400000000E-02 0.  1.
          1   -1    0    0  501    0  0.00000000000E+00 -0.00000000000E+00 -0.20611612835E+04  0.20611612835E+04  0.50400000000E-02 0. -1.
    8880023    1    1    2    0    0  0.97016128110E+02 -0.27485827984E+03 -0.17693651517E+04  0.19103461596E+04  0.65864270000E+03 0. -1.
    8880022    1    1    2    0    0 -0.97016128110E+02  0.27485827984E+03 -0.98906056307E+02  0.34370519941E+03  0.15294330000E+03 0.  0.
<mgrwt>
<rscale>  0 0.59220140E+03</rscale>
<asrwt>0</asrwt>
<pdfrwt beam="1">  1        1 0.31710172E+00 0.72025649E+03</pdfrwt>
<pdfrwt beam="2">  1       -1 0.29675398E-01 0.72025649E+03</pdfrwt>
<totfact> 0.29365764E+01</totfact>
</mgrwt>
</event>
<event>
 4    5  0.7784620E-008  0.1018456E+04  0.7818608E-02  0.9357800E-01
         -1   -1    0    0    0  501 -0.00000000000E+00  0.00000000000E+00  0.20168821201E+04  0.20168821201E+04  0.50400000000E-02 0.  1.
          1   -1    0    0  501    0  0.00000000000E+00 -0.00000000000E+00 -0.15290465882E+04  0.15290465882E+04  0.50400000000E-02 0. -1.
    8880023    1    1    2    0    0 -0.77665550435E+03  0.15792231056E+02 -0.12641416457E+04  0.16233630135E+04  0.65864270000E+03 0.  0.
    8880022    1    1    2    0    0  0.77665550435E+03 -0.15792231056E+02  0.17519771776E+04  0.19225656948E+04  0.15294330000E+03 0.  0.
<mgrwt>
<rscale>  0 0.95631498E+03</rscale>
<asrwt>0</asrwt>
<pdfrwt beam="1">  1        1 0.23523794E+00 0.10184564E+04</pdfrwt>
<pdfrwt beam="2">  1       -1 0.31028956E+00 0.10184564E+04</pdfrwt>
<totfact> 0.17951722E-01</totfact>
</mgrwt>
</event>
<event>
 4    5  0.7176259E-008  0.7084434E+03  0.7818608E-02  0.9963827E-01
         -1   -1    0    0    0  501 -0.00000000000E+00  0.00000000000E+00  0.92199883966E+03  0.92199883967E+03  0.50400000000E-02 0.  1.
          1   -1    0    0  501    0  0.00000000000E+00 -0.00000000000E+00 -0.29940538966E+03  0.29940538971E+03  0.50400000000E-02 0. -1.
    8880023    1    1    2    0    0 -0.25942184465E+03  0.27965919655E+02  0.27321391183E+03  0.75930088504E+03  0.65864270000E+03 0.  0.
    8880022    1    1    2    0    0  0.25942184465E+03 -0.27965919655E+02  0.34937953816E+03  0.46210334433E+03  0.15294330000E+03 0.  0.
<mgrwt>
<rscale>  0 0.57265193E+03</rscale>
<asrwt>0</asrwt>
<pdfrwt beam="1">  1        1 0.46062368E-01 0.70844336E+03</pdfrwt>
<pdfrwt beam="2">  1       -1 0.14184597E+00 0.70844336E+03</pdfrwt>
<totfact> 0.36508200E+01</totfact>
</mgrwt>
</event>
<event>
 4    5  0.7176259E-008  0.9270208E+03  0.7818608E-02  0.9483977E-01
          1   -1    0    0  501    0  0.00000000000E+00  0.00000000000E+00  0.21330783528E+04  0.21330783529E+04  0.50400000000E-02 0. -1.
         -1   -1    0    0    0  501 -0.00000000000E+00 -0.00000000000E+00 -0.69876514364E+03  0.69876514365E+03  0.50400000000E-02 0.  1.
    8880023    1    1    2    0    0  0.15159984605E+03 -0.63448789008E+03  0.18316322398E+04  0.20528624562E+04  0.65864270000E+03 0. -1.
    8880022    1    1    2    0    0 -0.15159984605E+03  0.63448789008E+03 -0.39731903062E+03  0.77898104026E+03  0.15294330000E+03 0.  0.
<mgrwt>
<rscale>  0 0.85475519E+03</rscale>
<asrwt>0</asrwt>
<pdfrwt beam="1">  1        1 0.32816589E+00 0.92702082E+03</pdfrwt>
<pdfrwt beam="2">  1       -1 0.10750233E+00 0.92702082E+03</pdfrwt>
<totfact> 0.19967362E+00</totfact>
</mgrwt>
</event>
<event>
 4    5  0.7176259E-008  0.6613272E+03  0.7818608E-02  0.1022836E+00
          1   -1    0    0  501    0  0.00000000000E+00  0.00000000000E+00  0.14599633642E+04  0.14599633643E+04  0.50400000000E-02 0. -1.
         -1   -1    0    0    0  501 -0.00000000000E+00 -0.00000000000E+00 -0.44688628337E+03  0.44688628340E+03  0.50400000000E-02 0.  1.
    8880023    1    1    2    0    0  0.48064337870E+02 -0.35118177398E+02  0.13659817345E+04  0.15176494234E+04  0.65864270000E+03 0. -1.
    8880022    1    1    2    0    0 -0.48064337870E+02  0.35118177398E+02 -0.35290465368E+03  0.38920022425E+03  0.15294330000E+03 0.  0.
<mgrwt>
<rscale>  0 0.46676916E+03</rscale>
<asrwt>0</asrwt>
<pdfrwt beam="1">  1        1 0.22460975E+00 0.66132721E+03</pdfrwt>
<pdfrwt beam="2">  1       -1 0.68751735E-01 0.66132721E+03</pdfrwt>
<totfact> 0.15666668E+01</totfact>
</mgrwt>
</event>
<event>
 4    5  0.7176259E-008  0.9548814E+03  0.7818608E-02  0.9443125E-01
         -1   -1    0    0    0  501 -0.00000000000E+00  0.00000000000E+00  0.46300449954E+03  0.46300449957E+03  0.50400000000E-02 0.  1.
          1   -1    0    0  501    0  0.00000000000E+00 -0.00000000000E+00 -0.22720845133E+04  0.22720845133E+04  0.50400000000E-02 0. -1.
    8880023    1    1    2    0    0 -0.49513174338E+03  0.48252760266E+03 -0.17876362405E+04  0.20266824777E+04  0.65864270000E+03 0. -1.
    8880022    1    1    2    0    0  0.49513174338E+03 -0.48252760266E+03 -0.21443773197E+02  0.70840653516E+03  0.15294330000E+03 0.  0.
<mgrwt>
<rscale>  0 0.88610045E+03</rscale>
<asrwt>0</asrwt>
<pdfrwt beam="1">  1        1 0.34955146E+00 0.95488143E+03</pdfrwt>
<pdfrwt beam="2">  1       -1 0.71231462E-01 0.95488143E+03</pdfrwt>
<totfact> 0.39548152E+00</totfact>
</mgrwt>
</event>
<event>
 4    5  0.7176259E-008  0.7576078E+03  0.7818608E-02  0.9811340E-01
          1   -1    0    0  501    0  0.00000000000E+00  0.00000000000E+00  0.10732126735E+04  0.10732126735E+04  0.50400000000E-02 0. -1.
         -1   -1    0    0    0  501 -0.00000000000E+00 -0.00000000000E+00 -0.86183516894E+03  0.86183516895E+03  0.50400000000E-02 0.  1.
    8880023    1    1    2    0    0 -0.12323038536E+03  0.35351620050E+03  0.87531035957E+03  0.11576432368E+04  0.65864270000E+03 0. -1.
    8880022    1    1    2    0    0  0.12323038536E+03 -0.35351620050E+03 -0.66393285501E+03  0.77740460564E+03  0.15294330000E+03 0.  0.
<mgrwt>
<rscale>  0 0.64757492E+03</rscale>
<asrwt>0</asrwt>
<pdfrwt beam="1">  1        1 0.16510964E+00 0.75760784E+03</pdfrwt>
<pdfrwt beam="2">  1       -1 0.13259003E+00 0.75760784E+03</pdfrwt>
<totfact> 0.66280245E+00</totfact>
</mgrwt>
</event>
<event>
 4    5  0.7176259E-008  0.9242282E+03  0.7818608E-02  0.9488206E-01
         -1   -1    0    0    0  501 -0.00000000000E+00  0.00000000000E+00  0.16981140954E+04  0.16981140954E+04  0.50400000000E-02 0.  1.
          1   -1    0    0  501    0  0.00000000000E+00 -0.00000000000E+00 -0.86939497347E+03  0.86939497349E+03  0.50400000000E-02 0. -1.
    8880023    1    1    2    0    0 -0.27635260430E+03 -0.58652939855E+03 -0.52199633618E+03  0.10614508366E+04  0.65864270000E+03 0.  0.
    8880022    1    1    2    0    0  0.27635260430E+03  0.58652939855E+03  0.13507154581E+04  0.15060582323E+04  0.15294330000E+03 0.  0.
<mgrwt>
<rscale>  0 0.85158943E+03</rscale>
<asrwt>0</asrwt>
<pdfrwt beam="1">  1        1 0.13375308E+00 0.92422817E+03</pdfrwt>
<pdfrwt beam="2">  1       -1 0.26124832E+00 0.92422817E+03</pdfrwt>
<totfact> 0.11593138E+00</totfact>
</mgrwt>
</event>
<event>
 4    5  0.7176259E-008  0.6700429E+03  0.7818608E-02  0.1015632E+00
         -1   -1    0    0    0  501 -0.00000000000E+00  0.00000000000E+00  0.12626672285E+04  0.12626672285E+04  0.50400000000E-02 0.  1.
          1   -1    0    0  501    0  0.00000000000E+00 -0.00000000000E+00 -0.21210468478E+03  0.21210468484E+03  0.50400000000E-02 0. -1.
    8880023    1    1    2    0    0 -0.67041130156E+02 -0.10321231382E+03  0.36781103152E+03  0.76435754463E+03  0.65864270000E+03 0. -1.
    8880022    1    1    2    0    0  0.67041130156E+02  0.10321231382E+03  0.68275151219E+03  0.71041436871E+03  0.15294330000E+03 0.  0.
<mgrwt>
<rscale>  0 0.49296314E+03</rscale>
<asrwt>0</asrwt>
<pdfrwt beam="1">  1        1 0.32631490E-01 0.67004291E+03</pdfrwt>
<pdfrwt beam="2">  1       -1 0.19425650E+00 0.67004291E+03</pdfrwt>
<totfact> 0.23493091E+01</totfact>
</mgrwt>
</event>
<event>
 4    5  0.7176259E-008  0.1126896E+04  0.7818608E-02  0.9231685E-01
         -1   -1    0    0    0  501 -0.00000000000E+00  0.00000000000E+00  0.89097527480E+03  0.89097527481E+03  0.50400000000E-02 0.  1.
          1   -1    0    0  501    0  0.00000000000E+00 -0.00000000000E+00 -0.20627197325E+04  0.20627197325E+04  0.50400000000E-02 0. -1.
    8880023    1    1    2    0    0  0.91411564859E+03 -0.21856511274E+02 -0.15800083382E+04  0.19407013375E+04  0.65864270000E+03 0.  0.
    8880022    1    1    2    0    0 -0.91411564859E+03  0.21856511274E+02  0.40826388050E+03  0.10129936699E+04  0.15294330000E+03 0.  0.
<mgrwt>
<rscale>  0 0.10732286E+04</rscale>
<asrwt>0</asrwt>
<pdfrwt beam="1">  1        1 0.31734150E+00 0.11268963E+04</pdfrwt>
<pdfrwt beam="2">  1       -1 0.13707312E+00 0.11268963E+04</pdfrwt>
<totfact> 0.11886500E+00</totfact>
</mgrwt>
</event>
<event>
 4    5  0.7176259E-008  0.7237572E+03  0.7818608E-02  0.9910072E-01
         -1   -1    0    0    0  501 -0.00000000000E+00  0.00000000000E+00  0.91808201556E+03  0.91808201557E+03  0.50400000000E-02 0.  1.
          1   -1    0    0  501    0  0.00000000000E+00 -0.00000000000E+00 -0.66480352438E+03  0.66480352440E+03  0.50400000000E-02 0. -1.
    8880023    1    1    2    0    0  0.22776149284E+03  0.19529215018E+03 -0.41518468939E+03  0.83438771210E+03  0.65864270000E+03 0. -1.
    8880022    1    1    2    0    0 -0.22776149284E+03 -0.19529215018E+03  0.66846318057E+03  0.74849782787E+03  0.15294330000E+03 0.  0.
<mgrwt>
<rscale>  0 0.59775632E+03</rscale>
<asrwt>0</asrwt>
<pdfrwt beam="1">  1        1 0.10227747E+00 0.72375723E+03</pdfrwt>
<pdfrwt beam="2">  1       -1 0.14124339E+00 0.72375723E+03</pdfrwt>
<totfact> 0.12455908E+01</totfact>
</mgrwt>
</event>
<event>
 4    5  0.7176259E-008  0.8156494E+03  0.7818608E-02  0.9677927E-01
          1   -1    0    0  501    0  0.00000000000E+00  0.00000000000E+00  0.10958660752E+04  0.10958660752E+04  0.50400000000E-02 0. -1.
         -1   -1    0    0    0  501 -0.00000000000E+00 -0.00000000000E+00 -0.74672500268E+03  0.74672500270E+03  0.50400000000E-02 0.  1.
    8880023    1    1    2    0    0  0.23989210866E+03 -0.41704385652E+03  0.81687948227E+03  0.11543725988E+04  0.65864270000E+03 0.  0.
    8880022    1    1    2    0    0 -0.23989210866E+03  0.41704385652E+03 -0.46773840973E+03  0.68821847913E+03  0.15294330000E+03 0.  0.
<mgrwt>
<rscale>  0 0.72346334E+03</rscale>
<asrwt>0</asrwt>
<pdfrwt beam="1">  1        1 0.16859478E+00 0.81564944E+03</pdfrwt>
<pdfrwt beam="2">  1       -1 0.11488077E+00 0.81564944E+03</pdfrwt>
<totfact> 0.90051092E+00</totfact>
</mgrwt>
</event>
<event>
 4    5  0.7176259E-008  0.1051166E+04  0.7818608E-02  0.9317481E-01
         -1   -1    0    0    0  501 -0.00000000000E+00  0.00000000000E+00  0.66133974871E+03  0.66133974873E+03  0.50400000000E-02 0.  1.
          1   -1    0    0  501    0  0.00000000000E+00 -0.00000000000E+00 -0.14643700848E+04  0.14643700848E+04  0.50400000000E-02 0. -1.
    8880023    1    1    2    0    0 -0.40590494649E+03 -0.71160399937E+03 -0.74872474759E+03  0.12905572562E+04  0.65864270000E+03 0.  0.
    8880022    1    1    2    0    0  0.40590494649E+03  0.71160399937E+03 -0.54305588466E+02  0.83515257735E+03  0.15294330000E+03 0.  0.
<mgrwt>
<rscale>  0 0.99189297E+03</rscale>
<asrwt>0</asrwt>
<pdfrwt beam="1">  1        1 0.22528771E+00 0.10511657E+04</pdfrwt>
<pdfrwt beam="2">  1       -1 0.10174458E+00 0.10511657E+04</pdfrwt>
<totfact> 0.63397363E+00</totfact>
</mgrwt>
</event>
<event>
 4    5  0.7176259E-008  0.7470165E+03  0.7818608E-02  0.9839960E-01
          1   -1    0    0  501    0  0.00000000000E+00  0.00000000000E+00  0.13798089171E+04  0.13798089171E+04  0.50400000000E-02 0. -1.
         -1   -1    0    0    0  501 -0.00000000000E+00 -0.00000000000E+00 -0.64099074197E+03  0.64099074199E+03  0.50400000000E-02 0.  1.
    8880023    1    1    2    0    0  0.26807884445E+03  0.22881693049E+03  0.12043407568E+04  0.14172051084E+04  0.65864270000E+03 0.  0.
    8880022    1    1    2    0    0 -0.26807884445E+03 -0.22881693049E+03 -0.46552258170E+03  0.60359455068E+03  0.15294330000E+03 0.  0.
<mgrwt>
<rscale>  0 0.63261429E+03</rscale>
<asrwt>0</asrwt>
<pdfrwt beam="1">  1        1 0.21227829E+00 0.74701651E+03</pdfrwt>
<pdfrwt beam="2">  1       -1 0.98613960E-01 0.74701651E+03</pdfrwt>
<totfact> 0.81110142E+00</totfact>
</mgrwt>
</event>
<event>
 4    5  0.7176259E-008  0.1481583E+04  0.7818608E-02  0.8922751E-01
         -1   -1    0    0    0  501 -0.00000000000E+00  0.00000000000E+00  0.17693213315E+04  0.17693213315E+04  0.50400000000E-02 0.  1.
          1   -1    0    0  501    0  0.00000000000E+00 -0.00000000000E+00 -0.17630687260E+04  0.17630687260E+04  0.50400000000E-02 0. -1.
    8880023    1    1    2    0    0 -0.99123140080E+03  0.88246151522E+03  0.10676231335E+04  0.18261728772E+04  0.65864270000E+03 0.  0.
    8880022    1    1    2    0    0  0.99123140080E+03 -0.88246151522E+03 -0.10613705280E+04  0.17062171803E+04  0.15294330000E+03 0.  0.
<mgrwt>
<rscale>  0 0.14437408E+04</rscale>
<asrwt>0</asrwt>
<pdfrwt beam="1">  1        1 0.27124134E+00 0.14815830E+04</pdfrwt>
<pdfrwt beam="2">  1       -1 0.27220328E+00 0.14815830E+04</pdfrwt>
<totfact> 0.20418191E-01</totfact>
</mgrwt>
</event>
<event>
 4    5  0.7176259E-008  0.1395219E+04  0.7818608E-02  0.8987406E-01
          1   -1    0    0  501    0  0.00000000000E+00  0.00000000000E+00  0.28366446648E+04  0.28366446648E+04  0.50400000000E-02 0. -1.
         -1   -1    0    0    0  501 -0.00000000000E+00 -0.00000000000E+00 -0.13174832017E+04  0.13174832017E+04  0.50400000000E-02 0.  1.
    8880023    1    1    2    0    0 -0.98878725187E+03  0.73152362970E+03  0.22993727911E+04  0.26895636242E+04  0.65864270000E+03 0. -1.
    8880022    1    1    2    0    0  0.98878725187E+03 -0.73152362970E+03 -0.78021132796E+03  0.14645642422E+04  0.15294330000E+03 0.  0.
<mgrwt>
<rscale>  0 0.13545297E+04</rscale>
<asrwt>0</asrwt>
<pdfrwt beam="1">  1        1 0.43640687E+00 0.13952194E+04</pdfrwt>
<pdfrwt beam="2">  1       -1 0.20268972E+00 0.13952194E+04</pdfrwt>
<totfact> 0.10865718E-01</totfact>
</mgrwt>
</event>
<event>
 4    5  0.7176259E-008  0.1076375E+04  0.7818608E-02  0.9287827E-01
         -1   -1    0    0    0  501 -0.00000000000E+00  0.00000000000E+00  0.98192573529E+03  0.98192573530E+03  0.50400000000E-02 0.  1.
          1   -1    0    0  501    0  0.00000000000E+00 -0.00000000000E+00 -0.17937057109E+04  0.17937057109E+04  0.50400000000E-02 0. -1.
    8880023    1    1    2    0    0 -0.55065666494E+03 -0.64926817438E+03 -0.13729438679E+04  0.17445793177E+04  0.65864270000E+03 0.  0.
    8880022    1    1    2    0    0  0.55065666494E+03  0.64926817438E+03  0.56116389225E+03  0.10310521286E+04  0.15294330000E+03 0.  0.
<mgrwt>
<rscale>  0 0.10191125E+04</rscale>
<asrwt>0</asrwt>
<pdfrwt beam="1">  1        1 0.27595472E+00 0.10763745E+04</pdfrwt>
<pdfrwt beam="2">  1       -1 0.15106550E+00 0.10763745E+04</pdfrwt>
<totfact> 0.14048799E+00</totfact>
</mgrwt>
</event>
<event>
 4    5  0.7176259E-008  0.1015866E+04  0.7818608E-02  0.9361089E-01
          1   -1    0    0  501    0  0.00000000000E+00  0.00000000000E+00  0.17301509340E+04  0.17301509340E+04  0.50400000000E-02 0. -1.
         -1   -1    0    0    0  501 -0.00000000000E+00 -0.00000000000E+00 -0.83306370986E+03  0.83306370987E+03  0.50400000000E-02 0.  1.
    8880023    1    1    2    0    0 -0.32567028151E+03  0.70150687571E+03  0.13222936406E+04  0.16674662537E+04  0.65864270000E+03 0. -1.
    8880022    1    1    2    0    0  0.32567028151E+03 -0.70150687571E+03 -0.42520641646E+03  0.89574839020E+03  0.15294330000E+03 0.  0.
<mgrwt>
<rscale>  0 0.95348317E+03</rscale>
<asrwt>0</asrwt>
<pdfrwt beam="1">  1        1 0.26617707E+00 0.10158658E+04</pdfrwt>
<pdfrwt beam="2">  1       -1 0.12816365E+00 0.10158658E+04</pdfrwt>
<totfact> 0.24025716E+00</totfact>
</mgrwt>
</event>
<event>
 4    5  0.8064181E-008  0.1022129E+04  0.7818608E-02  0.9353162E-01
         -1   -1    0    0    0  501 -0.00000000000E+00  0.00000000000E+00  0.21566158644E+04  0.21566158644E+04  0.50400000000E-02 0.  1.
          1   -1    0    0  501    0  0.00000000000E+00 -0.00000000000E+00 -0.11061930301E+04  0.11061930301E+04  0.50400000000E-02 0. -1.
    8880023    1    1    2    0    0 -0.61843037452E+03  0.47799706003E+03 -0.76741473911E+03  0.12781521449E+04  0.65864270000E+03 0. -1.
    8880022    1    1    2    0    0  0.61843037452E+03 -0.47799706003E+03  0.18178375734E+04  0.19846567496E+04  0.15294330000E+03 0.  0.
<mgrwt>
<rscale>  0 0.96032575E+03</rscale>
<asrwt>0</asrwt>
<pdfrwt beam="1">  1        1 0.17018354E+00 0.10221289E+04</pdfrwt>
<pdfrwt beam="2">  1       -1 0.33178705E+00 0.10221289E+04</pdfrwt>
<totfact> 0.26081596E-01</totfact>
</mgrwt>
</event>
<event>
 4    5  0.7176259E-008  0.1078102E+04  0.7818608E-02  0.9285837E-01
         -1   -1    0    0    0  501 -0.00000000000E+00  0.00000000000E+00  0.10532232220E+04  0.10532232220E+04  0.50400000000E-02 0.  1.
          1   -1    0    0  501    0  0.00000000000E+00 -0.00000000000E+00 -0.13178629328E+04  0.13178629328E+04  0.50400000000E-02 0. -1.
    8880023    1    1    2    0    0 -0.78616074805E+03 -0.33233308735E+03 -0.80845322704E+03  0.13475536462E+04  0.65864270000E+03 0. -1.
    8880022    1    1    2    0    0  0.78616074805E+03  0.33233308735E+03  0.54381351626E+03  0.10235325086E+04  0.15294330000E+03 0.  0.
<mgrwt>
<rscale>  0 0.10209722E+04</rscale>
<asrwt>0</asrwt>
<pdfrwt beam="1">  1        1 0.20274814E+00 0.10781021E+04</pdfrwt>
<pdfrwt beam="2">  1       -1 0.16203434E+00 0.10781021E+04</pdfrwt>
<totfact> 0.24638128E+00</totfact>
</mgrwt>
</event>
<event>
 4    5  0.9529661E-008  0.7426089E+03  0.7818608E-02  0.9852412E-01
         -1   -1    0    0    0  501 -0.00000000000E+00  0.00000000000E+00  0.13388897839E+04  0.13388897839E+04  0.50400000000E-02 0.  1.
          1   -1    0    0  501    0  0.00000000000E+00 -0.00000000000E+00 -0.17709153941E+04  0.17709153941E+04  0.50400000000E-02 0. -1.
    8880023    1    1    2    0    0 -0.85412365580E+02 -0.33220854823E+03 -0.16638237523E+04  0.18220256521E+04  0.65864270000E+03 0. -1.
    8880022    1    1    2    0    0  0.85412365580E+02  0.33220854823E+03  0.12317981421E+04  0.12877795260E+04  0.15294330000E+03 0.  0.
<mgrwt>
<rscale>  0 0.62624106E+03</rscale>
<asrwt>0</asrwt>
<pdfrwt beam="1">  1        1 0.27244852E+00 0.74260891E+03</pdfrwt>
<pdfrwt beam="2">  1       -1 0.20598304E+00 0.74260891E+03</pdfrwt>
<totfact> 0.61984146E-01</totfact>
</mgrwt>
</event>
<event>
 4    5  0.7176259E-008  0.9248495E+03  0.7818608E-02  0.9487263E-01
          1   -1    0    0  501    0  0.00000000000E+00  0.00000000000E+00  0.11164073419E+04  0.11164073419E+04  0.50400000000E-02 0. -1.
         -1   -1    0    0    0  501 -0.00000000000E+00 -0.00000000000E+00 -0.92329537194E+03  0.92329537195E+03  0.50400000000E-02 0.  1.
    8880023    1    1    2    0    0  0.47011693717E+03 -0.44780185756E+03  0.73416801534E+03  0.11808256939E+04  0.65864270000E+03 0.  0.
    8880022    1    1    2    0    0 -0.47011693717E+03  0.44780185756E+03 -0.54105604538E+03  0.85887702001E+03  0.15294330000E+03 0.  0.
<mgrwt>
<rscale>  0 0.85229421E+03</rscale>
<asrwt>0</asrwt>
<pdfrwt beam="1">  1        1 0.17175498E+00 0.92484953E+03</pdfrwt>
<pdfrwt beam="2">  1       -1 0.14204544E+00 0.92484953E+03</pdfrwt>
<totfact> 0.50325504E+00</totfact>
</mgrwt>
</event>
<event>
 4    5  0.7176259E-008  0.6722883E+03  0.7818608E-02  0.1014073E+00
          1   -1    0    0  501    0  0.00000000000E+00  0.00000000000E+00  0.37321463170E+04  0.37321463170E+04  0.50400000000E-02 0. -1.
         -1   -1    0    0    0  501 -0.00000000000E+00 -0.00000000000E+00 -0.27455177507E+03  0.27455177512E+03  0.50400000000E-02 0.  1.
    8880023    1    1    2    0    0  0.40327222549E+02 -0.12858874806E+03  0.36589336884E+04  0.37201837714E+04  0.65864270000E+03 0.  0.
    8880022    1    1    2    0    0 -0.40327222549E+02  0.12858874806E+03 -0.20133914650E+03  0.28651432064E+03  0.15294330000E+03 0.  1.
<mgrwt>
<rscale>  0 0.49887526E+03</rscale>
<asrwt>0</asrwt>
<pdfrwt beam="1">  1        1 0.57417637E+00 0.67228830E+03</pdfrwt>
<pdfrwt beam="2">  1       -1 0.42238734E-01 0.67228830E+03</pdfrwt>
<totfact> 0.10006084E+00</totfact>
</mgrwt>
</event>
<event>
 4    5  0.7176259E-008  0.9509682E+03  0.7818608E-02  0.9448722E-01
         -1   -1    0    0    0  501 -0.00000000000E+00  0.00000000000E+00  0.17534459563E+04  0.17534459563E+04  0.50400000000E-02 0.  1.
          1   -1    0    0  501    0  0.00000000000E+00 -0.00000000000E+00 -0.17402532606E+04  0.17402532606E+04  0.50400000000E-02 0. -1.
    8880023    1    1    2    0    0  0.33575230260E+02  0.68512997134E+03 -0.15280409351E+04  0.17997915655E+04  0.65864270000E+03 0.  0.
    8880022    1    1    2    0    0 -0.33575230260E+02 -0.68512997134E+03  0.15412336308E+04  0.16939076514E+04  0.15294330000E+03 0.  0.
<mgrwt>
<rscale>  0 0.88172226E+03</rscale>
<asrwt>0</asrwt>
<pdfrwt beam="1">  1        1 0.26773127E+00 0.95096823E+03</pdfrwt>
<pdfrwt beam="2">  1       -1 0.26976092E+00 0.95096823E+03</pdfrwt>
<totfact> 0.23783902E-01</totfact>
</mgrwt>
</event>
<event>
 4    5  0.7176259E-008  0.1656379E+04  0.7818608E-02  0.8806441E-01
          1   -1    0    0  501    0  0.00000000000E+00  0.00000000000E+00  0.13197243034E+04  0.13197243034E+04  0.50400000000E-02 0. -1.
         -1   -1    0    0    0  501 -0.00000000000E+00 -0.00000000000E+00 -0.20038790230E+04  0.20038790230E+04  0.50400000000E-02 0.  1.
    8880023    1    1    2    0    0 -0.97437722681E+03 -0.11663484790E+04 -0.16169821245E+02  0.16564574924E+04  0.65864270000E+03 0. -1.
    8880022    1    1    2    0    0  0.97437722681E+03  0.11663484790E+04 -0.66798489834E+03  0.16671458341E+04  0.15294330000E+03 0.  0.
<mgrwt>
<rscale>  0 0.16231664E+04</rscale>
<asrwt>0</asrwt>
<pdfrwt beam="1">  1        1 0.20303451E+00 0.16563786E+04</pdfrwt>
<pdfrwt beam="2">  1       -1 0.30828908E+00 0.16563786E+04</pdfrwt>
<totfact> 0.23799990E-01</totfact>
</mgrwt>
</event>
<event>
 4    5  0.7176259E-008  0.7818323E+03  0.7818608E-02  0.9751550E-01
         -1   -1    0    0    0  501 -0.00000000000E+00  0.00000000000E+00  0.57066619540E+03  0.57066619542E+03  0.50400000000E-02 0.  1.
          1   -1    0    0  501    0  0.00000000000E+00 -0.00000000000E+00 -0.22953198638E+04  0.22953198638E+04  0.50400000000E-02 0. -1.
    8880023    1    1    2    0    0 -0.34350924753E+03 -0.24382956891E+03 -0.21254923908E+04  0.22647250542E+04  0.65864270000E+03 0. -1.
    8880022    1    1    2    0    0  0.34350924753E+03  0.24382956891E+03  0.40083872234E+03  0.60126100502E+03  0.15294330000E+03 0.  0.
<mgrwt>
<rscale>  0 0.68028721E+03</rscale>
<asrwt>0</asrwt>
<pdfrwt beam="1">  1        1 0.35312613E+00 0.78183225E+03</pdfrwt>
<pdfrwt beam="2">  1       -1 0.87794801E-01 0.78183225E+03</pdfrwt>
<totfact> 0.25173117E+00</totfact>
</mgrwt>
</event>
<event>
 4    5  0.7176259E-008  0.1487465E+04  0.7818608E-02  0.8918539E-01
          1   -1    0    0  501    0  0.00000000000E+00  0.00000000000E+00  0.17721893753E+04  0.17721893753E+04  0.50400000000E-02 0. -1.
         -1   -1    0    0    0  501 -0.00000000000E+00 -0.00000000000E+00 -0.14157465976E+04  0.14157465976E+04  0.50400000000E-02 0.  1.
    8880023    1    1    2    0    0 -0.83587032706E+03  0.10392600241E+04  0.90121165314E+03  0.17391760266E+04  0.65864270000E+03 0.  0.
    8880022    1    1    2    0    0  0.83587032706E+03 -0.10392600241E+04 -0.54476887550E+03  0.14487599463E+04  0.15294330000E+03 0.  0.
<mgrwt>
<rscale>  0 0.14498007E+04</rscale>
<asrwt>0</asrwt>
<pdfrwt beam="1">  1        1 0.27264452E+00 0.14874646E+04</pdfrwt>
<pdfrwt beam="2">  1       -1 0.21780717E+00 0.14874646E+04</pdfrwt>
<totfact> 0.45854706E-01</totfact>
</mgrwt>
</event>
<event>
 4    5  0.7176259E-008  0.1167812E+04  0.7818608E-02  0.9189064E-01
          1   -1    0    0  501    0  0.00000000000E+00  0.00000000000E+00  0.23983738832E+04  0.23983738833E+04  0.50400000000E-02 0. -1.
         -1   -1    0    0    0  501 -0.00000000000E+00 -0.00000000000E+00 -0.70048931717E+03  0.70048931719E+03  0.50400000000E-02 0.  1.
    8880023    1    1    2    0    0  0.41857599867E+03 -0.86877443559E+03  0.17691847953E+04  0.21198584700E+04  0.65864270000E+03 0.  0.
    8880022    1    1    2    0    0 -0.41857599867E+03  0.86877443559E+03 -0.71300229206E+02  0.97900473047E+03  0.15294330000E+03 0.  0.
<mgrwt>
<rscale>  0 0.11167018E+04</rscale>
<asrwt>0</asrwt>
<pdfrwt beam="1">  1        1 0.36898059E+00 0.11678121E+04</pdfrwt>
<pdfrwt beam="2">  1       -1 0.10776759E+00 0.11678121E+04</pdfrwt>
<totfact> 0.12666361E+00</totfact>
</mgrwt>
</event>
<event>
 4    5  0.7176259E-008  0.9407958E+03  0.7818608E-02  0.9463482E-01
          1   -1    0    0  501    0  0.00000000000E+00  0.00000000000E+00  0.12098213278E+04  0.12098213278E+04  0.50400000000E-02 0. -1.
         -1   -1    0    0    0  501 -0.00000000000E+00 -0.00000000000E+00 -0.90441219782E+03  0.90441219783E+03  0.50400000000E-02 0.  1.
    8880023    1    1    2    0    0 -0.59214457543E+03  0.31725591854E+03  0.82501014892E+03  0.12512947167E+04  0.65864270000E+03 0.  0.
    8880022    1    1    2    0    0  0.59214457543E+03 -0.31725591854E+03 -0.51960101892E+03  0.86293880892E+03  0.15294330000E+03 0.  0.
<mgrwt>
<rscale>  0 0.87030491E+03</rscale>
<asrwt>0</asrwt>
<pdfrwt beam="1">  1        1 0.18612636E+00 0.94079579E+03</pdfrwt>
<pdfrwt beam="2">  1       -1 0.13914034E+00 0.94079579E+03</pdfrwt>
<totfact> 0.45251754E+00</totfact>
</mgrwt>
</event>
<event>
 4    5  0.7176259E-008  0.1151903E+04  0.7818608E-02  0.9205355E-01
          1   -1    0    0  501    0  0.00000000000E+00  0.00000000000E+00  0.10666232683E+04  0.10666232683E+04  0.50400000000E-02 0. -1.
         -1   -1    0    0    0  501 -0.00000000000E+00 -0.00000000000E+00 -0.14987614242E+04  0.14987614242E+04  0.50400000000E-02 0.  1.
    8880023    1    1    2    0    0  0.79818158761E+03 -0.50594219672E+03  0.47550452401E+03  0.12461886341E+04  0.65864270000E+03 0. -1.
    8880022    1    1    2    0    0 -0.79818158761E+03  0.50594219672E+03 -0.90764267990E+03  0.13191960584E+04  0.15294330000E+03 0.  0.
<mgrwt>
<rscale>  0 0.10998322E+04</rscale>
<asrwt>0</asrwt>
<pdfrwt beam="1">  1        1 0.16409589E+00 0.11519035E+04</pdfrwt>
<pdfrwt beam="2">  1       -1 0.23057868E+00 0.11519035E+04</pdfrwt>
<totfact> 0.12408515E+00</totfact>
</mgrwt>
</event>
<event>
 4    5  0.7176259E-008  0.6984914E+03  0.7818608E-02  0.1000352E+00
         -1   -1    0    0    0  501 -0.00000000000E+00  0.00000000000E+00  0.10929412149E+04  0.10929412150E+04  0.50400000000E-02 0.  1.
          1   -1    0    0  501    0  0.00000000000E+00 -0.00000000000E+00 -0.11619929348E+04  0.11619929348E+04  0.50400000000E-02 0. -1.
    8880023    1    1    2    0    0  0.21194406515E+03 -0.95706635264E+02 -0.10355802987E+04  0.12491264180E+04  0.65864270000E+03 0. -1.
    8880022    1    1    2    0    0 -0.21194406515E+03  0.95706635264E+02  0.96652857879E+03  0.10058077318E+04  0.15294330000E+03 0.  0.
<mgrwt>
<rscale>  0 0.55496257E+03</rscale>
<asrwt>0</asrwt>
<pdfrwt beam="1">  1        1 0.17876814E+00 0.69849141E+03</pdfrwt>
<pdfrwt beam="2">  1       -1 0.16814480E+00 0.69849141E+03</pdfrwt>
<totfact> 0.30413347E+00</totfact>
</mgrwt>
</event>
<event>
 4    5  0.7176259E-008  0.7191124E+03  0.7818608E-02  0.9925601E-01
         -1   -1    0    0    0  501 -0.00000000000E+00  0.00000000000E+00  0.14879073796E+04  0.14879073796E+04  0.50400000000E-02 0.  1.
          1   -1    0    0  501    0  0.00000000000E+00 -0.00000000000E+00 -0.31955945097E+03  0.31955945101E+03  0.50400000000E-02 0. -1.
    8880023    1    1    2    0    0  0.15506083278E+03  0.24345146470E+03  0.14544660565E+03  0.73367390501E+03  0.65864270000E+03 0.  0.
    8880022    1    1    2    0    0 -0.15506083278E+03 -0.24345146470E+03  0.10229013230E+04  0.10737929256E+04  0.15294330000E+03 0.  0.
<mgrwt>
<rscale>  0 0.59036452E+03</rscale>
<asrwt>0</asrwt>
<pdfrwt beam="1">  1        1 0.49162992E-01 0.71911243E+03</pdfrwt>
<pdfrwt beam="2">  1       -1 0.22890883E+00 0.71911243E+03</pdfrwt>
<totfact> 0.80467925E+00</totfact>
</mgrwt>
</event>
<event>
 4    5  0.7176259E-008  0.8684875E+03  0.7818608E-02  0.9578641E-01
          1   -1    0    0  501    0  0.00000000000E+00  0.00000000000E+00  0.30729149909E+04  0.30729149909E+04  0.50400000000E-02 0. -1.
         -1   -1    0    0    0  501 -0.00000000000E+00 -0.00000000000E+00 -0.23866222266E+03  0.23866222272E+03  0.50400000000E-02 0.  1.
    8880023    1    1    2    0    0  0.22056344578E+03  0.52135597267E+03  0.24772110249E+04  0.26250418953E+04  0.65864270000E+03 0. -1.
    8880022    1    1    2    0    0 -0.22056344578E+03 -0.52135597267E+03  0.35704174338E+03  0.68653531838E+03  0.15294330000E+03 0.  0.
<mgrwt>
<rscale>  0 0.78726166E+03</rscale>
<asrwt>0</asrwt>
<pdfrwt beam="1">  1        1 0.47275612E+00 0.86848747E+03</pdfrwt>
<pdfrwt beam="2">  1       -1 0.36717267E-01 0.86848747E+03</pdfrwt>
<totfact> 0.39448999E+00</totfact>
</mgrwt>
</event>
<event>
 4    5  0.7176259E-008  0.8889780E+03  0.7818608E-02  0.9543962E-01
          1   -1    0    0  501    0  0.00000000000E+00  0.00000000000E+00  0.15325640191E+04  0.15325640191E+04  0.50400000000E-02 0. -1.
         -1   -1    0    0    0  501 -0.00000000000E+00 -0.00000000000E+00 -0.78399658841E+03  0.78399658843E+03  0.50400000000E-02 0.  1.
    8880023    1    1    2    0    0  0.17460041915E+03 -0.57095222228E+03  0.12417751415E+04  0.15271828491E+04  0.65864270000E+03 0. -1.
    8880022    1    1    2    0    0 -0.17460041915E+03  0.57095222228E+03 -0.49320771077E+03  0.78937775840E+03  0.15294330000E+03 0.  0.
<mgrwt>
<rscale>  0 0.81118835E+03</rscale>
<asrwt>0</asrwt>
<pdfrwt beam="1">  1        1 0.23577908E+00 0.88897804E+03</pdfrwt>
<pdfrwt beam="2">  1       -1 0.12061486E+00 0.88897804E+03</pdfrwt>
<totfact> 0.38763737E+00</totfact>
</mgrwt>
</event>
<event>
 4    5  0.7176259E-008  0.6680910E+03  0.7818608E-02  0.1017070E+00
         -1   -1    0    0    0  501 -0.00000000000E+00  0.00000000000E+00  0.27930691737E+03  0.27930691742E+03  0.50400000000E-02 0.  1.
          1   -1    0    0  501    0  0.00000000000E+00 -0.00000000000E+00 -0.12241868387E+04  0.12241868387E+04  0.50400000000E-02 0. -1.
    8880023    1    1    2    0    0 -0.95228542582E+02 -0.58880540183E+02 -0.10805440514E+04  0.12704019232E+04  0.65864270000E+03 0. -1.
    8880022    1    1    2    0    0  0.95228542582E+02  0.58880540183E+02  0.13566413009E+03  0.23309183285E+03  0.15294330000E+03 0.  0.
<mgrwt>
<rscale>  0 0.48758957E+03</rscale>
<asrwt>0</asrwt>
<pdfrwt beam="1">  1        1 0.18833643E+00 0.66809101E+03</pdfrwt>
<pdfrwt beam="2">  1       -1 0.42970296E-01 0.66809101E+03</pdfrwt>
<totfact> 0.56609989E+01</totfact>
</mgrwt>
</event>
<event>
 4    5  0.7176259E-008  0.7530750E+03  0.7818608E-02  0.9823377E-01
          1   -1    0    0  501    0  0.00000000000E+00  0.00000000000E+00  0.14234831102E+04  0.14234831102E+04  0.50400000000E-02 0. -1.
         -1   -1    0    0    0  501 -0.00000000000E+00 -0.00000000000E+00 -0.42898432294E+03  0.42898432297E+03  0.50400000000E-02 0.  1.
    8880023    1    1    2    0    0 -0.29529282009E+03 -0.21474138777E+03  0.11920902133E+04  0.14100358138E+04  0.65864270000E+03 0.  0.
    8880022    1    1    2    0    0  0.29529282009E+03  0.21474138777E+03 -0.19759142602E+03  0.44243161943E+03  0.15294330000E+03 0.  0.
<mgrwt>
<rscale>  0 0.64122944E+03</rscale>
<asrwt>0</asrwt>
<pdfrwt beam="1">  1        1 0.21899740E+00 0.75307498E+03</pdfrwt>
<pdfrwt beam="2">  1       -1 0.65997590E-01 0.75307498E+03</pdfrwt>
<totfact> 0.17794834E+01</totfact>
</mgrwt>
</event>
<event>
 4    5  0.7176259E-008  0.7634374E+03  0.7818608E-02  0.9796288E-01
         -1   -1    0    0    0  501 -0.00000000000E+00  0.00000000000E+00  0.70428326152E+03  0.70428326154E+03  0.50400000000E-02 0.  1.
          1   -1    0    0  501    0  0.00000000000E+00 -0.00000000000E+00 -0.12237552970E+04  0.12237552970E+04  0.50400000000E-02 0. -1.
    8880023    1    1    2    0    0 -0.38552174836E+03 -0.19987795422E+02 -0.10223116053E+04  0.12759144779E+04  0.65864270000E+03 0. -1.
    8880022    1    1    2    0    0  0.38552174836E+03  0.19987795422E+02  0.50283956987E+03  0.65212408057E+03  0.15294330000E+03 0.  0.
<mgrwt>
<rscale>  0 0.65562118E+03</rscale>
<asrwt>0</asrwt>
<pdfrwt beam="1">  1        1 0.18827005E+00 0.76343745E+03</pdfrwt>
<pdfrwt beam="2">  1       -1 0.10835127E+00 0.76343745E+03</pdfrwt>
<totfact> 0.83945819E+00</totfact>
</mgrwt>
</event>
<event>
 4    5  0.7176259E-008  0.8808666E+03  0.7818608E-02  0.9557472E-01
          1   -1    0    0  501    0  0.00000000000E+00  0.00000000000E+00  0.14684132633E+04  0.14684132633E+04  0.50400000000E-02 0. -1.
         -1   -1    0    0    0  501 -0.00000000000E+00 -0.00000000000E+00 -0.39588611439E+03  0.39588611442E+03  0.50400000000E-02 0.  1.
    8880023    1    1    2    0    0  0.22513642540E+03 -0.53984198043E+03  0.83809612233E+03  0.12158663950E+04  0.65864270000E+03 0.  0.
    8880022    1    1    2    0    0 -0.22513642540E+03  0.53984198043E+03  0.23443102654E+03  0.64843298273E+03  0.15294330000E+03 0.  0.
<mgrwt>
<rscale>  0 0.80176046E+03</rscale>
<asrwt>0</asrwt>
<pdfrwt beam="1">  1        1 0.22590973E+00 0.88086661E+03</pdfrwt>
<pdfrwt beam="2">  1       -1 0.60905557E-01 0.88086661E+03</pdfrwt>
<totfact> 0.19152394E+01</totfact>
</mgrwt>
</event>
<event>
 4    5  0.7405818E-008  0.7648054E+03  0.7818608E-02  0.9792822E-01
         -1   -1    0    0    0  501 -0.00000000000E+00  0.00000000000E+00  0.16808979922E+04  0.16808979922E+04  0.50400000000E-02 0.  1.
          1   -1    0    0  501    0  0.00000000000E+00 -0.00000000000E+00 -0.13918778877E+04  0.13918778877E+04  0.50400000000E-02 0. -1.
    8880023    1    1    2    0    0  0.36915534085E+02  0.38698100315E+03 -0.12569593735E+04  0.14713511227E+04  0.65864270000E+03 0. -1.
    8880022    1    1    2    0    0 -0.36915534085E+02 -0.38698100315E+03  0.15459794780E+04  0.16014247572E+04  0.15294330000E+03 0.  0.
<mgrwt>
<rscale>  0 0.65749179E+03</rscale>
<asrwt>0</asrwt>
<pdfrwt beam="1">  1        1 0.21413506E+00 0.76480537E+03</pdfrwt>
<pdfrwt beam="2">  1       -1 0.25859969E+00 0.76480537E+03</pdfrwt>
<totfact> 0.50441926E-01</totfact>
</mgrwt>
</event>
<event>
 4    5  0.7176259E-008  0.7462573E+03  0.7818608E-02  0.9842081E-01
          1   -1    0    0  501    0  0.00000000000E+00  0.00000000000E+00  0.60740904513E+03  0.60740904516E+03  0.50400000000E-02 0. -1.
         -1   -1    0    0    0  501 -0.00000000000E+00 -0.00000000000E+00 -0.76143210921E+03  0.76143210923E+03  0.50400000000E-02 0.  1.
    8880023    1    1    2    0    0 -0.27806101587E+03  0.21394357892E+03  0.27371536892E+03  0.79487111720E+03  0.65864270000E+03 0.  1.
    8880022    1    1    2    0    0  0.27806101587E+03 -0.21394357892E+03 -0.42773843300E+03  0.57397003719E+03  0.15294330000E+03 0.  0.
<mgrwt>
<rscale>  0 0.63152315E+03</rscale>
<asrwt>0</asrwt>
<pdfrwt beam="1">  1        1 0.93447546E-01 0.74625732E+03</pdfrwt>
<pdfrwt beam="2">  1       -1 0.11714340E+00 0.74625732E+03</pdfrwt>
<totfact> 0.22666433E+01</totfact>
</mgrwt>
</event>
<event>
 4    5  0.7176259E-008  0.1301000E+04  0.7818608E-02  0.9064697E-01
          1   -1    0    0  501    0  0.00000000000E+00  0.00000000000E+00  0.14448433663E+04  0.14448433663E+04  0.50400000000E-02 0. -1.
         -1   -1    0    0    0  501 -0.00000000000E+00 -0.00000000000E+00 -0.13588332724E+04  0.13588332724E+04  0.50400000000E-02 0.  1.
    8880023    1    1    2    0    0  0.11214864231E+04  0.32539154243E+02 -0.64881180660E+03  0.14538079517E+04  0.65864270000E+03 0.  0.
    8880022    1    1    2    0    0 -0.11214864231E+04 -0.32539154243E+02  0.73482190049E+03  0.13498686870E+04  0.15294330000E+03 0.  0.
<mgrwt>
<rscale>  0 0.12566134E+04</rscale>
<asrwt>0</asrwt>
<pdfrwt beam="1">  1        1 0.22228359E+00 0.13009999E+04</pdfrwt>
<pdfrwt beam="2">  1       -1 0.20905127E+00 0.13009999E+04</pdfrwt>
<totfact> 0.90267594E-01</totfact>
</mgrwt>
</event>
<event>
 4    5  0.7176259E-008  0.7644992E+03  0.7818608E-02  0.9793596E-01
          1   -1    0    0  501    0  0.00000000000E+00  0.00000000000E+00  0.87007360015E+03  0.87007360016E+03  0.50400000000E-02 0. -1.
         -1   -1    0    0    0  501 -0.00000000000E+00 -0.00000000000E+00 -0.13779607926E+04  0.13779607926E+04  0.50400000000E-02 0.  1.
    8880023    1    1    2    0    0 -0.11466601330E+03  0.37081068502E+03  0.65867878468E+03  0.10091168448E+04  0.65864270000E+03 0. -1.
    8880022    1    1    2    0    0  0.11466601330E+03 -0.37081068502E+03 -0.11665659771E+04  0.12389175480E+04  0.15294330000E+03 0.  0.
<mgrwt>
<rscale>  0 0.65707369E+03</rscale>
<asrwt>0</asrwt>
<pdfrwt beam="1">  1        1 0.13385748E+00 0.76449922E+03</pdfrwt>
<pdfrwt beam="2">  1       -1 0.21199397E+00 0.76449922E+03</pdfrwt>
<totfact> 0.24958662E+00</totfact>
</mgrwt>
</event>
<event>
 4    5  0.7176259E-008  0.7396527E+03  0.7818608E-02  0.9860960E-01
          1   -1    0    0  501    0  0.00000000000E+00  0.00000000000E+00  0.12236466642E+04  0.12236466642E+04  0.50400000000E-02 0. -1.
         -1   -1    0    0    0  501 -0.00000000000E+00 -0.00000000000E+00 -0.26747870826E+03  0.26747870831E+03  0.50400000000E-02 0.  1.
    8880023    1    1    2    0    0  0.33553525249E+03 -0.26306938196E+02  0.80078772769E+03  0.10901133665E+04  0.65864270000E+03 0.  0.
    8880022    1    1    2    0    0 -0.33553525249E+03  0.26306938196E+02  0.15538022825E+03  0.40101200607E+03  0.15294330000E+03 0.  0.
<mgrwt>
<rscale>  0 0.62191224E+03</rscale>
<asrwt>0</asrwt>
<pdfrwt beam="1">  1        1 0.18825333E+00 0.73965273E+03</pdfrwt>
<pdfrwt beam="2">  1       -1 0.41150572E-01 0.73965273E+03</pdfrwt>
<totfact> 0.60872975E+01</totfact>
</mgrwt>
</event>
<event>
 4    5  0.7176259E-008  0.6783164E+03  0.7818608E-02  0.1010292E+00
          1   -1    0    0  501    0  0.00000000000E+00  0.00000000000E+00  0.23700844748E+04  0.23700844748E+04  0.50400000000E-02 0. -1.
         -1   -1    0    0    0  501 -0.00000000000E+00 -0.00000000000E+00 -0.22103998944E+03  0.22103998950E+03  0.50400000000E-02 0.  1.
    8880023    1    1    2    0    0 -0.12476040685E+03 -0.10362354381E+03  0.22473508862E+04  0.23474878508E+04  0.65864270000E+03 0. -1.
    8880022    1    1    2    0    0  0.12476040685E+03  0.10362354381E+03 -0.98306400846E+02  0.24363661345E+03  0.15294330000E+03 0.  0.
<mgrwt>
<rscale>  0 0.51358575E+03</rscale>
<asrwt>0</asrwt>
<pdfrwt beam="1">  1        1 0.36462838E+00 0.67831645E+03</pdfrwt>
<pdfrwt beam="2">  1       -1 0.34006152E-01 0.67831645E+03</pdfrwt>
<totfact> 0.14439694E+01</totfact>
</mgrwt>
</event>
<event>
 4    5  0.7176259E-008  0.1838280E+04  0.7818608E-02  0.8701652E-01
          1   -1    0    0  501    0  0.00000000000E+00  0.00000000000E+00  0.37374940826E+04  0.37374940826E+04  0.50400000000E-02 0. -1.
         -1   -1    0    0    0  501 -0.00000000000E+00 -0.00000000000E+00 -0.10167604766E+04  0.10167604767E+04  0.50400000000E-02 0.  1.
    8880023    1    1    2    0    0  0.38287112387E+03 -0.16729836185E+04  0.23640900837E+04  0.29946947449E+04  0.65864270000E+03 0.  0.
    8880022    1    1    2    0    0 -0.38287112387E+03  0.16729836185E+04  0.35664352229E+03  0.17595598144E+04  0.15294330000E+03 0.  0.
<mgrwt>
<rscale>  0 0.18087663E+04</rscale>
<asrwt>0</asrwt>
<pdfrwt beam="1">  1        1 0.57499909E+00 0.18382804E+04</pdfrwt>
<pdfrwt beam="2">  1       -1 0.15642469E+00 0.18382804E+04</pdfrwt>
<totfact> 0.45884992E-02</totfact>
</mgrwt>
</event>
<event>
 4    5  0.7176259E-008  0.7115509E+03  0.7818608E-02  0.9952286E-01
         -1   -1    0    0    0  501 -0.00000000000E+00  0.00000000000E+00  0.67665980504E+03  0.67665980506E+03  0.50400000000E-02 0.  1.
          1   -1    0    0  501    0  0.00000000000E+00 -0.00000000000E+00 -0.74780947416E+03  0.74780947418E+03  0.50400000000E-02 0. -1.
    8880023    1    1    2    0    0 -0.16512458824E+03 -0.21266959992E+03 -0.51848468339E+03  0.88041527789E+03  0.65864270000E+03 0. -1.
    8880022    1    1    2    0    0  0.16512458824E+03  0.21266959992E+03  0.44733501427E+03  0.54405400134E+03  0.15294330000E+03 0.  0.
<mgrwt>
<rscale>  0 0.57792830E+03</rscale>
<asrwt>0</asrwt>
<pdfrwt beam="1">  1        1 0.11504761E+00 0.71155091E+03</pdfrwt>
<pdfrwt beam="2">  1       -1 0.10410151E+00 0.71155091E+03</pdfrwt>
<totfact> 0.22039402E+01</totfact>
</mgrwt>
</event>
<event>
 4    5  0.9187229E-008  0.7637307E+03  0.7818608E-02  0.9795543E-01
         -1   -1    0    0    0  501 -0.00000000000E+00  0.00000000000E+00  0.10495212744E+04  0.10495212744E+04  0.50400000000E-02 0.  1.
          1   -1    0    0  501    0  0.00000000000E+00 -0.00000000000E+00 -0.17626395105E+04  0.17626395105E+04  0.50400000000E-02 0. -1.
    8880023    1    1    2    0    0  0.37716789248E+03  0.84963496382E+02 -0.16329521914E+04  0.18027250152E+04  0.65864270000E+03 0. -1.
    8880022    1    1    2    0    0 -0.37716789248E+03 -0.84963496382E+02  0.91983395531E+03  0.10094357697E+04  0.15294330000E+03 0.  0.
<mgrwt>
<rscale>  0 0.65602277E+03</rscale>
<asrwt>0</asrwt>
<pdfrwt beam="1">  1        1 0.27117531E+00 0.76373073E+03</pdfrwt>
<pdfrwt beam="2">  1       -1 0.16146481E+00 0.76373073E+03</pdfrwt>
<totfact> 0.12928305E+00</totfact>
</mgrwt>
</event>
<event>
 4    5  0.7176259E-008  0.7787365E+03  0.7818608E-02  0.9758813E-01
          1   -1    0    0  501    0  0.00000000000E+00  0.00000000000E+00  0.81965166893E+03  0.81965166895E+03  0.50400000000E-02 0. -1.
         -1   -1    0    0    0  501 -0.00000000000E+00 -0.00000000000E+00 -0.60790334723E+03  0.60790334725E+03  0.50400000000E-02 0.  1.
    8880023    1    1    2    0    0 -0.15546161638E+03 -0.38529470740E+03  0.47528910171E+03  0.91232135905E+03  0.65864270000E+03 0. -1.
    8880022    1    1    2    0    0  0.15546161638E+03  0.38529470740E+03 -0.26354078001E+03  0.51523365715E+03  0.15294330000E+03 0.  1.
<mgrwt>
<rscale>  0 0.67620476E+03</rscale>
<asrwt>0</asrwt>
<pdfrwt beam="1">  1        1 0.12610026E+00 0.77873650E+03</pdfrwt>
<pdfrwt beam="2">  1       -1 0.93523593E-01 0.77873650E+03</pdfrwt>
<totfact> 0.24131344E+01</totfact>
</mgrwt>
</event>
<event>
 4    5  0.7176259E-008  0.9821749E+03  0.7818608E-02  0.9405259E-01
         -1   -1    0    0    0  501 -0.00000000000E+00  0.00000000000E+00  0.44600318716E+03  0.44600318719E+03  0.50400000000E-02 0.  1.
          1   -1    0    0  501    0  0.00000000000E+00 -0.00000000000E+00 -0.29352170935E+04  0.29352170935E+04  0.50400000000E-02 0. -1.
    8880023    1    1    2    0    0 -0.13657704472E+03 -0.71568431652E+03 -0.24456104958E+04  0.26354654681E+04  0.65864270000E+03 0. -1.
    8880022    1    1    2    0    0  0.13657704472E+03  0.71568431652E+03 -0.43603410523E+02  0.74575481258E+03  0.15294330000E+03 0.  0.
<mgrwt>
<rscale>  0 0.91644148E+03</rscale>
<asrwt>0</asrwt>
<pdfrwt beam="1">  1        1 0.45157185E+00 0.98217490E+03</pdfrwt>
<pdfrwt beam="2">  1       -1 0.68615877E-01 0.98217490E+03</pdfrwt>
<totfact> 0.14748729E+00</totfact>
</mgrwt>
</event>
<event>
 4    5  0.7176259E-008  0.8378283E+03  0.7818608E-02  0.9634289E-01
         -1   -1    0    0    0  501 -0.00000000000E+00  0.00000000000E+00  0.34123495213E+03  0.34123495217E+03  0.50400000000E-02 0.  1.
          1   -1    0    0  501    0  0.00000000000E+00 -0.00000000000E+00 -0.19823252567E+04  0.19823252567E+04  0.50400000000E-02 0. -1.
    8880023    1    1    2    0    0 -0.51394762834E+03  0.63275736020E+02 -0.15691900567E+04  0.17788517711E+04  0.65864270000E+03 0.  0.
    8880022    1    1    2    0    0  0.51394762834E+03 -0.63275736020E+02 -0.71900247865E+02  0.54470843770E+03  0.15294330000E+03 0.  0.
<mgrwt>
<rscale>  0 0.75067695E+03</rscale>
<asrwt>0</asrwt>
<pdfrwt beam="1">  1        1 0.30497311E+00 0.83782826E+03</pdfrwt>
<pdfrwt beam="2">  1       -1 0.52497686E-01 0.83782826E+03</pdfrwt>
<totfact> 0.11551579E+01</totfact>
</mgrwt>
</event>
<event>
 4    5  0.7176259E-008  0.8399406E+03  0.7818608E-02  0.9630292E-01
          1   -1    0    0  501    0  0.00000000000E+00  0.00000000000E+00  0.24568419015E+04  0.24568419015E+04  0.50400000000E-02 0. -1.
         -1   -1    0    0    0  501 -0.00000000000E+00 -0.00000000000E+00 -0.29925707820E+03  0.29925707824E+03  0.50400000000E-02 0.  1.
    8880023    1    1    2    0    0 -0.45855279805E+03 -0.24782936320E+03  0.20317161058E+04  0.21984928025E+04  0.65864270000E+03 0. -1.
    8880022    1    1    2    0    0  0.45855279805E+03  0.24782936320E+03  0.12586871753E+03  0.55760617727E+03  0.15294330000E+03 0.  0.
<mgrwt>
<rscale>  0 0.75323281E+03</rscale>
<asrwt>0</asrwt>
<pdfrwt beam="1">  1        1 0.37797567E+00 0.83994063E+03</pdfrwt>
<pdfrwt beam="2">  1       -1 0.46039551E-01 0.83994063E+03</pdfrwt>
<totfact> 0.70840200E+00</totfact>
</mgrwt>
</event>
<event>
 4    5  0.7176259E-008  0.7027304E+03  0.7818608E-02  0.9986058E-01
          1   -1    0    0  501    0  0.00000000000E+00  0.00000000000E+00  0.11779394862E+04  0.11779394862E+04  0.50400000000E-02 0. -1.
         -1   -1    0    0    0  501 -0.00000000000E+00 -0.00000000000E+00 -0.29095902286E+03  0.29095902290E+03  0.50400000000E-02 0.  1.
    8880023    1    1    2    0    0 -0.23795800291E+03 -0.58273353540E+02  0.94164777745E+03  0.11749598027E+04  0.65864270000E+03 0.  0.
    8880022    1    1    2    0    0  0.23795800291E+03  0.58273353540E+02 -0.54667314118E+02  0.29393870642E+03  0.15294330000E+03 0.  0.
<mgrwt>
<rscale>  0 0.56265834E+03</rscale>
<asrwt>0</asrwt>
<pdfrwt beam="1">  1        1 0.18122146E+00 0.70273039E+03</pdfrwt>
<pdfrwt beam="2">  1       -1 0.44762927E-01 0.70273039E+03</pdfrwt>
<totfact> 0.56477589E+01</totfact>
</mgrwt>
</event>
<event>
 4    5  0.7176259E-008  0.6813923E+03  0.7818608E-02  0.1008547E+00
         -1   -1    0    0    0  501 -0.00000000000E+00  0.00000000000E+00  0.38998362008E+03  0.38998362011E+03  0.50400000000E-02 0.  1.
          1   -1    0    0  501    0  0.00000000000E+00 -0.00000000000E+00 -0.37815053108E+04  0.37815053108E+04  0.50400000000E-02 0. -1.
    8880023    1    1    2    0    0  0.19740341769E+02  0.17348065763E+03 -0.37129818367E+04  0.37749873570E+04  0.65864270000E+03 0. -1.
    8880022    1    1    2    0    0 -0.19740341769E+02 -0.17348065763E+03  0.32146014596E+03  0.39650157392E+03  0.15294330000E+03 0.  0.
<mgrwt>
<rscale>  0 0.52056288E+03</rscale>
<asrwt>0</asrwt>
<pdfrwt beam="1">  1        1 0.58177002E+00 0.68139227E+03</pdfrwt>
<pdfrwt beam="2">  1       -1 0.59997483E-01 0.68139227E+03</pdfrwt>
<totfact> 0.46796932E-01</totfact>
</mgrwt>
</event>
<event>
 4    5  0.7176259E-008  0.8408264E+03  0.7818608E-02  0.9628624E-01
         -1   -1    0    0    0  501 -0.00000000000E+00  0.00000000000E+00  0.15422021428E+04  0.15422021428E+04  0.50400000000E-02 0.  1.
          1   -1    0    0  501    0  0.00000000000E+00 -0.00000000000E+00 -0.80574229847E+03  0.80574229848E+03  0.50400000000E-02 0. -1.
    8880023    1    1    2    0    0 -0.29939201705E+03 -0.42841944243E+03 -0.51299742258E+03  0.98496464930E+03  0.65864270000E+03 0.  0.
    8880022    1    1    2    0    0  0.29939201705E+03  0.42841944243E+03  0.12494572669E+04  0.13629797920E+04  0.15294330000E+03 0.  0.
<mgrwt>
<rscale>  0 0.75430282E+03</rscale>
<asrwt>0</asrwt>
<pdfrwt beam="1">  1        1 0.12396036E+00 0.84082638E+03</pdfrwt>
<pdfrwt beam="2">  1       -1 0.23726186E+00 0.84082638E+03</pdfrwt>
<totfact> 0.19021853E+00</totfact>
</mgrwt>
</event>
<event>
 4    5  0.7176259E-008  0.7941964E+03  0.7818608E-02  0.9723488E-01
          1   -1    0    0  501    0  0.00000000000E+00  0.00000000000E+00  0.26302837038E+04  0.26302837038E+04  0.50400000000E-02 0. -1.
         -1   -1    0    0    0  501 -0.00000000000E+00 -0.00000000000E+00 -0.45601440191E+03  0.45601440193E+03  0.50400000000E-02 0.  1.
    8880023    1    1    2    0    0  0.40426783873E+03 -0.18304430995E+03  0.24266854652E+04  0.25533409992E+04  0.65864270000E+03 0. -1.
    8880022    1    1    2    0    0 -0.40426783873E+03  0.18304430995E+03 -0.25241616336E+03  0.53295710650E+03  0.15294330000E+03 0.  0.
<mgrwt>
<rscale>  0 0.69635385E+03</rscale>
<asrwt>0</asrwt>
<pdfrwt beam="1">  1        1 0.40465903E+00 0.79419639E+03</pdfrwt>
<pdfrwt beam="2">  1       -1 0.70156062E-01 0.79419639E+03</pdfrwt>
<totfact> 0.23845968E+00</totfact>
</mgrwt>
</event>
<event>
 4    5  0.7176259E-008  0.7041303E+03  0.7818608E-02  0.9980480E-01
          1   -1    0    0  501    0  0.00000000000E+00  0.00000000000E+00  0.10286827849E+04  0.10286827849E+04  0.50400000000E-02 0. -1.
         -1   -1    0    0    0  501 -0.00000000000E+00 -0.00000000000E+00 -0.40828887471E+03  0.40828887474E+03  0.50400000000E-02 0.  1.
    8880023    1    1    2    0    0 -0.24473885391E+03  0.45740832730E+02  0.82171313567E+03  0.10821330852E+04  0.65864270000E+03 0. -1.
    8880022    1    1    2    0    0  0.24473885391E+03 -0.45740832730E+02 -0.20131922548E+03  0.35483857450E+03  0.15294330000E+03 0.  0.
<mgrwt>
<rscale>  0 0.56514506E+03</rscale>
<asrwt>0</asrwt>
<pdfrwt beam="1">  1        1 0.15825889E+00 0.70413034E+03</pdfrwt>
<pdfrwt beam="2">  1       -1 0.62813674E-01 0.70413034E+03</pdfrwt>
<totfact> 0.38097154E+01</totfact>
</mgrwt>
</event>
<event>
 4    5  0.7176259E-008  0.1313175E+04  0.7818608E-02  0.9054266E-01
         -1   -1    0    0    0  501 -0.00000000000E+00  0.00000000000E+00  0.71357200043E+03  0.71357200044E+03  0.50400000000E-02 0.  1.
          1   -1    0    0  501    0  0.00000000000E+00 -0.00000000000E+00 -0.29947035110E+04  0.29947035110E+04  0.50400000000E-02 0. -1.
    8880023    1    1    2    0    0 -0.11310245359E+04 -0.10677437515E+03 -0.21961738597E+04  0.25588292433E+04  0.65864270000E+03 0.  0.
    8880022    1    1    2    0    0  0.11310245359E+04  0.10677437515E+03 -0.84957650855E+02  0.11494462682E+04  0.15294330000E+03 0.  0.
<mgrwt>
<rscale>  0 0.12693069E+04</rscale>
<asrwt>0</asrwt>
<pdfrwt beam="1">  1        1 0.46072361E+00 0.13131746E+04</pdfrwt>
<pdfrwt beam="2">  1       -1 0.10978031E+00 0.13131746E+04</pdfrwt>
<totfact> 0.45307404E-01</totfact>
</mgrwt>
</event>
<event>
 4    5  0.7176259E-008  0.9019020E+03  0.7818608E-02  0.9522985E-01
         -1   -1    0    0    0  501 -0.00000000000E+00  0.00000000000E+00  0.74308267347E+03  0.74308267349E+03  0.50400000000E-02 0.  1.
          1   -1    0    0  501    0  0.00000000000E+00 -0.00000000000E+00 -0.10847093989E+04  0.10847093989E+04  0.50400000000E-02 0. -1.
    8880023    1    1    2    0    0  0.47952042920E+03 -0.38688124774E+03 -0.66000291592E+03  0.11176005535E+04  0.65864270000E+03 0.  0.
    8880022    1    1    2    0    0 -0.47952042920E+03  0.38688124774E+03  0.31837619048E+03  0.71019151892E+03  0.15294330000E+03 0.  0.
<mgrwt>
<rscale>  0 0.82610222E+03</rscale>
<asrwt>0</asrwt>
<pdfrwt beam="1">  1        1 0.16687837E+00 0.90190196E+03</pdfrwt>
<pdfrwt beam="2">  1       -1 0.11432041E+00 0.90190196E+03</pdfrwt>
<totfact> 0.91903103E+00</totfact>
</mgrwt>
</event>
<event>
 4    5  0.7176259E-008  0.9872545E+03  0.7818608E-02  0.9398426E-01
          1   -1    0    0  501    0  0.00000000000E+00  0.00000000000E+00  0.95492140916E+03  0.95492140917E+03  0.50400000000E-02 0. -1.
         -1   -1    0    0    0  501 -0.00000000000E+00 -0.00000000000E+00 -0.11254599976E+04  0.11254599976E+04  0.50400000000E-02 0.  1.
    8880023    1    1    2    0    0 -0.63169038876E+03 -0.37660123843E+03  0.46978700971E+03  0.10933303621E+04  0.65864270000E+03 0. -1.
    8880022    1    1    2    0    0  0.63169038876E+03  0.37660123843E+03 -0.64032559813E+03  0.98705104461E+03  0.15294330000E+03 0.  0.
<mgrwt>
<rscale>  0 0.92205338E+03</rscale>
<asrwt>0</asrwt>
<pdfrwt beam="1">  1        1 0.14691099E+00 0.98725450E+03</pdfrwt>
<pdfrwt beam="2">  1       -1 0.17314769E+00 0.98725450E+03</pdfrwt>
<totfact> 0.38499882E+00</totfact>
</mgrwt>
</event>
<event>
 4    5  0.7176259E-008  0.1375441E+04  0.7818608E-02  0.9003005E-01
         -1   -1    0    0    0  501 -0.00000000000E+00  0.00000000000E+00  0.74268338808E+03  0.74268338810E+03  0.50400000000E-02 0.  1.
          1   -1    0    0  501    0  0.00000000000E+00 -0.00000000000E+00 -0.28917893188E+04  0.28917893189E+04  0.50400000000E-02 0. -1.
    8880023    1    1    2    0    0  0.10510628941E+04 -0.59438562105E+03 -0.19723353997E+04  0.24045674474E+04  0.65864270000E+03 0.  0.
    8880022    1    1    2    0    0 -0.10510628941E+04  0.59438562105E+03 -0.17677053104E+03  0.12299052596E+04  0.15294330000E+03 0.  0.
<mgrwt>
<rscale>  0 0.13340318E+04</rscale>
<asrwt>0</asrwt>
<pdfrwt beam="1">  1        1 0.44489066E+00 0.13754409E+04</pdfrwt>
<pdfrwt beam="2">  1       -1 0.11425898E+00 0.13754409E+04</pdfrwt>
<totfact> 0.48453847E-01</totfact>
</mgrwt>
</event>
<event>
 4    5  0.7176259E-008  0.1176811E+04  0.7818608E-02  0.9180000E-01
         -1   -1    0    0    0  501 -0.00000000000E+00  0.00000000000E+00  0.75484441821E+03  0.75484441823E+03  0.50400000000E-02 0.  1.
          1   -1    0    0  501    0  0.00000000000E+00 -0.00000000000E+00 -0.21161412819E+04  0.21161412819E+04  0.50400000000E-02 0. -1.
    8880023    1    1    2    0    0 -0.52836095841E+02 -0.97379821356E+03 -0.14641830680E+04  0.18784879229E+04  0.65864270000E+03 0.  0.
    8880022    1    1    2    0    0  0.52836095841E+02  0.97379821356E+03  0.10288620428E+03  0.99249777722E+03  0.15294330000E+03 0.  0.
<mgrwt>
<rscale>  0 0.11262271E+04</rscale>
<asrwt>0</asrwt>
<pdfrwt beam="1">  1        1 0.32556020E+00 0.11768113E+04</pdfrwt>
<pdfrwt beam="2">  1       -1 0.11612991E+00 0.11768113E+04</pdfrwt>
<totfact> 0.16467908E+00</totfact>
</mgrwt>
</event>
<event>
 4    5  0.7176259E-008  0.7618053E+03  0.7818608E-02  0.9800456E-01
         -1   -1    0    0    0  501 -0.00000000000E+00  0.00000000000E+00  0.16921174582E+04  0.16921174582E+04  0.50400000000E-02 0.  1.
          1   -1    0    0  501    0  0.00000000000E+00 -0.00000000000E+00 -0.45927760163E+03  0.45927760166E+03  0.50400000000E-02 0. -1.
    8880023    1    1    2    0    0  0.13369991560E+03 -0.35869408369E+03 -0.88796801585E+02  0.76696296608E+03  0.65864270000E+03 0. -1.
    8880022    1    1    2    0    0 -0.13369991560E+03  0.35869408369E+03  0.13216366581E+04  0.13844320938E+04  0.15294330000E+03 0.  0.
<mgrwt>
<rscale>  0 0.65338078E+03</rscale>
<asrwt>0</asrwt>
<pdfrwt beam="1">  1        1 0.70658092E-01 0.76180530E+03</pdfrwt>
<pdfrwt beam="2">  1       -1 0.26032576E+00 0.76180530E+03</pdfrwt>
<totfact> 0.30987931E+00</totfact>
</mgrwt>
</event>
<event>
 4    5  0.7176259E-008  0.7025010E+03  0.7818608E-02  0.9986980E-01
         -1   -1    0    0    0  501 -0.00000000000E+00  0.00000000000E+00  0.28488390295E+03  0.28488390300E+03  0.50400000000E-02 0.  1.
          1   -1    0    0  501    0  0.00000000000E+00 -0.00000000000E+00 -0.86334833583E+03  0.86334833584E+03  0.50400000000E-02 0. -1.
    8880023    1    1    2    0    0 -0.12641441825E+03 -0.20908560051E+03 -0.38508172220E+03  0.80112142183E+03  0.65864270000E+03 0. -1.
    8880022    1    1    2    0    0  0.12641441825E+03  0.20908560051E+03 -0.19338271067E+03  0.34711081701E+03  0.15294330000E+03 0. -1.
<mgrwt>
<rscale>  0 0.56224832E+03</rscale>
<asrwt>0</asrwt>
<pdfrwt beam="1">  1        1 0.13282282E+00 0.70250096E+03</pdfrwt>
<pdfrwt beam="2">  1       -1 0.43828293E-01 0.70250096E+03</pdfrwt>
<totfact> 0.10264792E+02</totfact>
</mgrwt>
</event>
<event>
 4    5  0.7176259E-008  0.8314215E+03  0.7818608E-02  0.9646573E-01
         -1   -1    0    0    0  501 -0.00000000000E+00  0.00000000000E+00  0.44027256702E+03  0.44027256705E+03  0.50400000000E-02 0.  1.
          1   -1    0    0  501    0  0.00000000000E+00 -0.00000000000E+00 -0.21199507666E+04  0.21199507666E+04  0.50400000000E-02 0. -1.
    8880023    1    1    2    0    0 -0.50486750761E+03  0.50599116148E+02 -0.18294541306E+04  0.20095183734E+04  0.65864270000E+03 0. -1.
    8880022    1    1    2    0    0  0.50486750761E+03 -0.50599116148E+02  0.14977593096E+03  0.55070496031E+03  0.15294330000E+03 0.  0.
<mgrwt>
<rscale>  0 0.74288896E+03</rscale>
<asrwt>0</asrwt>
<pdfrwt beam="1">  1        1 0.32614626E+00 0.83142148E+03</pdfrwt>
<pdfrwt beam="2">  1       -1 0.67734243E-01 0.83142148E+03</pdfrwt>
<totfact> 0.56549092E+00</totfact>
</mgrwt>
</event>
<event>
 4    5  0.7176259E-008  0.1141455E+04  0.7818608E-02  0.9216246E-01
          1   -1    0    0  501    0  0.00000000000E+00  0.00000000000E+00  0.21481463957E+04  0.21481463957E+04  0.50400000000E-02 0. -1.
         -1   -1    0    0    0  501 -0.00000000000E+00 -0.00000000000E+00 -0.13595258473E+04  0.13595258473E+04  0.50400000000E-02 0.  1.
    8880023    1    1    2    0    0 -0.86867901286E+03  0.33838856624E+03  0.17950978112E+04  0.21272744081E+04  0.65864270000E+03 0.  0.
    8880022    1    1    2    0    0  0.86867901286E+03 -0.33838856624E+03 -0.10064772629E+04  0.13803978350E+04  0.15294330000E+03 0.  0.
<mgrwt>
<rscale>  0 0.10887303E+04</rscale>
<asrwt>0</asrwt>
<pdfrwt beam="1">  1        1 0.33048406E+00 0.11414553E+04</pdfrwt>
<pdfrwt beam="2">  1       -1 0.20915782E+00 0.11414553E+04</pdfrwt>
<totfact> 0.30524363E-01</totfact>
</mgrwt>
</event>
<event>
 4    5  0.7176259E-008  0.6855941E+03  0.7818608E-02  0.1006321E+00
         -1   -1    0    0    0  501 -0.00000000000E+00  0.00000000000E+00  0.54147290732E+03  0.54147290734E+03  0.50400000000E-02 0.  1.
          1   -1    0    0  501    0  0.00000000000E+00 -0.00000000000E+00 -0.39914032983E+03  0.39914032986E+03  0.50400000000E-02 0. -1.
    8880023    1    1    2    0    0 -0.75739325389E+02  0.17462118039E+03  0.10263250261E+03  0.69323346638E+03  0.65864270000E+03 0.  0.
    8880022    1    1    2    0    0  0.75739325389E+02 -0.17462118039E+03  0.39700074880E+02  0.24737977082E+03  0.15294330000E+03 0.  1.
<mgrwt>
<rscale>  0 0.52963280E+03</rscale>
<asrwt>0</asrwt>
<pdfrwt beam="1">  1        1 0.61406204E-01 0.68559406E+03</pdfrwt>
<pdfrwt beam="2">  1       -1 0.83303525E-01 0.68559406E+03</pdfrwt>
<totfact> 0.87999276E+01</totfact>
</mgrwt>
</event>
<event>
 4    5  0.7176259E-008  0.1982777E+04  0.7818608E-02  0.8627647E-01
         -1   -1    0    0    0  501 -0.00000000000E+00  0.00000000000E+00  0.23801792099E+04  0.23801792099E+04  0.50400000000E-02 0.  1.
          1   -1    0    0  501    0  0.00000000000E+00 -0.00000000000E+00 -0.20408929550E+04  0.20408929551E+04  0.50400000000E-02 0. -1.
    8880023    1    1    2    0    0  0.66073195598E+03  0.17495796850E+04  0.12411110420E+04  0.23391799026E+04  0.65864270000E+03 0.  0.
    8880022    1    1    2    0    0 -0.66073195598E+03 -0.17495796850E+04 -0.90182478720E+03  0.20818922623E+04  0.15294330000E+03 0.  0.
<mgrwt>
<rscale>  0 0.19556382E+04</rscale>
<asrwt>0</asrwt>
<pdfrwt beam="1">  1        1 0.31398353E+00 0.19827773E+04</pdfrwt>
<pdfrwt beam="2">  1       -1 0.36618141E+00 0.19827773E+04</pdfrwt>
<totfact> 0.30160271E-02</totfact>
</mgrwt>
</event>
<event>
 4    5  0.7176259E-008  0.8211729E+03  0.7818608E-02  0.9666758E-01
         -1   -1    0    0    0  501 -0.00000000000E+00  0.00000000000E+00  0.10770690089E+04  0.10770690089E+04  0.50400000000E-02 0.  1.
          1   -1    0    0  501    0  0.00000000000E+00 -0.00000000000E+00 -0.30991987813E+04  0.30991987813E+04  0.50400000000E-02 0. -1.
    8880023    1    1    2    0    0 -0.34068732161E+03  0.35277032951E+03 -0.29790590254E+04  0.30901646622E+04  0.65864270000E+03 0.  0.
    8880022    1    1    2    0    0  0.34068732161E+03 -0.35277032951E+03  0.95692925299E+03  0.10861031280E+04  0.15294330000E+03 0.  0.
<mgrwt>
<rscale>  0 0.73030993E+03</rscale>
<asrwt>0</asrwt>
<pdfrwt beam="1">  1        1 0.47679981E+00 0.82117292E+03</pdfrwt>
<pdfrwt beam="2">  1       -1 0.16570293E+00 0.82117292E+03</pdfrwt>
<totfact> 0.14346620E-01</totfact>
</mgrwt>
</event>
<event>
 4    5  0.7176259E-008  0.1048494E+04  0.7818608E-02  0.9320694E-01
          1   -1    0    0  501    0  0.00000000000E+00  0.00000000000E+00  0.37752380398E+03  0.37752380402E+03  0.50400000000E-02 0. -1.
         -1   -1    0    0    0  501 -0.00000000000E+00 -0.00000000000E+00 -0.35467863549E+04  0.35467863549E+04  0.50400000000E-02 0.  1.
    8880023    1    1    2    0    0  0.71767865840E+03 -0.38790075800E+03 -0.56511960615E+03  0.11910919487E+04  0.65864270000E+03 0. -1.
    8880022    1    1    2    0    0 -0.71767865840E+03  0.38790075800E+03 -0.26041429448E+04  0.27332182102E+04  0.15294330000E+03 0.  0.
<mgrwt>
<rscale>  0 0.98899864E+03</rscale>
<asrwt>0</asrwt>
<pdfrwt beam="1">  1        1 0.58080587E-01 0.10484941E+04</pdfrwt>
<pdfrwt beam="2">  1       -1 0.54565942E+00 0.10484941E+04</pdfrwt>
<totfact> 0.51190989E-02</totfact>
</mgrwt>
</event>
<event>
 4    5  0.7176259E-008  0.1652978E+04  0.7818608E-02  0.8808544E-01
         -1   -1    0    0    0  501 -0.00000000000E+00  0.00000000000E+00  0.15198950120E+04  0.15198950120E+04  0.50400000000E-02 0.  1.
          1   -1    0    0  501    0  0.00000000000E+00 -0.00000000000E+00 -0.30905979383E+04  0.30905979383E+04  0.50400000000E-02 0. -1.
    8880023    1    1    2    0    0 -0.14514872144E+04  0.43784838117E+03 -0.23702277936E+04  0.28896913915E+04  0.65864270000E+03 0.  0.
    8880022    1    1    2    0    0  0.14514872144E+04 -0.43784838117E+03  0.79952486721E+03  0.17208015588E+04  0.15294330000E+03 0.  0.
<mgrwt>
<rscale>  0 0.16196873E+04</rscale>
<asrwt>0</asrwt>
<pdfrwt beam="1">  1        1 0.47547661E+00 0.16529781E+04</pdfrwt>
<pdfrwt beam="2">  1       -1 0.23383000E+00 0.16529781E+04</pdfrwt>
<totfact> 0.42337321E-02</totfact>
</mgrwt>
</event>
<event>
 4    5  0.7176259E-008  0.7823678E+03  0.7818608E-02  0.9750304E-01
          1   -1    0    0  501    0  0.00000000000E+00  0.00000000000E+00  0.14667769491E+04  0.14667769491E+04  0.50400000000E-02 0. -1.
         -1   -1    0    0    0  501 -0.00000000000E+00 -0.00000000000E+00 -0.37590953203E+03  0.37590953207E+03  0.50400000000E-02 0.  1.
    8880023    1    1    2    0    0  0.18380657992E+02 -0.42184281357E+03  0.11487680833E+04  0.13898803990E+04  0.65864270000E+03 0. -1.
    8880022    1    1    2    0    0 -0.18380657992E+02  0.42184281357E+03 -0.57900666211E+02  0.45280608223E+03  0.15294330000E+03 0.  0.
<mgrwt>
<rscale>  0 0.68099092E+03</rscale>
<asrwt>0</asrwt>
<pdfrwt beam="1">  1        1 0.22565799E+00 0.78236783E+03</pdfrwt>
<pdfrwt beam="2">  1       -1 0.57832236E-01 0.78236783E+03</pdfrwt>
<totfact> 0.21512140E+01</totfact>
</mgrwt>
</event>
<event>
 4    5  0.7176259E-008  0.1051208E+04  0.7818608E-02  0.9317430E-01
          1   -1    0    0  501    0  0.00000000000E+00  0.00000000000E+00  0.21420789222E+04  0.21420789222E+04  0.50400000000E-02 0. -1.
         -1   -1    0    0    0  501 -0.00000000000E+00 -0.00000000000E+00 -0.43523797142E+03  0.43523797145E+03  0.50400000000E-02 0.  1.
    8880023    1    1    2    0    0  0.50220918384E+03  0.64731309203E+03  0.12265835091E+04  0.16154088073E+04  0.65864270000E+03 0.  0.
    8880022    1    1    2    0    0 -0.50220918384E+03 -0.64731309203E+03  0.48025744168E+03  0.96190808644E+03  0.15294330000E+03 0.  0.
<mgrwt>
<rscale>  0 0.99193893E+03</rscale>
<asrwt>0</asrwt>
<pdfrwt beam="1">  1        1 0.32955060E+00 0.10512081E+04</pdfrwt>
<pdfrwt beam="2">  1       -1 0.66959689E-01 0.10512081E+04</pdfrwt>
<totfact> 0.54275832E+00</totfact>
</mgrwt>
</event>
<event>
 4    5  0.7176259E-008  0.9820374E+03  0.7818608E-02  0.9405445E-01
         -1   -1    0    0    0  501 -0.00000000000E+00  0.00000000000E+00  0.71604332239E+03  0.71604332241E+03  0.50400000000E-02 0.  1.
          1   -1    0    0  501    0  0.00000000000E+00 -0.00000000000E+00 -0.23716451749E+04  0.23716451749E+04  0.50400000000E-02 0. -1.
    8880023    1    1    2    0    0  0.36499778682E+03  0.63036804350E+03 -0.20296070069E+04  0.22547066468E+04  0.65864270000E+03 0. -1.
    8880022    1    1    2    0    0 -0.36499778682E+03 -0.63036804350E+03  0.37400515440E+03  0.83298185045E+03  0.15294330000E+03 0.  0.
<mgrwt>
<rscale>  0 0.91628943E+03</rscale>
<asrwt>0</asrwt>
<pdfrwt beam="1">  1        1 0.36486849E+00 0.98203740E+03</pdfrwt>
<pdfrwt beam="2">  1       -1 0.11016051E+00 0.98203740E+03</pdfrwt>
<totfact> 0.12882989E+00</totfact>
</mgrwt>
</event>
<event>
 4    5  0.7176259E-008  0.7405314E+03  0.7818608E-02  0.9858402E-01
          1   -1    0    0  501    0  0.00000000000E+00  0.00000000000E+00  0.97101165564E+03  0.97101165566E+03  0.50400000000E-02 0. -1.
         -1   -1    0    0    0  501 -0.00000000000E+00 -0.00000000000E+00 -0.56489574396E+03  0.56489574398E+03  0.50400000000E-02 0.  1.
    8880023    1    1    2    0    0 -0.10542254474E+02 -0.33832743142E+03  0.73238060269E+03  0.10415220321E+04  0.65864270000E+03 0.  0.
    8880022    1    1    2    0    0  0.10542254474E+02  0.33832743142E+03 -0.32626469101E+03  0.49438536750E+03  0.15294330000E+03 0.  0.
<mgrwt>
<rscale>  0 0.62320369E+03</rscale>
<asrwt>0</asrwt>
<pdfrwt beam="1">  1        1 0.14938641E+00 0.74053143E+03</pdfrwt>
<pdfrwt beam="2">  1       -1 0.86907039E-01 0.74053143E+03</pdfrwt>
<totfact> 0.21421474E+01</totfact>
</mgrwt>
</event>
<event>
 4    5  0.7176259E-008  0.1122438E+04  0.7818608E-02  0.9236476E-01
         -1   -1    0    0    0  501 -0.00000000000E+00  0.00000000000E+00  0.24863163480E+04  0.24863163480E+04  0.50400000000E-02 0.  1.
          1   -1    0    0  501    0  0.00000000000E+00 -0.00000000000E+00 -0.46678844451E+03  0.46678844454E+03  0.50400000000E-02 0. -1.
    8880023    1    1    2    0    0 -0.76714871023E+03 -0.48738088065E+03  0.63424886999E+03  0.12892397379E+04  0.65864270000E+03 0. -1.
    8880022    1    1    2    0    0  0.76714871023E+03  0.48738088065E+03  0.13852790335E+04  0.16638650546E+04  0.15294330000E+03 0.  1.
<mgrwt>
<rscale>  0 0.10684741E+04</rscale>
<asrwt>0</asrwt>
<pdfrwt beam="1">  1        1 0.71813606E-01 0.11224382E+04</pdfrwt>
<pdfrwt beam="2">  1       -1 0.38251021E+00 0.11224382E+04</pdfrwt>
<totfact> 0.46163771E-01</totfact>
</mgrwt>
</event>
<event>
 4    5  0.7176259E-008  0.1359239E+04  0.7818608E-02  0.9016020E-01
         -1   -1    0    0    0  501 -0.00000000000E+00  0.00000000000E+00  0.13684087806E+04  0.13684087806E+04  0.50400000000E-02 0.  1.
          1   -1    0    0  501    0  0.00000000000E+00 -0.00000000000E+00 -0.15751536502E+04  0.15751536502E+04  0.50400000000E-02 0. -1.
    8880023    1    1    2    0    0  0.96938309431E+03  0.68848858713E+03 -0.82980922959E+03  0.15925180319E+04  0.65864270000E+03 0.  0.
    8880022    1    1    2    0    0 -0.96938309431E+03 -0.68848858713E+03  0.62306435999E+03  0.13510443989E+04  0.15294330000E+03 0.  0.
<mgrwt>
<rscale>  0 0.13172195E+04</rscale>
<asrwt>0</asrwt>
<pdfrwt beam="1">  1        1 0.24233133E+00 0.13592389E+04</pdfrwt>
<pdfrwt beam="2">  1       -1 0.21052443E+00 0.13592389E+04</pdfrwt>
<totfact> 0.71138079E-01</totfact>
</mgrwt>
</event>
<event>
 4    5  0.7176259E-008  0.1080369E+04  0.7818608E-02  0.9283234E-01
          1   -1    0    0  501    0  0.00000000000E+00  0.00000000000E+00  0.90472695941E+03  0.90472695943E+03  0.50400000000E-02 0. -1.
         -1   -1    0    0    0  501 -0.00000000000E+00 -0.00000000000E+00 -0.14245709363E+04  0.14245709363E+04  0.50400000000E-02 0.  1.
    8880023    1    1    2    0    0  0.80300966281E+03 -0.29759373870E+03  0.31317883389E+03  0.11248456517E+04  0.65864270000E+03 0.  0.
    8880022    1    1    2    0    0 -0.80300966281E+03  0.29759373870E+03 -0.83302281073E+03  0.12044522440E+04  0.15294330000E+03 0. -1.
<mgrwt>
<rscale>  0 0.10234111E+04</rscale>
<asrwt>0</asrwt>
<pdfrwt beam="1">  1        1 0.13918876E+00 0.10803688E+04</pdfrwt>
<pdfrwt beam="2">  1       -1 0.21916476E+00 0.10803688E+04</pdfrwt>
<totfact> 0.20010800E+00</totfact>
</mgrwt>
</event>
<event>
 4    5  0.7176259E-008  0.2064140E+04  0.7818608E-02  0.8588980E-01
         -1   -1    0    0    0  501 -0.00000000000E+00  0.00000000000E+00  0.22359040061E+04  0.22359040061E+04  0.50400000000E-02 0.  1.
          1   -1    0    0  501    0  0.00000000000E+00 -0.00000000000E+00 -0.22338462446E+04  0.22338462446E+04  0.50400000000E-02 0. -1.
    8880023    1    1    2    0    0 -0.19540192124E+04  0.93123567247E+02 -0.96916117003E+03  0.22803391548E+04  0.65864270000E+03 0.  0.
    8880022    1    1    2    0    0  0.19540192124E+04 -0.93123567247E+02  0.97121893150E+03  0.21894110959E+04  0.15294330000E+03 0.  0.
<mgrwt>
<rscale>  0 0.20381705E+04</rscale>
<asrwt>0</asrwt>
<pdfrwt beam="1">  1        1 0.34366865E+00 0.20641398E+04</pdfrwt>
<pdfrwt beam="2">  1       -1 0.34398523E+00 0.20641398E+04</pdfrwt>
<totfact> 0.31021340E-02</totfact>
</mgrwt>
</event>
<event>
 4    5  0.7176259E-008  0.1106010E+04  0.7818608E-02  0.9254394E-01
          1   -1    0    0  501    0  0.00000000000E+00  0.00000000000E+00  0.96158637451E+03  0.96158637452E+03  0.50400000000E-02 0. -1.
         -1   -1    0    0    0  501 -0.00000000000E+00 -0.00000000000E+00 -0.16913278275E+04  0.16913278275E+04  0.50400000000E-02 0.  1.
    8880023    1    1    2    0    0  0.42213908421E+03  0.78182230448E+03  0.42765131357E+03  0.11858091644E+04  0.65864270000E+03 0.  0.
    8880022    1    1    2    0    0 -0.42213908421E+03 -0.78182230448E+03 -0.11573927665E+04  0.14671050376E+04  0.15294330000E+03 0.  0.
<mgrwt>
<rscale>  0 0.10509204E+04</rscale>
<asrwt>0</asrwt>
<pdfrwt beam="1">  1        1 0.14793637E+00 0.11060098E+04</pdfrwt>
<pdfrwt beam="2">  1       -1 0.26020428E+00 0.11060098E+04</pdfrwt>
<totfact> 0.96534532E-01</totfact>
</mgrwt>
</event>
<event>
 4    5  0.7176259E-008  0.1156984E+04  0.7818608E-02  0.9200115E-01
         -1   -1    0    0    0  501 -0.00000000000E+00  0.00000000000E+00  0.70762043529E+03  0.70762043531E+03  0.50400000000E-02 0.  1.
          1   -1    0    0  501    0  0.00000000000E+00 -0.00000000000E+00 -0.21217595753E+04  0.21217595753E+04  0.50400000000E-02 0. -1.
    8880023    1    1    2    0    0  0.94491526441E+03 -0.10925514884E+03 -0.14624145601E+04  0.18647434398E+04  0.65864270000E+03 0. -1.
    8880022    1    1    2    0    0 -0.94491526441E+03  0.10925514884E+03  0.48275420134E+02  0.96463657077E+03  0.15294330000E+03 0.  0.
<mgrwt>
<rscale>  0 0.11052239E+04</rscale>
<asrwt>0</asrwt>
<pdfrwt beam="1">  1        1 0.32642455E+00 0.11569839E+04</pdfrwt>
<pdfrwt beam="2">  1       -1 0.10886468E+00 0.11569839E+04</pdfrwt>
<totfact> 0.19100678E+00</totfact>
</mgrwt>
</event>
<event>
 4    5  0.7176259E-008  0.1646882E+04  0.7818608E-02  0.8812328E-01
         -1   -1    0    0    0  501 -0.00000000000E+00  0.00000000000E+00  0.18793187885E+04  0.18793187885E+04  0.50400000000E-02 0.  1.
          1   -1    0    0  501    0  0.00000000000E+00 -0.00000000000E+00 -0.29078830468E+04  0.29078830468E+04  0.50400000000E-02 0. -1.
    8880023    1    1    2    0    0  0.11421108574E+03 -0.15051131341E+04 -0.22854715914E+04  0.28170197585E+04  0.65864270000E+03 0. -1.
    8880022    1    1    2    0    0 -0.11421108574E+03  0.15051131341E+04  0.12569073331E+04  0.19701820768E+04  0.15294330000E+03 0.  0.
<mgrwt>
<rscale>  0 0.16134493E+04</rscale>
<asrwt>0</asrwt>
<pdfrwt beam="1">  1        1 0.44736662E+00 0.16468819E+04</pdfrwt>
<pdfrwt beam="2">  1       -1 0.28912597E+00 0.16468819E+04</pdfrwt>
<totfact> 0.25066576E-02</totfact>
</mgrwt>
</event>
<event>
 4    5  0.7176259E-008  0.1283933E+04  0.7818608E-02  0.9079560E-01
          1   -1    0    0  501    0  0.00000000000E+00  0.00000000000E+00  0.98777715723E+03  0.98777715725E+03  0.50400000000E-02 0. -1.
         -1   -1    0    0    0  501 -0.00000000000E+00 -0.00000000000E+00 -0.25853939662E+04  0.25853939662E+04  0.50400000000E-02 0.  1.
    8880023    1    1    2    0    0 -0.24402230887E+03  0.10747682310E+04  0.34941403009E+03  0.13306291776E+04  0.65864270000E+03 0. -1.
    8880022    1    1    2    0    0  0.24402230887E+03 -0.10747682310E+04 -0.19470308390E+04  0.22425419458E+04  0.15294330000E+03 0.  0.
<mgrwt>
<rscale>  0 0.12387957E+04</rscale>
<asrwt>0</asrwt>
<pdfrwt beam="1">  1        1 0.15196572E+00 0.12839330E+04</pdfrwt>
<pdfrwt beam="2">  1       -1 0.39775291E+00 0.12839330E+04</pdfrwt>
<totfact> 0.11233763E-01</totfact>
</mgrwt>
</event>
<event>
 4    5  0.7176259E-008  0.1083219E+04  0.7818608E-02  0.9279974E-01
          1   -1    0    0  501    0  0.00000000000E+00  0.00000000000E+00  0.11386119199E+04  0.11386119199E+04  0.50400000000E-02 0. -1.
         -1   -1    0    0    0  501 -0.00000000000E+00 -0.00000000000E+00 -0.11688674151E+04  0.11688674151E+04  0.50400000000E-02 0.  1.
    8880023    1    1    2    0    0  0.49480123667E+03 -0.70336695060E+03  0.59256240304E+03  0.12347039073E+04  0.65864270000E+03 0.  0.
    8880022    1    1    2    0    0 -0.49480123667E+03  0.70336695060E+03 -0.62281789820E+03  0.10727754277E+04  0.15294330000E+03 0.  0.
<mgrwt>
<rscale>  0 0.10264762E+04</rscale>
<asrwt>0</asrwt>
<pdfrwt beam="1">  1        1 0.17517106E+00 0.10832191E+04</pdfrwt>
<pdfrwt beam="2">  1       -1 0.17982576E+00 0.10832191E+04</pdfrwt>
<totfact> 0.24596098E+00</totfact>
</mgrwt>
</event>
<event>
 4    5  0.7176259E-008  0.6632296E+03  0.7818608E-02  0.1021067E+00
          1   -1    0    0  501    0  0.00000000000E+00  0.00000000000E+00  0.20020528821E+04  0.20020528821E+04  0.50400000000E-02 0. -1.
         -1   -1    0    0    0  501 -0.00000000000E+00 -0.00000000000E+00 -0.23493337502E+03  0.23493337508E+03  0.50400000000E-02 0.  1.
    8880023    1    1    2    0    0  0.77861508752E+02 -0.96844191861E+00  0.19047994981E+04  0.20169617464E+04  0.65864270000E+03 0. -1.
    8880022    1    1    2    0    0 -0.77861508752E+02  0.96844191861E+00 -0.13767999096E+03  0.22002451079E+03  0.15294330000E+03 0.  0.
<mgrwt>
<rscale>  0 0.47303452E+03</rscale>
<asrwt>0</asrwt>
<pdfrwt beam="1">  1        1 0.30800814E+00 0.66322964E+03</pdfrwt>
<pdfrwt beam="2">  1       -1 0.36143596E-01 0.66322964E+03</pdfrwt>
<totfact> 0.22910710E+01</totfact>
</mgrwt>
</event>
<event>
 4    5  0.7176259E-008  0.1124113E+04  0.7818608E-02  0.9234673E-01
          1   -1    0    0  501    0  0.00000000000E+00  0.00000000000E+00  0.21612793036E+04  0.21612793036E+04  0.50400000000E-02 0. -1.
         -1   -1    0    0    0  501 -0.00000000000E+00 -0.00000000000E+00 -0.59289351349E+03  0.59289351352E+03  0.50400000000E-02 0.  1.
    8880023    1    1    2    0    0 -0.90805858911E+03  0.72445509063E+02  0.14319303222E+04  0.18204541760E+04  0.65864270000E+03 0.  0.
    8880022    1    1    2    0    0  0.90805858911E+03 -0.72445509063E+02  0.13645546791E+03  0.93371864112E+03  0.15294330000E+03 0.  0.
<mgrwt>
<rscale>  0 0.10702602E+04</rscale>
<asrwt>0</asrwt>
<pdfrwt beam="1">  1        1 0.33250451E+00 0.11241125E+04</pdfrwt>
<pdfrwt beam="2">  1       -1 0.91214386E-01 0.11241125E+04</pdfrwt>
<totfact> 0.27066719E+00</totfact>
</mgrwt>
</event>
<event>
 4    5  0.7176259E-008  0.1558957E+04  0.7818608E-02  0.8869088E-01
         -1   -1    0    0    0  501 -0.00000000000E+00  0.00000000000E+00  0.11380447072E+04  0.11380447072E+04  0.50400000000E-02 0.  1.
          1   -1    0    0  501    0  0.00000000000E+00 -0.00000000000E+00 -0.36483335921E+04  0.36483335921E+04  0.50400000000E-02 0. -1.
    8880023    1    1    2    0    0 -0.14023946652E+04  0.17270325197E+03 -0.29175497051E+04  0.33079364713E+04  0.65864270000E+03 0. -1.
    8880022    1    1    2    0    0  0.14023946652E+04 -0.17270325197E+03  0.40726082026E+03  0.14784418280E+04  0.15294330000E+03 0.  0.
<mgrwt>
<rscale>  0 0.15233253E+04</rscale>
<asrwt>0</asrwt>
<pdfrwt beam="1">  1        1 0.56128209E+00 0.15589572E+04</pdfrwt>
<pdfrwt beam="2">  1       -1 0.17508380E+00 0.15589572E+04</pdfrwt>
<totfact> 0.40680429E-02</totfact>
</mgrwt>
</event>
<event>
 4    5  0.7176259E-008  0.1075060E+04  0.7818608E-02  0.9289345E-01
         -1   -1    0    0    0  501 -0.00000000000E+00  0.00000000000E+00  0.24904432854E+04  0.24904432854E+04  0.50400000000E-02 0.  1.
          1   -1    0    0  501    0  0.00000000000E+00 -0.00000000000E+00 -0.19915307963E+04  0.19915307963E+04  0.50400000000E-02 0. -1.
    8880023    1    1    2    0    0 -0.43935174623E+03  0.72726530298E+03 -0.17607492467E+04  0.20630057910E+04  0.65864270000E+03 0.  0.
    8880022    1    1    2    0    0  0.43935174623E+03 -0.72726530298E+03  0.22596617358E+04  0.24189682906E+04  0.15294330000E+03 0.  0.
<mgrwt>
<rscale>  0 0.10176975E+04</rscale>
<asrwt>0</asrwt>
<pdfrwt beam="1">  1        1 0.30638935E+00 0.10750605E+04</pdfrwt>
<pdfrwt beam="2">  1       -1 0.38314512E+00 0.10750605E+04</pdfrwt>
<totfact> 0.28588983E-02</totfact>
</mgrwt>
</event>
<event>
 4    5  0.7176259E-008  0.8974379E+03  0.7818608E-02  0.9530157E-01
         -1   -1    0    0    0  501 -0.00000000000E+00  0.00000000000E+00  0.81447858398E+03  0.81447858400E+03  0.50400000000E-02 0.  1.
          1   -1    0    0  501    0  0.00000000000E+00 -0.00000000000E+00 -0.21423420579E+04  0.21423420580E+04  0.50400000000E-02 0. -1.
    8880023    1    1    2    0    0 -0.60728825654E+03  0.52778853560E+02 -0.19035754154E+04  0.21045175700E+04  0.65864270000E+03 0. -1.
    8880022    1    1    2    0    0  0.60728825654E+03 -0.52778853560E+02  0.57571194146E+03  0.85230307196E+03  0.15294330000E+03 0.  0.
<mgrwt>
<rscale>  0 0.82096510E+03</rscale>
<asrwt>0</asrwt>
<pdfrwt beam="1">  1        1 0.32959108E+00 0.89743793E+03</pdfrwt>
<pdfrwt beam="2">  1       -1 0.12530440E+00 0.89743793E+03</pdfrwt>
<totfact> 0.13661702E+00</totfact>
</mgrwt>
</event>
<event>
 4    5  0.7176259E-008  0.7407199E+03  0.7818608E-02  0.9857855E-01
         -1   -1    0    0    0  501 -0.00000000000E+00  0.00000000000E+00  0.72211321019E+03  0.72211321021E+03  0.50400000000E-02 0.  1.
          1   -1    0    0  501    0  0.00000000000E+00 -0.00000000000E+00 -0.46775834084E+03  0.46775834087E+03  0.50400000000E-02 0. -1.
    8880023    1    1    2    0    0  0.33804045825E+03 -0.24175229664E+02  0.23900342908E+01  0.74072377555E+03  0.65864270000E+03 0. -1.
    8880022    1    1    2    0    0 -0.33804045825E+03  0.24175229664E+02  0.25196483506E+03  0.44914777553E+03  0.15294330000E+03 0.  0.
<mgrwt>
<rscale>  0 0.62348019E+03</rscale>
<asrwt>0</asrwt>
<pdfrwt beam="1">  1        1 0.71962822E-01 0.74071992E+03</pdfrwt>
<pdfrwt beam="2">  1       -1 0.11109434E+00 0.74071992E+03</pdfrwt>
<totfact> 0.37063751E+01</totfact>
</mgrwt>
</event>
<event>
 4    5  0.7176259E-008  0.7116904E+03  0.7818608E-02  0.9951776E-01
         -1   -1    0    0    0  501 -0.00000000000E+00  0.00000000000E+00  0.71376709591E+03  0.71376709593E+03  0.50400000000E-02 0.  1.
          1   -1    0    0  501    0  0.00000000000E+00 -0.00000000000E+00 -0.40145683730E+03  0.40145683733E+03  0.50400000000E-02 0. -1.
    8880023    1    1    2    0    0  0.97280041570E+02 -0.25145512848E+03  0.57589860495E+02  0.71401672699E+03  0.65864270000E+03 0.  0.
    8880022    1    1    2    0    0 -0.97280041570E+02  0.25145512848E+03  0.25472039812E+03  0.40120720627E+03  0.15294330000E+03 0. -1.
<mgrwt>
<rscale>  0 0.57816281E+03</rscale>
<asrwt>0</asrwt>
<pdfrwt beam="1">  1        1 0.61762590E-01 0.71169045E+03</pdfrwt>
<pdfrwt beam="2">  1       -1 0.10981032E+00 0.71169045E+03</pdfrwt>
<totfact> 0.46872587E+01</totfact>
</mgrwt>
</event>
<event>
 4    5  0.7176259E-008  0.8246817E+03  0.7818608E-02  0.9659770E-01
          1   -1    0    0  501    0  0.00000000000E+00  0.00000000000E+00  0.14972609247E+04  0.14972609247E+04  0.50400000000E-02 0. -1.
         -1   -1    0    0    0  501 -0.00000000000E+00 -0.00000000000E+00 -0.35607318729E+03  0.35607318733E+03  0.50400000000E-02 0.  1.
    8880023    1    1    2    0    0  0.49625057071E+03 -0.49991664325E+01  0.10348348299E+04  0.13232471243E+04  0.65864270000E+03 0. -1.
    8880022    1    1    2    0    0 -0.49625057071E+03  0.49991664325E+01  0.10635290753E+03  0.53008698772E+03  0.15294330000E+03 0.  0.
<mgrwt>
<rscale>  0 0.73463412E+03</rscale>
<asrwt>0</asrwt>
<pdfrwt beam="1">  1        1 0.23034783E+00 0.82468165E+03</pdfrwt>
<pdfrwt beam="2">  1       -1 0.54780491E-01 0.82468165E+03</pdfrwt>
<totfact> 0.22661341E+01</totfact>
</mgrwt>
</event>
<event>
 4    5  0.7176259E-008  0.9220495E+03  0.7818608E-02  0.9491524E-01
         -1   -1    0    0    0  501 -0.00000000000E+00  0.00000000000E+00  0.61359319522E+03  0.61359319524E+03  0.50400000000E-02 0.  1.
          1   -1    0    0  501    0  0.00000000000E+00 -0.00000000000E+00 -0.15435795538E+04  0.15435795538E+04  0.50400000000E-02 0. -1.
    8880023    1    1    2    0    0 -0.16874718541E+03 -0.62280779440E+03 -0.11356871171E+04  0.14628604156E+04  0.65864270000E+03 0. -1.
    8880022    1    1    2    0    0  0.16874718541E+03  0.62280779440E+03  0.20570075849E+03  0.69431233347E+03  0.15294330000E+03 0.  0.
<mgrwt>
<rscale>  0 0.84911647E+03</rscale>
<asrwt>0</asrwt>
<pdfrwt beam="1">  1        1 0.23747378E+00 0.92204955E+03</pdfrwt>
<pdfrwt beam="2">  1       -1 0.94398954E-01 0.92204955E+03</pdfrwt>
<totfact> 0.67326577E+00</totfact>
</mgrwt>
</event>
<event>
 4    5  0.7176259E-008  0.8640423E+03  0.7818608E-02  0.9586413E-01
         -1   -1    0    0    0  501 -0.00000000000E+00  0.00000000000E+00  0.26679381302E+03  0.26679381307E+03  0.50400000000E-02 0.  1.
          1   -1    0    0  501    0  0.00000000000E+00 -0.00000000000E+00 -0.20759705956E+04  0.20759705956E+04  0.50400000000E-02 0. -1.
    8880023    1    1    2    0    0 -0.46312277633E+03  0.31349045871E+03 -0.79279483773E+03  0.11726435241E+04  0.65864270000E+03 0.  0.
    8880022    1    1    2    0    0  0.46312277633E+03 -0.31349045871E+03 -0.10163819449E+04  0.11701208846E+04  0.15294330000E+03 0.  0.
<mgrwt>
<rscale>  0 0.78202027E+03</rscale>
<asrwt>0</asrwt>
<pdfrwt beam="1">  1        1 0.31938008E+00 0.86404235E+03</pdfrwt>
<pdfrwt beam="2">  1       -1 0.41045203E-01 0.86404235E+03</pdfrwt>
<totfact> 0.15793875E+01</totfact>
</mgrwt>
</event>
<event>
 4    5  0.7176259E-008  0.8656969E+03  0.7818608E-02  0.9583509E-01
          1   -1    0    0  501    0  0.00000000000E+00  0.00000000000E+00  0.20364369773E+03  0.20364369779E+03  0.50400000000E-02 0. -1.
         -1   -1    0    0    0  501 -0.00000000000E+00 -0.00000000000E+00 -0.31075257388E+04  0.31075257388E+04  0.50400000000E-02 0.  1.
    8880023    1    1    2    0    0  0.32254647385E+03 -0.45998330909E+03 -0.10121988633E+04  0.13319075109E+04  0.65864270000E+03 0.  0.
    8880022    1    1    2    0    0 -0.32254647385E+03  0.45998330909E+03 -0.18916831779E+04  0.19792619258E+04  0.15294330000E+03 0.  0.
<mgrwt>
<rscale>  0 0.78397345E+03</rscale>
<asrwt>0</asrwt>
<pdfrwt beam="1">  1        1 0.31329802E-01 0.86569687E+03</pdfrwt>
<pdfrwt beam="2">  1       -1 0.47808085E+00 0.86569687E+03</pdfrwt>
<totfact> 0.31568697E-01</totfact>
</mgrwt>
</event>
<event>
 4    5  0.7233865E-008  0.1148588E+04  0.7818608E-02  0.9208794E-01
         -1   -1    0    0    0  501 -0.00000000000E+00  0.00000000000E+00  0.17069357995E+04  0.17069357995E+04  0.50400000000E-02 0.  1.
          1   -1    0    0  501    0  0.00000000000E+00 -0.00000000000E+00 -0.13197783655E+04  0.13197783655E+04  0.50400000000E-02 0. -1.
    8880023    1    1    2    0    0  0.25974321697E+03  0.90442171030E+03 -0.87576201054E+03  0.14443733846E+04  0.65864270000E+03 0. -1.
    8880022    1    1    2    0    0 -0.25974321697E+03 -0.90442171030E+03  0.12629194445E+04  0.15823407804E+04  0.15294330000E+03 0.  0.
<mgrwt>
<rscale>  0 0.10963117E+04</rscale>
<asrwt>0</asrwt>
<pdfrwt beam="1">  1        1 0.20304283E+00 0.11485884E+04</pdfrwt>
<pdfrwt beam="2">  1       -1 0.26260551E+00 0.11485884E+04</pdfrwt>
<totfact> 0.49956280E-01</totfact>
</mgrwt>
</event>
<event>
 4    5  0.7176259E-008  0.8084689E+03  0.7818608E-02  0.9692775E-01
         -1   -1    0    0    0  501 -0.00000000000E+00  0.00000000000E+00  0.43717672771E+03  0.43717672774E+03  0.50400000000E-02 0.  1.
          1   -1    0    0  501    0  0.00000000000E+00 -0.00000000000E+00 -0.13006538966E+04  0.13006538966E+04  0.50400000000E-02 0. -1.
    8880023    1    1    2    0    0 -0.31938218973E+03 -0.34322983886E+03 -0.93881871552E+03  0.12389521751E+04  0.65864270000E+03 0. -1.
    8880022    1    1    2    0    0  0.31938218973E+03  0.34322983886E+03  0.75341546645E+02  0.49887844919E+03  0.15294330000E+03 0.  0.
<mgrwt>
<rscale>  0 0.71448592E+03</rscale>
<asrwt>0</asrwt>
<pdfrwt beam="1">  1        1 0.20010060E+00 0.80846887E+03</pdfrwt>
<pdfrwt beam="2">  1       -1 0.67257959E-01 0.80846887E+03</pdfrwt>
<totfact> 0.20731717E+01</totfact>
</mgrwt>
</event>
<event>
 4    5  0.7176259E-008  0.7873627E+03  0.7818608E-02  0.9738818E-01
          1   -1    0    0  501    0  0.00000000000E+00  0.00000000000E+00  0.24657433793E+04  0.24657433793E+04  0.50400000000E-02 0. -1.
         -1   -1    0    0    0  501 -0.00000000000E+00 -0.00000000000E+00 -0.31794063177E+03  0.31794063181E+03  0.50400000000E-02 0.  1.
    8880023    1    1    2    0    0 -0.14740220724E+03 -0.40546562311E+03  0.21868614431E+04  0.23242854729E+04  0.65864270000E+03 0. -1.
    8880022    1    1    2    0    0  0.14740220724E+03  0.40546562311E+03 -0.39058695490E+02  0.45939853823E+03  0.15294330000E+03 0.  0.
<mgrwt>
<rscale>  0 0.68751896E+03</rscale>
<asrwt>0</asrwt>
<pdfrwt beam="1">  1        1 0.37934514E+00 0.78736268E+03</pdfrwt>
<pdfrwt beam="2">  1       -1 0.48913942E-01 0.78736268E+03</pdfrwt>
<totfact> 0.62870284E+00</totfact>
</mgrwt>
</event>
<event>
 4    5  0.7176259E-008  0.7590701E+03  0.7818608E-02  0.9807521E-01
         -1   -1    0    0    0  501 -0.00000000000E+00  0.00000000000E+00  0.41783984995E+03  0.41783984998E+03  0.50400000000E-02 0.  1.
          1   -1    0    0  501    0  0.00000000000E+00 -0.00000000000E+00 -0.14699440889E+04  0.14699440889E+04  0.50400000000E-02 0. -1.
    8880023    1    1    2    0    0  0.37637993294E+03 -0.26745854546E+02 -0.12284809111E+04  0.14440750499E+04  0.65864270000E+03 0.  0.
    8880022    1    1    2    0    0 -0.37637993294E+03  0.26745854546E+02  0.17637667214E+03  0.44370888896E+03  0.15294330000E+03 0.  1.
<mgrwt>
<rscale>  0 0.64960487E+03</rscale>
<asrwt>0</asrwt>
<pdfrwt beam="1">  1        1 0.22614524E+00 0.75907009E+03</pdfrwt>
<pdfrwt beam="2">  1       -1 0.64283054E-01 0.75907009E+03</pdfrwt>
<totfact> 0.17413426E+01</totfact>
</mgrwt>
</event>
<event>
 4    5  0.7176259E-008  0.8857472E+03  0.7818608E-02  0.9549310E-01
         -1   -1    0    0    0  501 -0.00000000000E+00  0.00000000000E+00  0.26093002060E+04  0.26093002060E+04  0.50400000000E-02 0.  1.
          1   -1    0    0  501    0  0.00000000000E+00 -0.00000000000E+00 -0.45615903538E+03  0.45615903541E+03  0.50400000000E-02 0. -1.
    8880023    1    1    2    0    0  0.54461502310E+03 -0.23266378754E+03  0.63368260038E+02  0.88801109456E+03  0.65864270000E+03 0.  0.
    8880022    1    1    2    0    0 -0.54461502310E+03  0.23266378754E+03  0.20897729106E+04  0.21774481468E+04  0.15294330000E+03 0.  0.
<mgrwt>
<rscale>  0 0.80743973E+03</rscale>
<asrwt>0</asrwt>
<pdfrwt beam="1">  1        1 0.70178313E-01 0.88574724E+03</pdfrwt>
<pdfrwt beam="2">  1       -1 0.40143080E+00 0.88574724E+03</pdfrwt>
<totfact> 0.36756293E-01</totfact>
</mgrwt>
</event>
<event>
 4    5  0.7176259E-008  0.7775204E+03  0.7818608E-02  0.9761694E-01
          1   -1    0    0  501    0  0.00000000000E+00  0.00000000000E+00  0.13188527074E+04  0.13188527075E+04  0.50400000000E-02 0. -1.
         -1   -1    0    0    0  501 -0.00000000000E+00 -0.00000000000E+00 -0.52278236258E+03  0.52278236261E+03  0.50400000000E-02 0.  1.
    8880023    1    1    2    0    0  0.86026534834E+02  0.40413760377E+03  0.10701260549E+04  0.13227651897E+04  0.65864270000E+03 0. -1.
    8880022    1    1    2    0    0 -0.86026534834E+02 -0.40413760377E+03 -0.27405571007E+03  0.51886988033E+03  0.15294330000E+03 0.  0.
<mgrwt>
<rscale>  0 0.67459399E+03</rscale>
<asrwt>0</asrwt>
<pdfrwt beam="1">  1        1 0.20290041E+00 0.77752040E+03</pdfrwt>
<pdfrwt beam="2">  1       -1 0.80428057E-01 0.77752040E+03</pdfrwt>
<totfact> 0.13937702E+01</totfact>
</mgrwt>
</event>
<event>
 4    5  0.8493133E-008  0.9880349E+03  0.7818608E-02  0.9397382E-01
         -1   -1    0    0    0  501 -0.00000000000E+00  0.00000000000E+00  0.12424135231E+04  0.12424135231E+04  0.50400000000E-02 0.  1.
          1   -1    0    0  501    0  0.00000000000E+00 -0.00000000000E+00 -0.25232140824E+04  0.25232140824E+04  0.50400000000E-02 0. -1.
    8880023    1    1    2    0    0 -0.63338334457E+03  0.37580364497E+03 -0.22974892545E+04  0.25009338099E+04  0.65864270000E+03 0. -1.
    8880022    1    1    2    0    0  0.63338334457E+03 -0.37580364497E+03  0.10166886952E+04  0.12646937956E+04  0.15294330000E+03 0.  0.
<mgrwt>
<rscale>  0 0.92291471E+03</rscale>
<asrwt>0</asrwt>
<pdfrwt beam="1">  1        1 0.38818678E+00 0.98803494E+03</pdfrwt>
<pdfrwt beam="2">  1       -1 0.19114054E+00 0.98803494E+03</pdfrwt>
<totfact> 0.23153494E-01</totfact>
</mgrwt>
</event>
<event>
 4    5  0.7586837E-008  0.8463729E+03  0.7818608E-02  0.9618279E-01
         -1   -1    0    0    0  501 -0.00000000000E+00  0.00000000000E+00  0.88291430144E+03  0.88291430145E+03  0.50400000000E-02 0.  1.
          1   -1    0    0  501    0  0.00000000000E+00 -0.00000000000E+00 -0.21705385685E+04  0.21705385685E+04  0.50400000000E-02 0. -1.
    8880023    1    1    2    0    0  0.95973324641E+02  0.52280590397E+03 -0.19881997884E+04  0.21608529559E+04  0.65864270000E+03 0. -1.
    8880022    1    1    2    0    0 -0.95973324641E+02 -0.52280590397E+03  0.70057552139E+03  0.89259991399E+03  0.15294330000E+03 0.  0.
<mgrwt>
<rscale>  0 0.76098100E+03</rscale>
<asrwt>0</asrwt>
<pdfrwt beam="1">  1        1 0.33392901E+00 0.84637291E+03</pdfrwt>
<pdfrwt beam="2">  1       -1 0.13583297E+00 0.84637291E+03</pdfrwt>
<totfact> 0.10763888E+00</totfact>
</mgrwt>
</event>
<event>
 4    5  0.7176259E-008  0.1076040E+04  0.7818608E-02  0.9288213E-01
         -1   -1    0    0    0  501 -0.00000000000E+00  0.00000000000E+00  0.15455483997E+04  0.15455483997E+04  0.50400000000E-02 0.  1.
          1   -1    0    0  501    0  0.00000000000E+00 -0.00000000000E+00 -0.15654801429E+04  0.15654801429E+04  0.50400000000E-02 0. -1.
    8880023    1    1    2    0    0  0.70587292966E+03 -0.47518014349E+03 -0.12233531171E+04  0.16292500781E+04  0.65864270000E+03 0.  0.
    8880022    1    1    2    0    0 -0.70587292966E+03  0.47518014349E+03  0.12034213739E+04  0.14817784645E+04  0.15294330000E+03 0.  0.
<mgrwt>
<rscale>  0 0.10187528E+04</rscale>
<asrwt>0</asrwt>
<pdfrwt beam="1">  1        1 0.24084310E+00 0.10760404E+04</pdfrwt>
<pdfrwt beam="2">  1       -1 0.23777668E+00 0.10760404E+04</pdfrwt>
<totfact> 0.49341796E-01</totfact>
</mgrwt>
</event>
<event>
 4    5  0.7176259E-008  0.8463147E+03  0.7818608E-02  0.9618386E-01
          1   -1    0    0  501    0  0.00000000000E+00  0.00000000000E+00  0.73793767483E+03  0.73793767484E+03  0.50400000000E-02 0. -1.
         -1   -1    0    0    0  501 -0.00000000000E+00 -0.00000000000E+00 -0.13437657765E+04  0.13437657765E+04  0.50400000000E-02 0.  1.
    8880023    1    1    2    0    0 -0.44434585846E+03 -0.29153922087E+03  0.39830284006E+03  0.93535753480E+03  0.65864270000E+03 0. -1.
    8880022    1    1    2    0    0  0.44434585846E+03  0.29153922087E+03 -0.10041309417E+04  0.11463459166E+04  0.15294330000E+03 0.  0.
<mgrwt>
<rscale>  0 0.76091111E+03</rscale>
<asrwt>0</asrwt>
<pdfrwt beam="1">  1        1 0.11352887E+00 0.84631470E+03</pdfrwt>
<pdfrwt beam="2">  1       -1 0.20673320E+00 0.84631470E+03</pdfrwt>
<totfact> 0.34816313E+00</totfact>
</mgrwt>
</event>
<event>
 4    5  0.7176259E-008  0.1056921E+04  0.7818608E-02  0.9310607E-01
          1   -1    0    0  501    0  0.00000000000E+00  0.00000000000E+00  0.63457619134E+03  0.63457619136E+03  0.50400000000E-02 0. -1.
         -1   -1    0    0    0  501 -0.00000000000E+00 -0.00000000000E+00 -0.19144810876E+04  0.19144810876E+04  0.50400000000E-02 0.  1.
    8880023    1    1    2    0    0 -0.78861133999E+03 -0.24771769416E+03 -0.48443650788E+02  0.10580306683E+04  0.65864270000E+03 0.  0.
    8880022    1    1    2    0    0  0.78861133999E+03  0.24771769416E+03 -0.12314612455E+04  0.14910266107E+04  0.15294330000E+03 0.  0.
<mgrwt>
<rscale>  0 0.99812170E+03</rscale>
<asrwt>0</asrwt>
<pdfrwt beam="1">  1        1 0.97627107E-01 0.10569211E+04</pdfrwt>
<pdfrwt beam="2">  1       -1 0.29453555E+00 0.10569211E+04</pdfrwt>
<totfact> 0.11371295E+00</totfact>
</mgrwt>
</event>
<event>
 4    5  0.7176259E-008  0.1397070E+04  0.7818608E-02  0.8985963E-01
         -1   -1    0    0    0  501 -0.00000000000E+00  0.00000000000E+00  0.17528405971E+04  0.17528405971E+04  0.50400000000E-02 0.  1.
          1   -1    0    0  501    0  0.00000000000E+00 -0.00000000000E+00 -0.16588896793E+04  0.16588896793E+04  0.50400000000E-02 0. -1.
    8880023    1    1    2    0    0  0.10851337513E+04  0.58350550816E+03 -0.10310330133E+04  0.17363275086E+04  0.65864270000E+03 0. -1.
    8880022    1    1    2    0    0 -0.10851337513E+04 -0.58350550816E+03  0.11249839310E+04  0.16754027678E+04  0.15294330000E+03 0.  0.
<mgrwt>
<rscale>  0 0.13564460E+04</rscale>
<asrwt>0</asrwt>
<pdfrwt beam="1">  1        1 0.25521380E+00 0.13970698E+04</pdfrwt>
<pdfrwt beam="2">  1       -1 0.26966778E+00 0.13970698E+04</pdfrwt>
<totfact> 0.25250687E-01</totfact>
</mgrwt>
</event>
<event>
 4    5  0.7176259E-008  0.9999764E+03  0.7818608E-02  0.9381589E-01
         -1   -1    0    0    0  501 -0.00000000000E+00  0.00000000000E+00  0.37357355066E+03  0.37357355069E+03  0.50400000000E-02 0.  1.
          1   -1    0    0  501    0  0.00000000000E+00 -0.00000000000E+00 -0.23636194388E+04  0.23636194388E+04  0.50400000000E-02 0. -1.
    8880023    1    1    2    0    0  0.42740364225E+03 -0.61924857877E+03 -0.15715993616E+04  0.18627607026E+04  0.65864270000E+03 0.  0.
    8880022    1    1    2    0    0 -0.42740364225E+03  0.61924857877E+03 -0.41844652659E+03  0.87443228689E+03  0.15294330000E+03 0.  0.
<mgrwt>
<rscale>  0 0.93606491E+03</rscale>
<asrwt>0</asrwt>
<pdfrwt beam="1">  1        1 0.36363375E+00 0.99997644E+03</pdfrwt>
<pdfrwt beam="2">  1       -1 0.57472856E-01 0.99997644E+03</pdfrwt>
<totfact> 0.52456360E+00</totfact>
</mgrwt>
</event>
<event>
 4    5  0.7176259E-008  0.7668016E+03  0.7818608E-02  0.9787807E-01
         -1   -1    0    0    0  501 -0.00000000000E+00  0.00000000000E+00  0.30034771485E+03  0.30034771490E+03  0.50400000000E-02 0.  1.
          1   -1    0    0  501    0  0.00000000000E+00 -0.00000000000E+00 -0.24362508086E+04  0.24362508086E+04  0.50400000000E-02 0. -1.
    8880023    1    1    2    0    0  0.35883001138E+03  0.15942239581E+03 -0.21818903932E+04  0.23127106113E+04  0.65864270000E+03 0. -1.
    8880022    1    1    2    0    0 -0.35883001138E+03 -0.15942239581E+03  0.45987299500E+02  0.42388791217E+03  0.15294330000E+03 0.  0.
<mgrwt>
<rscale>  0 0.66021026E+03</rscale>
<asrwt>0</asrwt>
<pdfrwt beam="1">  1        1 0.37480780E+00 0.76680159E+03</pdfrwt>
<pdfrwt beam="2">  1       -1 0.46207342E-01 0.76680159E+03</pdfrwt>
<totfact> 0.73521511E+00</totfact>
</mgrwt>
</event>
<event>
 4    5  0.7176259E-008  0.7942966E+03  0.7818608E-02  0.9723266E-01
          1   -1    0    0  501    0  0.00000000000E+00  0.00000000000E+00  0.10935899603E+04  0.10935899603E+04  0.50400000000E-02 0. -1.
         -1   -1    0    0    0  501 -0.00000000000E+00 -0.00000000000E+00 -0.21548981971E+04  0.21548981971E+04  0.50400000000E-02 0.  1.
    8880023    1    1    2    0    0  0.34721911498E+03 -0.27665109475E+03  0.91818030936E+03  0.12140684613E+04  0.65864270000E+03 0. -1.
    8880022    1    1    2    0    0 -0.34721911498E+03  0.27665109475E+03 -0.19794885462E+04  0.20344196961E+04  0.15294330000E+03 0.  0.
<mgrwt>
<rscale>  0 0.69648266E+03</rscale>
<asrwt>0</asrwt>
<pdfrwt beam="1">  1        1 0.16824461E+00 0.79429664E+03</pdfrwt>
<pdfrwt beam="2">  1       -1 0.33152280E+00 0.79429664E+03</pdfrwt>
<totfact> 0.27967266E-01</totfact>
</mgrwt>
</event>
<event>
 4    5  0.7176259E-008  0.8252866E+03  0.7818608E-02  0.9658574E-01
         -1   -1    0    0    0  501 -0.00000000000E+00  0.00000000000E+00  0.68890484512E+03  0.68890484514E+03  0.50400000000E-02 0.  1.
          1   -1    0    0  501    0  0.00000000000E+00 -0.00000000000E+00 -0.11433029116E+04  0.11433029116E+04  0.50400000000E-02 0. -1.
    8880023    1    1    2    0    0 -0.17144949807E+03 -0.46678988039E+03 -0.84536354897E+03  0.11814133311E+04  0.65864270000E+03 0. -1.
    8880022    1    1    2    0    0  0.17144949807E+03  0.46678988039E+03  0.39096548252E+03  0.65079442557E+03  0.15294330000E+03 0.  0.
<mgrwt>
<rscale>  0 0.73537774E+03</rscale>
<asrwt>0</asrwt>
<pdfrwt beam="1">  1        1 0.17589276E+00 0.82528657E+03</pdfrwt>
<pdfrwt beam="2">  1       -1 0.10598536E+00 0.82528657E+03</pdfrwt>
<totfact> 0.10032199E+01</totfact>
</mgrwt>
</event>
<event>
 4    5  0.7176259E-008  0.6874973E+03  0.7818608E-02  0.1005366E+00
         -1   -1    0    0    0  501 -0.00000000000E+00  0.00000000000E+00  0.94423307397E+03  0.94423307398E+03  0.50400000000E-02 0.  1.
          1   -1    0    0  501    0  0.00000000000E+00 -0.00000000000E+00 -0.55100326252E+03  0.55100326254E+03  0.50400000000E-02 0. -1.
    8880023    1    1    2    0    0 -0.19679175217E+03 -0.10736443457E+02 -0.30623427159E+03  0.75261670211E+03  0.65864270000E+03 0. -1.
    8880022    1    1    2    0    0  0.19679175217E+03  0.10736443457E+02  0.69946408304E+03  0.74261963441E+03  0.15294330000E+03 0.  0.
<mgrwt>
<rscale>  0 0.53358869E+03</rscale>
<asrwt>0</asrwt>
<pdfrwt beam="1">  1        1 0.84769733E-01 0.68749725E+03</pdfrwt>
<pdfrwt beam="2">  1       -1 0.14526663E+00 0.68749725E+03</pdfrwt>
<totfact> 0.15234670E+01</totfact>
</mgrwt>
</event>
<event>
 4    5  0.7176259E-008  0.9478572E+03  0.7818608E-02  0.9453204E-01
         -1   -1    0    0    0  501 -0.00000000000E+00  0.00000000000E+00  0.10204692280E+04  0.10204692280E+04  0.50400000000E-02 0.  1.
          1   -1    0    0  501    0  0.00000000000E+00 -0.00000000000E+00 -0.69182168813E+03  0.69182168815E+03  0.50400000000E-02 0. -1.
    8880023    1    1    2    0    0 -0.67695301259E+03 -0.79735463155E+02  0.18709082925E+02  0.94804185634E+03  0.65864270000E+03 0.  0.
    8880022    1    1    2    0    0  0.67695301259E+03  0.79735463155E+02  0.30993845696E+03  0.76424905983E+03  0.15294330000E+03 0.  0.
<mgrwt>
<rscale>  0 0.87823617E+03</rscale>
<asrwt>0</asrwt>
<pdfrwt beam="1">  1        1 0.10643411E+00 0.94785723E+03</pdfrwt>
<pdfrwt beam="2">  1       -1 0.15699527E+00 0.94785723E+03</pdfrwt>
<totfact> 0.86113399E+00</totfact>
</mgrwt>
</event>
<event>
 4    5  0.7176259E-008  0.8322966E+03  0.7818608E-02  0.9644880E-01
          1   -1    0    0  501    0  0.00000000000E+00  0.00000000000E+00  0.14062704802E+04  0.14062704802E+04  0.50400000000E-02 0. -1.
         -1   -1    0    0    0  501 -0.00000000000E+00 -0.00000000000E+00 -0.51742156426E+03  0.51742156429E+03  0.50400000000E-02 0.  1.
    8880023    1    1    2    0    0  0.64272825212E+02 -0.50475374727E+03  0.10760426643E+04  0.13603622176E+04  0.65864270000E+03 0. -1.
    8880022    1    1    2    0    0 -0.64272825212E+02  0.50475374727E+03 -0.18719374834E+03  0.56332982691E+03  0.15294330000E+03 0.  0.
<mgrwt>
<rscale>  0 0.74395598E+03</rscale>
<asrwt>0</asrwt>
<pdfrwt beam="1">  1        1 0.21634930E+00 0.83229655E+03</pdfrwt>
<pdfrwt beam="2">  1       -1 0.79603318E-01 0.83229655E+03</pdfrwt>
<totfact> 0.12285884E+01</totfact>
</mgrwt>
</event>
<event>
 4    5  0.7176259E-008  0.1212256E+04  0.7818608E-02  0.9145300E-01
          1   -1    0    0  501    0  0.00000000000E+00  0.00000000000E+00  0.22078348325E+04  0.22078348325E+04  0.50400000000E-02 0. -1.
         -1   -1    0    0    0  501 -0.00000000000E+00 -0.00000000000E+00 -0.94716376322E+03  0.94716376324E+03  0.50400000000E-02 0.  1.
    8880023    1    1    2    0    0 -0.72103182806E+03  0.71823951972E+03  0.16562066029E+04  0.20524583851E+04  0.65864270000E+03 0.  0.
    8880022    1    1    2    0    0  0.72103182806E+03 -0.71823951972E+03 -0.39553553361E+03  0.11025402107E+04  0.15294330000E+03 0.  0.
<mgrwt>
<rscale>  0 0.11636311E+04</rscale>
<asrwt>0</asrwt>
<pdfrwt beam="1">  1        1 0.33966689E+00 0.12122562E+04</pdfrwt>
<pdfrwt beam="2">  1       -1 0.14571750E+00 0.12122562E+04</pdfrwt>
<totfact> 0.79756997E-01</totfact>
</mgrwt>
</event>
<event>
 4    5  0.7176259E-008  0.1412582E+04  0.7818608E-02  0.8973968E-01
         -1   -1    0    0    0  501 -0.00000000000E+00  0.00000000000E+00  0.10034533663E+04  0.10034533663E+04  0.50400000000E-02 0.  1.
          1   -1    0    0  501    0  0.00000000000E+00 -0.00000000000E+00 -0.22785048918E+04  0.22785048918E+04  0.50400000000E-02 0. -1.
    8880023    1    1    2    0    0 -0.10450072379E+04  0.68522710620E+03 -0.14341370242E+04  0.20129916852E+04  0.65864270000E+03 0.  0.
    8880022    1    1    2    0    0  0.10450072379E+04 -0.68522710620E+03  0.15908549865E+03  0.12689665729E+04  0.15294330000E+03 0.  0.
<mgrwt>
<rscale>  0 0.13725011E+04</rscale>
<asrwt>0</asrwt>
<pdfrwt beam="1">  1        1 0.35053921E+00 0.14125815E+04</pdfrwt>
<pdfrwt beam="2">  1       -1 0.15437744E+00 0.14125815E+04</pdfrwt>
<totfact> 0.59550427E-01</totfact>
</mgrwt>
</event>
<event>
 4    5  0.7176259E-008  0.7032289E+03  0.7818608E-02  0.9984061E-01
          1   -1    0    0  501    0  0.00000000000E+00  0.00000000000E+00  0.30941040398E+04  0.30941040398E+04  0.50400000000E-02 0. -1.
         -1   -1    0    0    0  501 -0.00000000000E+00 -0.00000000000E+00 -0.99270499289E+02  0.99270499417E+02  0.50400000000E-02 0.  1.
    8880023    1    1    2    0    0 -0.49223335330E+02  0.24144928923E+03  0.26552708559E+04  0.27468152870E+04  0.65864270000E+03 0. -1.
    8880022    1    1    2    0    0  0.49223335330E+02 -0.24144928923E+03  0.33956268456E+03  0.44655925225E+03  0.15294330000E+03 0.  0.
<mgrwt>
<rscale>  0 0.56354683E+03</rscale>
<asrwt>0</asrwt>
<pdfrwt beam="1">  1        1 0.47601596E+00 0.70322891E+03</pdfrwt>
<pdfrwt beam="2">  1       -1 0.15272386E-01 0.70322891E+03</pdfrwt>
<totfact> 0.17413654E+01</totfact>
</mgrwt>
</event>
<event>
 4    5  0.7176259E-008  0.1071842E+04  0.7818608E-02  0.9293073E-01
         -1   -1    0    0    0  501 -0.00000000000E+00  0.00000000000E+00  0.16736964988E+04  0.16736964988E+04  0.50400000000E-02 0.  1.
          1   -1    0    0  501    0  0.00000000000E+00 -0.00000000000E+00 -0.19886491853E+04  0.19886491853E+04  0.50400000000E-02 0. -1.
    8880023    1    1    2    0    0  0.83896827532E+03  0.10567748076E+03 -0.17133671058E+04  0.20210078036E+04  0.65864270000E+03 0. -1.
    8880022    1    1    2    0    0 -0.83896827532E+03 -0.10567748076E+03  0.13984144193E+04  0.16413378805E+04  0.15294330000E+03 0.  0.
<mgrwt>
<rscale>  0 0.10142303E+04</rscale>
<asrwt>0</asrwt>
<pdfrwt beam="1">  1        1 0.30594603E+00 0.10718422E+04</pdfrwt>
<pdfrwt beam="2">  1       -1 0.25749177E+00 0.10718422E+04</pdfrwt>
<totfact> 0.18975158E-01</totfact>
</mgrwt>
</event>
<event>
 4    5  0.7176259E-008  0.7334067E+03  0.7818608E-02  0.9879586E-01
          1   -1    0    0  501    0  0.00000000000E+00  0.00000000000E+00  0.15578489308E+04  0.15578489308E+04  0.50400000000E-02 0. -1.
         -1   -1    0    0    0  501 -0.00000000000E+00 -0.00000000000E+00 -0.48994889187E+03  0.48994889190E+03  0.50400000000E-02 0.  1.
    8880023    1    1    2    0    0 -0.17974742255E+03 -0.26789198960E+03  0.13869920367E+04  0.15689590084E+04  0.65864270000E+03 0. -1.
    8880022    1    1    2    0    0  0.17974742255E+03  0.26789198960E+03 -0.31909199777E+03  0.47883881428E+03  0.15294330000E+03 0.  0.
<mgrwt>
<rscale>  0 0.61260898E+03</rscale>
<asrwt>0</asrwt>
<pdfrwt beam="1">  1        1 0.23966907E+00 0.73340675E+03</pdfrwt>
<pdfrwt beam="2">  1       -1 0.75376752E-01 0.73340675E+03</pdfrwt>
<totfact> 0.10991108E+01</totfact>
</mgrwt>
</event>
<event>
 4    5  0.7176259E-008  0.8504928E+03  0.7818608E-02  0.9610704E-01
          1   -1    0    0  501    0  0.00000000000E+00  0.00000000000E+00  0.98678370589E+03  0.98678370590E+03  0.50400000000E-02 0. -1.
         -1   -1    0    0    0  501 -0.00000000000E+00 -0.00000000000E+00 -0.72075018936E+03  0.72075018938E+03  0.50400000000E-02 0.  1.
    8880023    1    1    2    0    0  0.43938027046E+03 -0.31060071306E+03  0.61380144522E+03  0.10488518701E+04  0.65864270000E+03 0.  0.
    8880022    1    1    2    0    0 -0.43938027046E+03  0.31060071306E+03 -0.34776792870E+03  0.65868202516E+03  0.15294330000E+03 0.  0.
<mgrwt>
<rscale>  0 0.76591762E+03</rscale>
<asrwt>0</asrwt>
<pdfrwt beam="1">  1        1 0.15181288E+00 0.85049282E+03</pdfrwt>
<pdfrwt beam="2">  1       -1 0.11088465E+00 0.85049282E+03</pdfrwt>
<totfact> 0.11821733E+01</totfact>
</mgrwt>
</event>
<event>
 4    5  0.7176259E-008  0.1085486E+04  0.7818608E-02  0.9277390E-01
         -1   -1    0    0    0  501 -0.00000000000E+00  0.00000000000E+00  0.82611098363E+03  0.82611098364E+03  0.50400000000E-02 0.  1.
          1   -1    0    0  501    0  0.00000000000E+00 -0.00000000000E+00 -0.14738894439E+04  0.14738894439E+04  0.50400000000E-02 0. -1.
    8880023    1    1    2    0    0  0.53451261969E+03 -0.67732231685E+03 -0.87557282112E+03  0.13945993091E+04  0.65864270000E+03 0. -1.
    8880022    1    1    2    0    0 -0.53451261969E+03  0.67732231685E+03  0.22779436084E+03  0.90540111849E+03  0.15294330000E+03 0.  0.
<mgrwt>
<rscale>  0 0.10289125E+04</rscale>
<asrwt>0</asrwt>
<pdfrwt beam="1">  1        1 0.22675222E+00 0.10854858E+04</pdfrwt>
<pdfrwt beam="2">  1       -1 0.12709400E+00 0.10854858E+04</pdfrwt>
<totfact> 0.36427398E+00</totfact>
</mgrwt>
</event>
<event>
 4    5  0.7176259E-008  0.1247980E+04  0.7818608E-02  0.9111837E-01
          1   -1    0    0  501    0  0.00000000000E+00  0.00000000000E+00  0.19067092281E+04  0.19067092281E+04  0.50400000000E-02 0. -1.
         -1   -1    0    0    0  501 -0.00000000000E+00 -0.00000000000E+00 -0.84497200414E+03  0.84497200415E+03  0.50400000000E-02 0.  1.
    8880023    1    1    2    0    0 -0.45497428347E+03 -0.95741439986E+03  0.11230955578E+04  0.16789275654E+04  0.65864270000E+03 0.  0.
    8880022    1    1    2    0    0  0.45497428347E+03  0.95741439986E+03 -0.61358333807E+02  0.10727536669E+04  0.15294330000E+03 0.  0.
<mgrwt>
<rscale>  0 0.12011655E+04</rscale>
<asrwt>0</asrwt>
<pdfrwt beam="1">  1        1 0.29333988E+00 0.12479800E+04</pdfrwt>
<pdfrwt beam="2">  1       -1 0.12999569E+00 0.12479800E+04</pdfrwt>
<totfact> 0.17099567E+00</totfact>
</mgrwt>
</event>
<event>
 4    5  0.7176259E-008  0.7875884E+03  0.7818608E-02  0.9738304E-01
          1   -1    0    0  501    0  0.00000000000E+00  0.00000000000E+00  0.21982648260E+04  0.21982648260E+04  0.50400000000E-02 0. -1.
         -1   -1    0    0    0  501 -0.00000000000E+00 -0.00000000000E+00 -0.58837636909E+03  0.58837636912E+03  0.50400000000E-02 0.  1.
    8880023    1    1    2    0    0  0.10352252490E+03 -0.41924735830E+03  0.20222877002E+04  0.21702403114E+04  0.65864270000E+03 0.  0.
    8880022    1    1    2    0    0 -0.10352252490E+03  0.41924735830E+03 -0.41239924327E+03  0.61640088374E+03  0.15294330000E+03 0.  1.
<mgrwt>
<rscale>  0 0.68781250E+03</rscale>
<asrwt>0</asrwt>
<pdfrwt beam="1">  1        1 0.33819459E+00 0.78758839E+03</pdfrwt>
<pdfrwt beam="2">  1       -1 0.90519442E-01 0.78758839E+03</pdfrwt>
<totfact> 0.27333715E+00</totfact>
</mgrwt>
</event>
<event>
 4    5  0.7176259E-008  0.1158189E+04  0.7818608E-02  0.9198878E-01
         -1   -1    0    0    0  501 -0.00000000000E+00  0.00000000000E+00  0.65945721123E+03  0.65945721124E+03  0.50400000000E-02 0.  1.
          1   -1    0    0  501    0  0.00000000000E+00 -0.00000000000E+00 -0.46332594840E+04  0.46332594840E+04  0.50400000000E-02 0. -1.
    8880023    1    1    2    0    0 -0.12086304781E+03  0.94497790888E+03 -0.41528853158E+04  0.43113637955E+04  0.65864270000E+03 0. -1.
    8880022    1    1    2    0    0  0.12086304781E+03 -0.94497790888E+03  0.17908304300E+03  0.98135289978E+03  0.15294330000E+03 0.  0.
<mgrwt>
<rscale>  0 0.11065021E+04</rscale>
<asrwt>0</asrwt>
<pdfrwt beam="1">  1        1 0.71280913E+00 0.11581888E+04</pdfrwt>
<pdfrwt beam="2">  1       -1 0.10145496E+00 0.11581888E+04</pdfrwt>
<totfact> 0.22404886E-02</totfact>
</mgrwt>
</event>
<event>
 4    5  0.7176259E-008  0.9202851E+03  0.7818608E-02  0.9494222E-01
         -1   -1    0    0    0  501 -0.00000000000E+00  0.00000000000E+00  0.55749747756E+03  0.55749747759E+03  0.50400000000E-02 0.  1.
          1   -1    0    0  501    0  0.00000000000E+00 -0.00000000000E+00 -0.18706881730E+04  0.18706881730E+04  0.50400000000E-02 0. -1.
    8880023    1    1    2    0    0 -0.46043578453E+03 -0.44845663817E+03 -0.14836239494E+04  0.17458707563E+04  0.65864270000E+03 0. -1.
    8880022    1    1    2    0    0  0.46043578453E+03  0.44845663817E+03  0.17043325396E+03  0.68231489436E+03  0.15294330000E+03 0.  0.
<mgrwt>
<rscale>  0 0.84711152E+03</rscale>
<asrwt>0</asrwt>
<pdfrwt beam="1">  1        1 0.28779818E+00 0.92028510E+03</pdfrwt>
<pdfrwt beam="2">  1       -1 0.85768844E-01 0.92028510E+03</pdfrwt>
<totfact> 0.49968172E+00</totfact>
</mgrwt>
</event>
<event>
 4    5  0.7176259E-008  0.9121331E+03  0.7818608E-02  0.9506828E-01
          1   -1    0    0  501    0  0.00000000000E+00  0.00000000000E+00  0.16340173736E+04  0.16340173736E+04  0.50400000000E-02 0. -1.
         -1   -1    0    0    0  501 -0.00000000000E+00 -0.00000000000E+00 -0.45646483238E+03  0.45646483240E+03  0.50400000000E-02 0.  1.
    8880023    1    1    2    0    0 -0.56723596062E+03  0.27644166351E+03  0.11114938917E+04  0.14378475253E+04  0.65864270000E+03 0. -1.
    8880022    1    1    2    0    0  0.56723596062E+03 -0.27644166351E+03  0.66058649540E+02  0.65263468077E+03  0.15294330000E+03 0.  0.
<mgrwt>
<rscale>  0 0.83782277E+03</rscale>
<asrwt>0</asrwt>
<pdfrwt beam="1">  1        1 0.25138729E+00 0.91213312E+03</pdfrwt>
<pdfrwt beam="2">  1       -1 0.70225358E-01 0.91213312E+03</pdfrwt>
<totfact> 0.11026908E+01</totfact>
</mgrwt>
</event>
<event>
 4    5  0.7176259E-008  0.8752405E+03  0.7818608E-02  0.9567008E-01
          1   -1    0    0  501    0  0.00000000000E+00  0.00000000000E+00  0.30968696408E+04  0.30968696408E+04  0.50400000000E-02 0. -1.
         -1   -1    0    0    0  501 -0.00000000000E+00 -0.00000000000E+00 -0.22915483579E+03  0.22915483585E+03  0.50400000000E-02 0.  1.
    8880023    1    1    2    0    0 -0.37859108933E+03  0.43463144806E+03  0.24397908130E+04  0.25920310812E+04  0.65864270000E+03 0. -1.
    8880022    1    1    2    0    0  0.37859108933E+03 -0.43463144806E+03  0.42792399198E+03  0.73399339540E+03  0.15294330000E+03 0.  0.
<mgrwt>
<rscale>  0 0.79518824E+03</rscale>
<asrwt>0</asrwt>
<pdfrwt beam="1">  1        1 0.47644145E+00 0.87524049E+03</pdfrwt>
<pdfrwt beam="2">  1       -1 0.35254592E-01 0.87524049E+03</pdfrwt>
<totfact> 0.40720050E+00</totfact>
</mgrwt>
</event>
<event>
 4    5  0.7176259E-008  0.1042790E+04  0.7818608E-02  0.9327599E-01
         -1   -1    0    0    0  501 -0.00000000000E+00  0.00000000000E+00  0.99588733884E+03  0.99588733886E+03  0.50400000000E-02 0.  1.
          1   -1    0    0  501    0  0.00000000000E+00 -0.00000000000E+00 -0.16775620571E+04  0.16775620571E+04  0.50400000000E-02 0. -1.
    8880023    1    1    2    0    0 -0.18783034235E+03  0.78633398375E+03 -0.12837386532E+04  0.16539034154E+04  0.65864270000E+03 0. -1.
    8880022    1    1    2    0    0  0.18783034235E+03 -0.78633398375E+03  0.60206393500E+03  0.10195459805E+04  0.15294330000E+03 0.  0.
<mgrwt>
<rscale>  0 0.98281269E+03</rscale>
<asrwt>0</asrwt>
<pdfrwt beam="1">  1        1 0.25808647E+00 0.10427903E+04</pdfrwt>
<pdfrwt beam="2">  1       -1 0.15321344E+00 0.10427903E+04</pdfrwt>
<totfact> 0.16282211E+00</totfact>
</mgrwt>
</event>
<event>
 4    5  0.7176259E-008  0.7553105E+03  0.7818608E-02  0.9817403E-01
          1   -1    0    0  501    0  0.00000000000E+00  0.00000000000E+00  0.14462943177E+04  0.14462943177E+04  0.50400000000E-02 0. -1.
         -1   -1    0    0    0  501 -0.00000000000E+00 -0.00000000000E+00 -0.37077530217E+03  0.37077530220E+03  0.50400000000E-02 0.  1.
    8880023    1    1    2    0    0 -0.33539690944E+03  0.15553986117E+03  0.11823002378E+04  0.14029710595E+04  0.65864270000E+03 0.  0.
    8880022    1    1    2    0    0  0.33539690944E+03 -0.15553986117E+03 -0.10678122227E+03  0.41409856039E+03  0.15294330000E+03 0.  0.
<mgrwt>
<rscale>  0 0.64436910E+03</rscale>
<asrwt>0</asrwt>
<pdfrwt beam="1">  1        1 0.22250682E+00 0.75531049E+03</pdfrwt>
<pdfrwt beam="2">  1       -1 0.57042354E-01 0.75531049E+03</pdfrwt>
<totfact> 0.22904550E+01</totfact>
</mgrwt>
</event>
<event>
 4    5  0.7176259E-008  0.6826056E+03  0.7818608E-02  0.1007887E+00
          1   -1    0    0  501    0  0.00000000000E+00  0.00000000000E+00  0.25058387618E+03  0.25058387623E+03  0.50400000000E-02 0. -1.
         -1   -1    0    0    0  501 -0.00000000000E+00 -0.00000000000E+00 -0.12270572723E+04  0.12270572724E+04  0.50400000000E-02 0.  1.
    8880023    1    1    2    0    0 -0.10155540375E+03  0.14773883530E+03 -0.27200602763E+03  0.73480456505E+03  0.65864270000E+03 0. -1.
    8880022    1    1    2    0    0  0.10155540375E+03 -0.14773883530E+03 -0.70446736853E+03  0.74283658353E+03  0.15294330000E+03 0.  0.
<mgrwt>
<rscale>  0 0.52323314E+03</rscale>
<asrwt>0</asrwt>
<pdfrwt beam="1">  1        1 0.38551366E-01 0.68260565E+03</pdfrwt>
<pdfrwt beam="2">  1       -1 0.18877804E+00 0.68260565E+03</pdfrwt>
<totfact> 0.20644154E+01</totfact>
</mgrwt>
</event>
<event>
 4    5  0.7176259E-008  0.1128664E+04  0.7818608E-02  0.9229794E-01
          1   -1    0    0  501    0  0.00000000000E+00  0.00000000000E+00  0.18931942385E+04  0.18931942385E+04  0.50400000000E-02 0. -1.
         -1   -1    0    0    0  501 -0.00000000000E+00 -0.00000000000E+00 -0.95819956824E+03  0.95819956826E+03  0.50400000000E-02 0.  1.
    8880023    1    1    2    0    0  0.57243605901E+03 -0.71581342418E+03  0.14113760419E+04  0.18071702847E+04  0.65864270000E+03 0.  0.
    8880022    1    1    2    0    0 -0.57243605901E+03  0.71581342418E+03 -0.47638137163E+03  0.10442235221E+04  0.15294330000E+03 0.  0.
<mgrwt>
<rscale>  0 0.10751126E+04</rscale>
<asrwt>0</asrwt>
<pdfrwt beam="1">  1        1 0.29126065E+00 0.11286639E+04</pdfrwt>
<pdfrwt beam="2">  1       -1 0.14741532E+00 0.11286639E+04</pdfrwt>
<totfact> 0.12764128E+00</totfact>
</mgrwt>
</event>
<event>
 4    5  0.7176259E-008  0.9230125E+03  0.7818608E-02  0.9490055E-01
          1   -1    0    0  501    0  0.00000000000E+00  0.00000000000E+00  0.48030527079E+03  0.48030527081E+03  0.50400000000E-02 0. -1.
         -1   -1    0    0    0  501 -0.00000000000E+00 -0.00000000000E+00 -0.26939214778E+04  0.26939214778E+04  0.50400000000E-02 0.  1.
    8880023    1    1    2    0    0  0.11249771781E+02  0.64654098059E+03 -0.65101994484E+02  0.92530550246E+03  0.65864270000E+03 0. -1.
    8880022    1    1    2    0    0 -0.11249771781E+02 -0.64654098059E+03 -0.21485142125E+04  0.22489212461E+04  0.15294330000E+03 0.  0.
<mgrwt>
<rscale>  0 0.85020984E+03</rscale>
<asrwt>0</asrwt>
<pdfrwt beam="1">  1        1 0.73893120E-01 0.92301246E+03</pdfrwt>
<pdfrwt beam="2">  1       -1 0.41444945E+00 0.92301246E+03</pdfrwt>
<totfact> 0.27739460E-01</totfact>
</mgrwt>
</event>
<event>
 4    5  0.7176259E-008  0.7874284E+03  0.7818608E-02  0.9738668E-01
          1   -1    0    0  501    0  0.00000000000E+00  0.00000000000E+00  0.60646198373E+03  0.60646198375E+03  0.50400000000E-02 0. -1.
         -1   -1    0    0    0  501 -0.00000000000E+00 -0.00000000000E+00 -0.87268463898E+03  0.87268463900E+03  0.50400000000E-02 0.  1.
    8880023    1    1    2    0    0 -0.25565250328E+03 -0.34767082869E+03  0.21364690562E+03  0.81589730610E+03  0.65864270000E+03 0. -1.
    8880022    1    1    2    0    0  0.25565250328E+03  0.34767082869E+03 -0.47986956088E+03  0.66324931664E+03  0.15294330000E+03 0.  0.
<mgrwt>
<rscale>  0 0.68760438E+03</rscale>
<asrwt>0</asrwt>
<pdfrwt beam="1">  1        1 0.93301844E-01 0.78742835E+03</pdfrwt>
<pdfrwt beam="2">  1       -1 0.13425918E+00 0.78742835E+03</pdfrwt>
<totfact> 0.16120379E+01</totfact>
</mgrwt>
</event>
<event>
 4    5  0.7176259E-008  0.1084152E+04  0.7818608E-02  0.9278909E-01
         -1   -1    0    0    0  501 -0.00000000000E+00  0.00000000000E+00  0.63518569777E+03  0.63518569779E+03  0.50400000000E-02 0.  1.
          1   -1    0    0  501    0  0.00000000000E+00 -0.00000000000E+00 -0.18339133854E+04  0.18339133854E+04  0.50400000000E-02 0. -1.
    8880023    1    1    2    0    0  0.49008022730E+03 -0.70809426955E+03 -0.11684578257E+04  0.15939510721E+04  0.65864270000E+03 0.  0.
    8880022    1    1    2    0    0 -0.49008022730E+03  0.70809426955E+03 -0.30269861994E+02  0.87514801109E+03  0.15294330000E+03 0.  0.
<mgrwt>
<rscale>  0 0.10274794E+04</rscale>
<asrwt>0</asrwt>
<pdfrwt beam="1">  1        1 0.28214052E+00 0.10841524E+04</pdfrwt>
<pdfrwt beam="2">  1       -1 0.97720877E-01 0.10841524E+04</pdfrwt>
<totfact> 0.38753132E+00</totfact>
</mgrwt>
</event>
<event>
 4    5  0.7176259E-008  0.8981031E+03  0.7818608E-02  0.9529084E-01
         -1   -1    0    0    0  501 -0.00000000000E+00  0.00000000000E+00  0.68002035482E+03  0.68002035483E+03  0.50400000000E-02 0.  1.
          1   -1    0    0  501    0  0.00000000000E+00 -0.00000000000E+00 -0.89695267469E+03  0.89695267470E+03  0.50400000000E-02 0. -1.
    8880023    1    1    2    0    0 -0.48483760732E+03 -0.37109491500E+03 -0.28896028041E+03  0.94344432338E+03  0.65864270000E+03 0. -1.
    8880022    1    1    2    0    0  0.48483760732E+03  0.37109491500E+03  0.72027960537E+02  0.63352870615E+03  0.15294330000E+03 0.  1.
<mgrwt>
<rscale>  0 0.82173147E+03</rscale>
<asrwt>0</asrwt>
<pdfrwt beam="1">  1        1 0.13799272E+00 0.89810308E+03</pdfrwt>
<pdfrwt beam="2">  1       -1 0.10461852E+00 0.89810308E+03</pdfrwt>
<totfact> 0.15908449E+01</totfact>
</mgrwt>
</event>
<event>
 4    5  0.7176259E-008  0.1027491E+04  0.7818608E-02  0.9346443E-01
          1   -1    0    0  501    0  0.00000000000E+00  0.00000000000E+00  0.22076573493E+04  0.22076573493E+04  0.50400000000E-02 0. -1.
         -1   -1    0    0    0  501 -0.00000000000E+00 -0.00000000000E+00 -0.62406140917E+03  0.62406140919E+03  0.50400000000E-02 0.  1.
    8880023    1    1    2    0    0  0.24110758492E+02 -0.78825550079E+03 -0.31392405172E+02  0.10279706964E+04  0.65864270000E+03 0.  0.
    8880022    1    1    2    0    0 -0.24110758492E+02  0.78825550079E+03  0.16149883453E+04  0.18037480621E+04  0.15294330000E+03 0.  0.
<mgrwt>
<rscale>  0 0.96617427E+03</rscale>
<asrwt>0</asrwt>
<pdfrwt beam="1">  1        1 0.33963960E+00 0.10274913E+04</pdfrwt>
<pdfrwt beam="2">  1       -1 0.96009446E-01 0.10274913E+04</pdfrwt>
<totfact> 0.22732597E+00</totfact>
</mgrwt>
</event>
<event>
 4    5  0.7176259E-008  0.9970797E+03  0.7818608E-02  0.9385388E-01
         -1   -1    0    0    0  501 -0.00000000000E+00  0.00000000000E+00  0.68555472934E+03  0.68555472936E+03  0.50400000000E-02 0.  1.
          1   -1    0    0  501    0  0.00000000000E+00 -0.00000000000E+00 -0.12530193205E+04  0.12530193206E+04  0.50400000000E-02 0. -1.
    8880023    1    1    2    0    0 -0.18173756866E+03 -0.72617441264E+03 -0.61766263534E+03  0.11728917933E+04  0.65864270000E+03 0.  0.
    8880022    1    1    2    0    0  0.18173756866E+03  0.72617441264E+03  0.50198044131E+02  0.76568225661E+03  0.15294330000E+03 0.  0.
<mgrwt>
<rscale>  0 0.93287990E+03</rscale>
<asrwt>0</asrwt>
<pdfrwt beam="1">  1        1 0.19277220E+00 0.99707975E+03</pdfrwt>
<pdfrwt beam="2">  1       -1 0.10546996E+00 0.99707975E+03</pdfrwt>
<totfact> 0.82714681E+00</totfact>
</mgrwt>
</event>
<event>
 4    5  0.7176259E-008  0.8140628E+03  0.7818608E-02  0.9681176E-01
          1   -1    0    0  501    0  0.00000000000E+00  0.00000000000E+00  0.70096936141E+03  0.70096936143E+03  0.50400000000E-02 0. -1.
         -1   -1    0    0    0  501 -0.00000000000E+00 -0.00000000000E+00 -0.67034334427E+03  0.67034334429E+03  0.50400000000E-02 0.  1.
    8880023    1    1    2    0    0 -0.29617012530E+03 -0.37572767769E+03  0.20526643268E+03  0.83954305760E+03  0.65864270000E+03 0.  0.
    8880022    1    1    2    0    0  0.29617012530E+03  0.37572767769E+03 -0.17464041554E+03  0.53176964812E+03  0.15294330000E+03 0.  0.
<mgrwt>
<rscale>  0 0.72148734E+03</rscale>
<asrwt>0</asrwt>
<pdfrwt beam="1">  1        1 0.10784144E+00 0.81406280E+03</pdfrwt>
<pdfrwt beam="2">  1       -1 0.10312974E+00 0.81406280E+03</pdfrwt>
<totfact> 0.24595460E+01</totfact>
</mgrwt>
</event>
<event>
 4    5  0.7219580E-008  0.7644994E+03  0.7818608E-02  0.9793595E-01
         -1   -1    0    0    0  501 -0.00000000000E+00  0.00000000000E+00  0.11936245283E+04  0.11936245283E+04  0.50400000000E-02 0.  1.
          1   -1    0    0  501    0  0.00000000000E+00 -0.00000000000E+00 -0.30390790987E+04  0.30390790987E+04  0.50400000000E-02 0. -1.
    8880023    1    1    2    0    0 -0.22608098488E+03  0.31549415378E+03 -0.29523893571E+04  0.30497643016E+04  0.65864270000E+03 0. -1.
    8880022    1    1    2    0    0  0.22608098488E+03 -0.31549415378E+03  0.11069347867E+04  0.11829393255E+04  0.15294330000E+03 0.  0.
<mgrwt>
<rscale>  0 0.65707398E+03</rscale>
<asrwt>0</asrwt>
<pdfrwt beam="1">  1        1 0.46755063E+00 0.76449943E+03</pdfrwt>
<pdfrwt beam="2">  1       -1 0.18363454E+00 0.76449943E+03</pdfrwt>
<totfact> 0.11938631E-01</totfact>
</mgrwt>
</event>
<event>
 4    5  0.7176259E-008  0.1320341E+04  0.7818608E-02  0.9048190E-01
         -1   -1    0    0    0  501 -0.00000000000E+00  0.00000000000E+00  0.15968953579E+04  0.15968953579E+04  0.50400000000E-02 0.  1.
          1   -1    0    0  501    0  0.00000000000E+00 -0.00000000000E+00 -0.14900653777E+04  0.14900653777E+04  0.50400000000E-02 0. -1.
    8880023    1    1    2    0    0 -0.10240095681E+04  0.51077769570E+03 -0.86451357854E+03  0.15781899074E+04  0.65864270000E+03 0. -1.
    8880022    1    1    2    0    0  0.10240095681E+04 -0.51077769570E+03  0.97134355877E+03  0.15087708282E+04  0.15294330000E+03 0.  0.
<mgrwt>
<rscale>  0 0.12767723E+04</rscale>
<asrwt>0</asrwt>
<pdfrwt beam="1">  1        1 0.22924083E+00 0.13203407E+04</pdfrwt>
<pdfrwt beam="2">  1       -1 0.24567621E+00 0.13203407E+04</pdfrwt>
<totfact> 0.47759908E-01</totfact>
</mgrwt>
</event>
<event>
 4    5  0.7176259E-008  0.1358628E+04  0.7818608E-02  0.9016515E-01
         -1   -1    0    0    0  501 -0.00000000000E+00  0.00000000000E+00  0.24064695922E+04  0.24064695923E+04  0.50400000000E-02 0.  1.
          1   -1    0    0  501    0  0.00000000000E+00 -0.00000000000E+00 -0.14541632477E+04  0.14541632477E+04  0.50400000000E-02 0. -1.
    8880023    1    1    2    0    0 -0.37683070407E+03 -0.11269685958E+04 -0.91785158634E+03  0.16396101171E+04  0.65864270000E+03 0.  0.
    8880022    1    1    2    0    0  0.37683070407E+03  0.11269685958E+04  0.18701579309E+04  0.22210227228E+04  0.15294330000E+03 0.  0.
<mgrwt>
<rscale>  0 0.13165852E+04</rscale>
<asrwt>0</asrwt>
<pdfrwt beam="1">  1        1 0.22371742E+00 0.13586279E+04</pdfrwt>
<pdfrwt beam="2">  1       -1 0.37022609E+00 0.13586279E+04</pdfrwt>
<totfact> 0.77402182E-02</totfact>
</mgrwt>
</event>
<event>
 4    5  0.7176259E-008  0.1141157E+04  0.7818608E-02  0.9216560E-01
         -1   -1    0    0    0  501 -0.00000000000E+00  0.00000000000E+00  0.11657193315E+04  0.11657193315E+04  0.50400000000E-02 0.  1.
          1   -1    0    0  501    0  0.00000000000E+00 -0.00000000000E+00 -0.14438446564E+04  0.14438446564E+04  0.50400000000E-02 0. -1.
    8880023    1    1    2    0    0 -0.91037012257E+03  0.19913427774E+03 -0.92158734263E+03  0.14668202538E+04  0.65864270000E+03 0.  0.
    8880022    1    1    2    0    0  0.91037012257E+03 -0.19913427774E+03  0.64346201771E+03  0.11427437341E+04  0.15294330000E+03 0.  0.
<mgrwt>
<rscale>  0 0.10884127E+04</rscale>
<asrwt>0</asrwt>
<pdfrwt beam="1">  1        1 0.22212995E+00 0.11411566E+04</pdfrwt>
<pdfrwt beam="2">  1       -1 0.17934143E+00 0.11411566E+04</pdfrwt>
<totfact> 0.14865082E+00</totfact>
</mgrwt>
</event>
<event>
 4    5  0.7176259E-008  0.1177223E+04  0.7818608E-02  0.9179588E-01
         -1   -1    0    0    0  501 -0.00000000000E+00  0.00000000000E+00  0.12245713334E+04  0.12245713334E+04  0.50400000000E-02 0.  1.
          1   -1    0    0  501    0  0.00000000000E+00 -0.00000000000E+00 -0.11595706142E+04  0.11595706142E+04  0.50400000000E-02 0. -1.
    8880023    1    1    2    0    0  0.96136226553E+03  0.16680944634E+03 -0.46207250781E+03  0.12646596403E+04  0.65864270000E+03 0.  0.
    8880022    1    1    2    0    0 -0.96136226553E+03 -0.16680944634E+03  0.52707322698E+03  0.11194823074E+04  0.15294330000E+03 0.  0.
<mgrwt>
<rscale>  0 0.11266621E+04</rscale>
<asrwt>0</asrwt>
<pdfrwt beam="1">  1        1 0.17839548E+00 0.11772226E+04</pdfrwt>
<pdfrwt beam="2">  1       -1 0.18839559E+00 0.11772226E+04</pdfrwt>
<totfact> 0.20397783E+00</totfact>
</mgrwt>
</event>
<event>
 4    5  0.7176259E-008  0.1376430E+04  0.7818608E-02  0.9002217E-01
          1   -1    0    0  501    0  0.00000000000E+00  0.00000000000E+00  0.10852484014E+04  0.10852484015E+04  0.50400000000E-02 0. -1.
         -1   -1    0    0    0  501 -0.00000000000E+00 -0.00000000000E+00 -0.20376638854E+04  0.20376638854E+04  0.50400000000E-02 0.  1.
    8880023    1    1    2    0    0  0.65372126292E+03 -0.10165624540E+04  0.26380009776E+03  0.14014818623E+04  0.65864270000E+03 0.  0.
    8880022    1    1    2    0    0 -0.65372126292E+03  0.10165624540E+04 -0.12162155817E+04  0.17214304246E+04  0.15294330000E+03 0.  0.
<mgrwt>
<rscale>  0 0.13350581E+04</rscale>
<asrwt>0</asrwt>
<pdfrwt beam="1">  1        1 0.16696129E+00 0.13764305E+04</pdfrwt>
<pdfrwt beam="2">  1       -1 0.31348675E+00 0.13764305E+04</pdfrwt>
<totfact> 0.33841450E-01</totfact>
</mgrwt>
</event>
<event>
 4    5  0.7176259E-008  0.6973645E+03  0.7818608E-02  0.1000831E+00
          1   -1    0    0  501    0  0.00000000000E+00  0.00000000000E+00  0.14146505069E+04  0.14146505070E+04  0.50400000000E-02 0. -1.
         -1   -1    0    0    0  501 -0.00000000000E+00 -0.00000000000E+00 -0.21315284214E+03  0.21315284219E+03  0.50400000000E-02 0.  1.
    8880023    1    1    2    0    0 -0.68865192118E+02  0.21855133254E+03  0.11538496831E+04  0.13482160053E+04  0.65864270000E+03 0. -1.
    8880022    1    1    2    0    0  0.68865192118E+02 -0.21855133254E+03  0.47647981726E+02  0.27958734381E+03  0.15294330000E+03 0.  0.
<mgrwt>
<rscale>  0 0.55287153E+03</rscale>
<asrwt>0</asrwt>
<pdfrwt beam="1">  1        1 0.21763853E+00 0.69736454E+03</pdfrwt>
<pdfrwt beam="2">  1       -1 0.32792746E-01 0.69736454E+03</pdfrwt>
<totfact> 0.67400281E+01</totfact>
</mgrwt>
</event>
<event>
 4    5  0.7176259E-008  0.1253170E+04  0.7818608E-02  0.9107094E-01
         -1   -1    0    0    0  501 -0.00000000000E+00  0.00000000000E+00  0.17678158638E+04  0.17678158638E+04  0.50400000000E-02 0.  1.
          1   -1    0    0  501    0  0.00000000000E+00 -0.00000000000E+00 -0.13900687364E+04  0.13900687364E+04  0.50400000000E-02 0. -1.
    8880023    1    1    2    0    0  0.71121738854E+03  0.79422504293E+03 -0.85792600549E+03  0.15187069598E+04  0.65864270000E+03 0. -1.
    8880022    1    1    2    0    0 -0.71121738854E+03 -0.79422504293E+03  0.12356731329E+04  0.16391776405E+04  0.15294330000E+03 0.  0.
<mgrwt>
<rscale>  0 0.12066056E+04</rscale>
<asrwt>0</asrwt>
<pdfrwt beam="1">  1        1 0.21385673E+00 0.12531695E+04</pdfrwt>
<pdfrwt beam="2">  1       -1 0.27197167E+00 0.12531695E+04</pdfrwt>
<totfact> 0.38191317E-01</totfact>
</mgrwt>
</event>
<event>
 4    5  0.7176259E-008  0.1273699E+04  0.7818608E-02  0.9088612E-01
         -1   -1    0    0    0  501 -0.00000000000E+00  0.00000000000E+00  0.19911103972E+04  0.19911103972E+04  0.50400000000E-02 0.  1.
          1   -1    0    0  501    0  0.00000000000E+00 -0.00000000000E+00 -0.16277982272E+04  0.16277982272E+04  0.50400000000E-02 0. -1.
    8880023    1    1    2    0    0  0.84361732991E+03 -0.69051311136E+03 -0.11712244034E+04  0.17303396677E+04  0.65864270000E+03 0.  0.
    8880022    1    1    2    0    0 -0.84361732991E+03  0.69051311136E+03  0.15345365734E+04  0.18885689568E+04  0.15294330000E+03 0.  0.
<mgrwt>
<rscale>  0 0.12280979E+04</rscale>
<asrwt>0</asrwt>
<pdfrwt beam="1">  1        1 0.25043050E+00 0.12736989E+04</pdfrwt>
<pdfrwt beam="2">  1       -1 0.30632468E+00 0.12736989E+04</pdfrwt>
<totfact> 0.15624639E-01</totfact>
</mgrwt>
</event>
<event>
 4    5  0.7176259E-008  0.7404613E+03  0.7818608E-02  0.9858605E-01
         -1   -1    0    0    0  501 -0.00000000000E+00  0.00000000000E+00  0.59301421140E+03  0.59301421142E+03  0.50400000000E-02 0.  1.
          1   -1    0    0  501    0  0.00000000000E+00 -0.00000000000E+00 -0.76966287020E+03  0.76966287021E+03  0.50400000000E-02 0. -1.
    8880023    1    1    2    0    0 -0.12734226921E+03  0.31345915868E+03 -0.48066445901E+03  0.88279172295E+03  0.65864270000E+03 0. -1.
    8880022    1    1    2    0    0  0.12734226921E+03 -0.31345915868E+03  0.30401580021E+03  0.47988535869E+03  0.15294330000E+03 0.  0.
<mgrwt>
<rscale>  0 0.62310073E+03</rscale>
<asrwt>0</asrwt>
<pdfrwt beam="1">  1        1 0.11840967E+00 0.74046128E+03</pdfrwt>
<pdfrwt beam="2">  1       -1 0.91232955E-01 0.74046128E+03</pdfrwt>
<totfact> 0.28297566E+01</totfact>
</mgrwt>
</event>
<event>
 4    5  0.8496701E-008  0.8584492E+03  0.7818608E-02  0.9596328E-01
          1   -1    0    0  501    0  0.00000000000E+00  0.00000000000E+00  0.19815049942E+04  0.19815049942E+04  0.50400000000E-02 0. -1.
         -1   -1    0    0    0  501 -0.00000000000E+00 -0.00000000000E+00 -0.18372055419E+04  0.18372055419E+04  0.50400000000E-02 0.  1.
    8880023    1    1    2    0    0 -0.32947850719E+03  0.44109942055E+03  0.18394162384E+04  0.20298736635E+04  0.65864270000E+03 0.  0.
    8880022    1    1    2    0    0  0.32947850719E+03 -0.44109942055E+03 -0.16951167861E+04  0.17888368726E+04  0.15294330000E+03 0.  0.
<mgrwt>
<rscale>  0 0.77539692E+03</rscale>
<asrwt>0</asrwt>
<pdfrwt beam="1">  1        1 0.30484692E+00 0.85844918E+03</pdfrwt>
<pdfrwt beam="2">  1       -1 0.28264701E+00 0.85844918E+03</pdfrwt>
<totfact> 0.13798169E-01</totfact>
</mgrwt>
</event>
<event>
 4    5  0.7176259E-008  0.7073560E+03  0.7818608E-02  0.9967953E-01
          1   -1    0    0  501    0  0.00000000000E+00  0.00000000000E+00  0.77637064770E+03  0.77637064772E+03  0.50400000000E-02 0. -1.
         -1   -1    0    0    0  501 -0.00000000000E+00 -0.00000000000E+00 -0.73759621608E+03  0.73759621610E+03  0.50400000000E-02 0.  1.
    8880023    1    1    2    0    0  0.20934476503E+03  0.15072171161E+03  0.56699633093E+03  0.90655243122E+03  0.65864270000E+03 0. -1.
    8880022    1    1    2    0    0 -0.20934476503E+03 -0.15072171161E+03 -0.52822189932E+03  0.60741443260E+03  0.15294330000E+03 0.  0.
<mgrwt>
<rscale>  0 0.57078028E+03</rscale>
<asrwt>0</asrwt>
<pdfrwt beam="1">  1        1 0.11944164E+00 0.70735597E+03</pdfrwt>
<pdfrwt beam="2">  1       -1 0.11347634E+00 0.70735597E+03</pdfrwt>
<totfact> 0.16990684E+01</totfact>
</mgrwt>
</event>
<event>
 4    5  0.7176259E-008  0.7327322E+03  0.7818608E-02  0.9881647E-01
          1   -1    0    0  501    0  0.00000000000E+00  0.00000000000E+00  0.75786720004E+03  0.75786720006E+03  0.50400000000E-02 0. -1.
         -1   -1    0    0    0  501 -0.00000000000E+00 -0.00000000000E+00 -0.10227843092E+04  0.10227843092E+04  0.50400000000E-02 0.  1.
    8880023    1    1    2    0    0 -0.29221620978E+03  0.13302603143E+03  0.53365562054E+03  0.90646829282E+03  0.65864270000E+03 0. -1.
    8880022    1    1    2    0    0  0.29221620978E+03 -0.13302603143E+03 -0.79857272968E+03  0.87418321644E+03  0.15294330000E+03 0.  0.
<mgrwt>
<rscale>  0 0.61159056E+03</rscale>
<asrwt>0</asrwt>
<pdfrwt beam="1">  1        1 0.11659495E+00 0.73273218E+03</pdfrwt>
<pdfrwt beam="2">  1       -1 0.15735143E+00 0.73273218E+03</pdfrwt>
<totfact> 0.76358342E+00</totfact>
</mgrwt>
</event>
<event>
 4    5  0.7176259E-008  0.2171573E+04  0.7818608E-02  0.8540819E-01
         -1   -1    0    0    0  501 -0.00000000000E+00  0.00000000000E+00  0.25827904537E+04  0.25827904537E+04  0.50400000000E-02 0.  1.
          1   -1    0    0  501    0  0.00000000000E+00 -0.00000000000E+00 -0.21054514962E+04  0.21054514962E+04  0.50400000000E-02 0. -1.
    8880023    1    1    2    0    0 -0.18367037865E+04  0.95312112198E+03  0.12122390692E+04  0.24870171772E+04  0.65864270000E+03 0.  0.
    8880022    1    1    2    0    0  0.18367037865E+04 -0.95312112198E+03 -0.73490011168E+03  0.22012247727E+04  0.15294330000E+03 0.  0.
<mgrwt>
<rscale>  0 0.21469971E+04</rscale>
<asrwt>0</asrwt>
<pdfrwt beam="1">  1        1 0.32391562E+00 0.21715734E+04</pdfrwt>
<pdfrwt beam="2">  1       -1 0.39735238E+00 0.21715734E+04</pdfrwt>
<totfact> 0.16405909E-02</totfact>
</mgrwt>
</event>
<event>
 4    5  0.7176259E-008  0.9528335E+03  0.7818608E-02  0.9446049E-01
          1   -1    0    0  501    0  0.00000000000E+00  0.00000000000E+00  0.10127499360E+04  0.10127499360E+04  0.50400000000E-02 0. -1.
         -1   -1    0    0    0  501 -0.00000000000E+00 -0.00000000000E+00 -0.11909833011E+04  0.11909833012E+04  0.50400000000E-02 0.  1.
    8880023    1    1    2    0    0  0.37024293401E+03 -0.58051839637E+03  0.62134612357E+03  0.11375247910E+04  0.65864270000E+03 0.  0.
    8880022    1    1    2    0    0 -0.37024293401E+03  0.58051839637E+03 -0.79957948874E+03  0.10662084461E+04  0.15294330000E+03 0.  0.
<mgrwt>
<rscale>  0 0.88381009E+03</rscale>
<asrwt>0</asrwt>
<pdfrwt beam="1">  1        1 0.15580768E+00 0.95283348E+03</pdfrwt>
<pdfrwt beam="2">  1       -1 0.18322820E+00 0.95283348E+03</pdfrwt>
<totfact> 0.29459999E+00</totfact>
</mgrwt>
</event>
<event>
 4    5  0.7176259E-008  0.7174898E+03  0.7818608E-02  0.9931173E-01
         -1   -1    0    0    0  501 -0.00000000000E+00  0.00000000000E+00  0.52742137450E+03  0.52742137452E+03  0.50400000000E-02 0.  1.
          1   -1    0    0  501    0  0.00000000000E+00 -0.00000000000E+00 -0.17439661711E+04  0.17439661711E+04  0.50400000000E-02 0. -1.
    8880023    1    1    2    0    0 -0.24272773196E+03 -0.14854194841E+03 -0.16097939064E+04  0.17624494573E+04  0.65864270000E+03 0. -1.
    8880022    1    1    2    0    0  0.24272773196E+03  0.14854194841E+03  0.39324910983E+03  0.50893808827E+03  0.15294330000E+03 0.  0.
<mgrwt>
<rscale>  0 0.58774020E+03</rscale>
<asrwt>0</asrwt>
<pdfrwt beam="1">  1        1 0.26830249E+00 0.71748984E+03</pdfrwt>
<pdfrwt beam="2">  1       -1 0.81141750E-01 0.71748984E+03</pdfrwt>
<totfact> 0.70645484E+00</totfact>
</mgrwt>
</event>
<event>
 4    5  0.7176259E-008  0.8442999E+03  0.7818608E-02  0.9622125E-01
         -1   -1    0    0    0  501 -0.00000000000E+00  0.00000000000E+00  0.71576395075E+03  0.71576395077E+03  0.50400000000E-02 0.  1.
          1   -1    0    0  501    0  0.00000000000E+00 -0.00000000000E+00 -0.20268160254E+04  0.20268160254E+04  0.50400000000E-02 0. -1.
    8880023    1    1    2    0    0  0.48569112534E+03  0.20769270432E+03 -0.18117742916E+04  0.19988417693E+04  0.65864270000E+03 0. -1.
    8880022    1    1    2    0    0 -0.48569112534E+03 -0.20769270432E+03  0.50072221702E+03  0.74373820682E+03  0.15294330000E+03 0.  0.
<mgrwt>
<rscale>  0 0.75848946E+03</rscale>
<asrwt>0</asrwt>
<pdfrwt beam="1">  1        1 0.31181785E+00 0.84429991E+03</pdfrwt>
<pdfrwt beam="2">  1       -1 0.11011753E+00 0.84429991E+03</pdfrwt>
<totfact> 0.22544036E+00</totfact>
</mgrwt>
</event>
<event>
 4    5  0.7176259E-008  0.8429448E+03  0.7818608E-02  0.9624652E-01
         -1   -1    0    0    0  501 -0.00000000000E+00  0.00000000000E+00  0.57206760045E+03  0.57206760047E+03  0.50400000000E-02 0.  1.
          1   -1    0    0  501    0  0.00000000000E+00 -0.00000000000E+00 -0.17804751160E+04  0.17804751160E+04  0.50400000000E-02 0. -1.
    8880023    1    1    2    0    0 -0.50512679307E+03 -0.14694427477E+03 -0.15083868108E+04  0.17279429025E+04  0.65864270000E+03 0. -1.
    8880022    1    1    2    0    0  0.50512679307E+03  0.14694427477E+03  0.29997929531E+03  0.62459981395E+03  0.15294330000E+03 0.  0.
<mgrwt>
<rscale>  0 0.75685790E+03</rscale>
<asrwt>0</asrwt>
<pdfrwt beam="1">  1        1 0.27391925E+00 0.84294478E+03</pdfrwt>
<pdfrwt beam="2">  1       -1 0.88010401E-01 0.84294478E+03</pdfrwt>
<totfact> 0.54918443E+00</totfact>
</mgrwt>
</event>
<event>
 4    5  0.7176259E-008  0.7978554E+03  0.7818608E-02  0.9715452E-01
          1   -1    0    0  501    0  0.00000000000E+00  0.00000000000E+00  0.10245649352E+04  0.10245649352E+04  0.50400000000E-02 0. -1.
         -1   -1    0    0    0  501 -0.00000000000E+00 -0.00000000000E+00 -0.10500556665E+04  0.10500556665E+04  0.50400000000E-02 0.  1.
    8880023    1    1    2    0    0  0.37597556145E+03 -0.24780128623E+03  0.79497077534E+03  0.11263000667E+04  0.65864270000E+03 0.  0.
    8880022    1    1    2    0    0 -0.37597556145E+03  0.24780128623E+03 -0.82046150666E+03  0.94832053505E+03  0.15294330000E+03 0.  0.
<mgrwt>
<rscale>  0 0.70104174E+03</rscale>
<asrwt>0</asrwt>
<pdfrwt beam="1">  1        1 0.15762538E+00 0.79785544E+03</pdfrwt>
<pdfrwt beam="2">  1       -1 0.16154702E+00 0.79785544E+03</pdfrwt>
<totfact> 0.42430872E+00</totfact>
</mgrwt>
</event>
<event>
 4    5  0.7176259E-008  0.6903676E+03  0.7818608E-02  0.1003978E+00
          1   -1    0    0  501    0  0.00000000000E+00  0.00000000000E+00  0.15493750086E+04  0.15493750086E+04  0.50400000000E-02 0. -1.
         -1   -1    0    0    0  501 -0.00000000000E+00 -0.00000000000E+00 -0.41919869330E+03  0.41919869333E+03  0.50400000000E-02 0.  1.
    8880023    1    1    2    0    0  0.18237767272E+03 -0.97650385442E+02  0.14212794042E+04  0.15800767590E+04  0.65864270000E+03 0. -1.
    8880022    1    1    2    0    0 -0.18237767272E+03  0.97650385442E+02 -0.29110308890E+03  0.38849694293E+03  0.15294330000E+03 0.  0.
<mgrwt>
<rscale>  0 0.53939686E+03</rscale>
<asrwt>0</asrwt>
<pdfrwt beam="1">  1        1 0.23836539E+00 0.69036760E+03</pdfrwt>
<pdfrwt beam="2">  1       -1 0.64492106E-01 0.69036760E+03</pdfrwt>
<totfact> 0.15417731E+01</totfact>
</mgrwt>
</event>
<event>
 4    5  0.7176259E-008  0.1026295E+04  0.7818608E-02  0.9347937E-01
          1   -1    0    0  501    0  0.00000000000E+00  0.00000000000E+00  0.16092682581E+04  0.16092682581E+04  0.50400000000E-02 0. -1.
         -1   -1    0    0    0  501 -0.00000000000E+00 -0.00000000000E+00 -0.88553258207E+03  0.88553258208E+03  0.50400000000E-02 0.  1.
    8880023    1    1    2    0    0  0.74979661766E+03  0.23932262734E+03  0.11867177275E+04  0.15689421464E+04  0.65864270000E+03 0.  0.
    8880022    1    1    2    0    0 -0.74979661766E+03 -0.23932262734E+03 -0.46298205147E+03  0.92585869376E+03  0.15294330000E+03 0.  0.
<mgrwt>
<rscale>  0 0.96486984E+03</rscale>
<asrwt>0</asrwt>
<pdfrwt beam="1">  1        1 0.24757973E+00 0.10262945E+04</pdfrwt>
<pdfrwt beam="2">  1       -1 0.13623578E+00 0.10262945E+04</pdfrwt>
<totfact> 0.24814134E+00</totfact>
</mgrwt>
</event>
<event>
 4    5  0.7176259E-008  0.8181066E+03  0.7818608E-02  0.9672932E-01
          1   -1    0    0  501    0  0.00000000000E+00  0.00000000000E+00  0.36670399644E+04  0.36670399644E+04  0.50400000000E-02 0. -1.
         -1   -1    0    0    0  501 -0.00000000000E+00 -0.00000000000E+00 -0.25743361882E+03  0.25743361887E+03  0.50400000000E-02 0.  1.
    8880023    1    1    2    0    0  0.29632211274E+03  0.38429336874E+03  0.33053627730E+04  0.34051022679E+04  0.65864270000E+03 0.  0.
    8880022    1    1    2    0    0 -0.29632211274E+03 -0.38429336874E+03  0.10424357259E+03  0.51937131534E+03  0.15294330000E+03 0.  0.
<mgrwt>
<rscale>  0 0.72651519E+03</rscale>
<asrwt>0</asrwt>
<pdfrwt beam="1">  1        1 0.56415997E+00 0.81810659E+03</pdfrwt>
<pdfrwt beam="2">  1       -1 0.39605174E-01 0.81810659E+03</pdfrwt>
<totfact> 0.12279132E+00</totfact>
</mgrwt>
</event>
<event>
 4    5  0.7296457E-008  0.1129291E+04  0.7818608E-02  0.9229124E-01
          1   -1    0    0  501    0  0.00000000000E+00  0.00000000000E+00  0.22827070587E+04  0.22827070587E+04  0.50400000000E-02 0. -1.
         -1   -1    0    0    0  501 -0.00000000000E+00 -0.00000000000E+00 -0.10496541182E+04  0.10496541182E+04  0.50400000000E-02 0.  1.
    8880023    1    1    2    0    0  0.88571862757E+03  0.23872734391E+03  0.18844599662E+04  0.21969268996E+04  0.65864270000E+03 0. -1.
    8880022    1    1    2    0    0 -0.88571862757E+03 -0.23872734391E+03 -0.65140702565E+03  0.11354342773E+04  0.15294330000E+03 0.  0.
<mgrwt>
<rscale>  0 0.10757811E+04</rscale>
<asrwt>0</asrwt>
<pdfrwt beam="1">  1        1 0.35118570E+00 0.11292911E+04</pdfrwt>
<pdfrwt beam="2">  1       -1 0.16148525E+00 0.11292911E+04</pdfrwt>
<totfact> 0.54170762E-01</totfact>
</mgrwt>
</event>
<event>
 4    5  0.7176259E-008  0.9320345E+03  0.7818608E-02  0.9476448E-01
         -1   -1    0    0    0  501 -0.00000000000E+00  0.00000000000E+00  0.81290008766E+03  0.81290008768E+03  0.50400000000E-02 0.  1.
          1   -1    0    0  501    0  0.00000000000E+00 -0.00000000000E+00 -0.13956526354E+04  0.13956526354E+04  0.50400000000E-02 0. -1.
    8880023    1    1    2    0    0 -0.38842487110E+03 -0.53292040081E+03 -0.10362478012E+04  0.13937351778E+04  0.65864270000E+03 0.  0.
    8880022    1    1    2    0    0  0.38842487110E+03  0.53292040081E+03  0.45349525349E+03  0.81481754525E+03  0.15294330000E+03 0.  0.
<mgrwt>
<rscale>  0 0.86042718E+03</rscale>
<asrwt>0</asrwt>
<pdfrwt beam="1">  1        1 0.21471579E+00 0.93203446E+03</pdfrwt>
<pdfrwt beam="2">  1       -1 0.12506155E+00 0.93203446E+03</pdfrwt>
<totfact> 0.43823230E+00</totfact>
</mgrwt>
</event>
<event>
 4    5  0.7176259E-008  0.1666452E+04  0.7818608E-02  0.8800246E-01
          1   -1    0    0  501    0  0.00000000000E+00  0.00000000000E+00  0.16522898140E+04  0.16522898141E+04  0.50400000000E-02 0. -1.
         -1   -1    0    0    0  501 -0.00000000000E+00 -0.00000000000E+00 -0.16463000497E+04  0.16463000497E+04  0.50400000000E-02 0.  1.
    8880023    1    1    2    0    0  0.14526122359E+04  0.48287669215E+03  0.39321349546E+03  0.17122147257E+04  0.65864270000E+03 0. -1.
    8880022    1    1    2    0    0 -0.14526122359E+04 -0.48287669215E+03 -0.38722373112E+03  0.15863751381E+04  0.15294330000E+03 0.  0.
<mgrwt>
<rscale>  0 0.16334702E+04</rscale>
<asrwt>0</asrwt>
<pdfrwt beam="1">  1        1 0.25419843E+00 0.16664520E+04</pdfrwt>
<pdfrwt beam="2">  1       -1 0.25327693E+00 0.16664520E+04</pdfrwt>
<totfact> 0.31647383E-01</totfact>
</mgrwt>
</event>
<event>
 4    5  0.7176259E-008  0.1279271E+04  0.7818608E-02  0.9083671E-01
          1   -1    0    0  501    0  0.00000000000E+00  0.00000000000E+00  0.95544214405E+03  0.95544214407E+03  0.50400000000E-02 0. -1.
         -1   -1    0    0    0  501 -0.00000000000E+00 -0.00000000000E+00 -0.16229242681E+04  0.16229242681E+04  0.50400000000E-02 0.  1.
    8880023    1    1    2    0    0  0.21286633069E+03 -0.10758304984E+04  0.11777624064E+02  0.12793249215E+04  0.65864270000E+03 0.  0.
    8880022    1    1    2    0    0 -0.21286633069E+03  0.10758304984E+04 -0.67925974810E+03  0.12990414907E+04  0.15294330000E+03 0.  0.
<mgrwt>
<rscale>  0 0.12339235E+04</rscale>
<asrwt>0</asrwt>
<pdfrwt beam="1">  1        1 0.14699110E+00 0.12792707E+04</pdfrwt>
<pdfrwt beam="2">  1       -1 0.24968066E+00 0.12792707E+04</pdfrwt>
<totfact> 0.11193668E+00</totfact>
</mgrwt>
</event>
<event>
 4    5  0.7176259E-008  0.1658893E+04  0.7818608E-02  0.8804890E-01
          1   -1    0    0  501    0  0.00000000000E+00  0.00000000000E+00  0.43986956796E+04  0.43986956796E+04  0.50400000000E-02 0. -1.
         -1   -1    0    0    0  501 -0.00000000000E+00 -0.00000000000E+00 -0.10921130199E+04  0.10921130199E+04  0.50400000000E-02 0.  1.
    8880023    1    1    2    0    0  0.33816680642E+03  0.14845060314E+04  0.35713948028E+04  0.39378656643E+04  0.65864270000E+03 0. -1.
    8880022    1    1    2    0    0 -0.33816680642E+03 -0.14845060314E+04 -0.26481214313E+03  0.15529430351E+04  0.15294330000E+03 0.  0.
<mgrwt>
<rscale>  0 0.16257384E+04</rscale>
<asrwt>0</asrwt>
<pdfrwt beam="1">  1        1 0.67672241E+00 0.16588927E+04</pdfrwt>
<pdfrwt beam="2">  1       -1 0.16801739E+00 0.16588927E+04</pdfrwt>
<totfact> 0.97958489E-03</totfact>
</mgrwt>
</event>
<event>
 4    5  0.7176259E-008  0.7111983E+03  0.7818608E-02  0.9953578E-01
         -1   -1    0    0    0  501 -0.00000000000E+00  0.00000000000E+00  0.54050888181E+03  0.54050888183E+03  0.50400000000E-02 0.  1.
          1   -1    0    0  501    0  0.00000000000E+00 -0.00000000000E+00 -0.10212737493E+04  0.10212737493E+04  0.50400000000E-02 0. -1.
    8880023    1    1    2    0    0  0.23774748144E+03 -0.12437428561E+03 -0.83168932708E+03  0.10943080786E+04  0.65864270000E+03 0. -1.
    8880022    1    1    2    0    0 -0.23774748144E+03  0.12437428561E+03  0.35092445963E+03  0.46747455250E+03  0.15294330000E+03 0.  0.
<mgrwt>
<rscale>  0 0.57733482E+03</rscale>
<asrwt>0</asrwt>
<pdfrwt beam="1">  1        1 0.15711904E+00 0.71119831E+03</pdfrwt>
<pdfrwt beam="2">  1       -1 0.83155213E-01 0.71119831E+03</pdfrwt>
<totfact> 0.21617675E+01</totfact>
</mgrwt>
</event>
<event>
 4    5  0.7176259E-008  0.1244018E+04  0.7818608E-02  0.9115477E-01
         -1   -1    0    0    0  501 -0.00000000000E+00  0.00000000000E+00  0.86037858373E+03  0.86037858374E+03  0.50400000000E-02 0.  1.
          1   -1    0    0  501    0  0.00000000000E+00 -0.00000000000E+00 -0.36645508588E+04  0.36645508588E+04  0.50400000000E-02 0. -1.
    8880023    1    1    2    0    0 -0.27149201072E+03 -0.10198352147E+04 -0.31637620609E+04  0.33995547299E+04  0.65864270000E+03 0.  0.
    8880022    1    1    2    0    0  0.27149201072E+03  0.10198352147E+04  0.35958978580E+03  0.11253747127E+04  0.15294330000E+03 0.  0.
<mgrwt>
<rscale>  0 0.11970106E+04</rscale>
<asrwt>0</asrwt>
<pdfrwt beam="1">  1        1 0.56377705E+00 0.12440185E+04</pdfrwt>
<pdfrwt beam="2">  1       -1 0.13236594E+00 0.12440185E+04</pdfrwt>
<totfact> 0.89129739E-02</totfact>
</mgrwt>
</event>
<event>
 4    5  0.7176259E-008  0.7113149E+03  0.7818608E-02  0.9953150E-01
          1   -1    0    0  501    0  0.00000000000E+00  0.00000000000E+00  0.71667778122E+03  0.71667778123E+03  0.50400000000E-02 0. -1.
         -1   -1    0    0    0  501 -0.00000000000E+00 -0.00000000000E+00 -0.89420511452E+03  0.89420511453E+03  0.50400000000E-02 0.  1.
    8880023    1    1    2    0    0  0.76390435106E+02 -0.25753280078E+03  0.49778115016E+03  0.86819060221E+03  0.65864270000E+03 0. -1.
    8880022    1    1    2    0    0 -0.76390435106E+02  0.25753280078E+03 -0.67530848346E+03  0.74269229355E+03  0.15294330000E+03 0.  0.
<mgrwt>
<rscale>  0 0.57753116E+03</rscale>
<asrwt>0</asrwt>
<pdfrwt beam="1">  1        1 0.11025812E+00 0.71131487E+03</pdfrwt>
<pdfrwt beam="2">  1       -1 0.13757002E+00 0.71131487E+03</pdfrwt>
<totfact> 0.11933261E+01</totfact>
</mgrwt>
</event>
<event>
 4    5  0.7176259E-008  0.1033336E+04  0.7818608E-02  0.9339188E-01
         -1   -1    0    0    0  501 -0.00000000000E+00  0.00000000000E+00  0.13836426935E+04  0.13836426935E+04  0.50400000000E-02 0.  1.
          1   -1    0    0  501    0  0.00000000000E+00 -0.00000000000E+00 -0.86915296921E+03  0.86915296922E+03  0.50400000000E-02 0. -1.
    8880023    1    1    2    0    0  0.79620335025E+03  0.57046039834E+01 -0.32741264193E+03  0.10839656645E+04  0.65864270000E+03 0.  0.
    8880022    1    1    2    0    0 -0.79620335025E+03 -0.57046039834E+01  0.84190236620E+03  0.11688299982E+04  0.15294330000E+03 0.  0.
<mgrwt>
<rscale>  0 0.97253847E+03</rscale>
<asrwt>0</asrwt>
<pdfrwt beam="1">  1        1 0.13371584E+00 0.10333356E+04</pdfrwt>
<pdfrwt beam="2">  1       -1 0.21286811E+00 0.10333356E+04</pdfrwt>
<totfact> 0.23739945E+00</totfact>
</mgrwt>
</event>
<event>
 4    5  0.7176259E-008  0.1645702E+04  0.7818608E-02  0.8813063E-01
         -1   -1    0    0    0  501 -0.00000000000E+00  0.00000000000E+00  0.10966251255E+04  0.10966251255E+04  0.50400000000E-02 0.  1.
          1   -1    0    0  501    0  0.00000000000E+00 -0.00000000000E+00 -0.29140819374E+04  0.29140819374E+04  0.50400000000E-02 0. -1.
    8880023    1    1    2    0    0 -0.54166334142E+03  0.14075244133E+04 -0.21531145759E+01  0.16457031906E+04  0.65864270000E+03 0.  0.
    8880022    1    1    2    0    0  0.54166334142E+03 -0.14075244133E+04 -0.18153036973E+04  0.23650038723E+04  0.15294330000E+03 0.  0.
<mgrwt>
<rscale>  0 0.16122416E+04</rscale>
<asrwt>0</asrwt>
<pdfrwt beam="1">  1        1 0.44832030E+00 0.16457018E+04</pdfrwt>
<pdfrwt beam="2">  1       -1 0.16871156E+00 0.16457018E+04</pdfrwt>
<totfact> 0.16198336E-01</totfact>
</mgrwt>
</event>
<event>
 4    5  0.7176259E-008  0.6784860E+03  0.7818608E-02  0.1010193E+00
          1   -1    0    0  501    0  0.00000000000E+00  0.00000000000E+00  0.45091572348E+03  0.45091572351E+03  0.50400000000E-02 0. -1.
         -1   -1    0    0    0  501 -0.00000000000E+00 -0.00000000000E+00 -0.10916840688E+04  0.10916840688E+04  0.50400000000E-02 0.  1.
    8880023    1    1    2    0    0  0.13111566982E+03 -0.96652469121E+02  0.17177685535E+03  0.69989321540E+03  0.65864270000E+03 0. -1.
    8880022    1    1    2    0    0 -0.13111566982E+03  0.96652469121E+02 -0.81254520069E+03  0.84270657695E+03  0.15294330000E+03 0.  0.
<mgrwt>
<rscale>  0 0.51397863E+03</rscale>
<asrwt>0</asrwt>
<pdfrwt beam="1">  1        1 0.69371650E-01 0.67848598E+03</pdfrwt>
<pdfrwt beam="2">  1       -1 0.16795139E+00 0.67848598E+03</pdfrwt>
<totfact> 0.13499371E+01</totfact>
</mgrwt>
</event>
<event>
 4    5  0.7176259E-008  0.7067677E+03  0.7818608E-02  0.9970205E-01
          1   -1    0    0  501    0  0.00000000000E+00  0.00000000000E+00  0.15174274205E+04  0.15174274206E+04  0.50400000000E-02 0. -1.
         -1   -1    0    0    0  501 -0.00000000000E+00 -0.00000000000E+00 -0.29561041889E+03  0.29561041894E+03  0.50400000000E-02 0.  1.
    8880023    1    1    2    0    0 -0.16825747983E+03  0.19339028980E+03  0.13212551718E+04  0.14984110981E+04  0.65864270000E+03 0. -1.
    8880022    1    1    2    0    0  0.16825747983E+03 -0.19339028980E+03 -0.99438170116E+02  0.31462674139E+03  0.15294330000E+03 0.  0.
<mgrwt>
<rscale>  0 0.56976199E+03</rscale>
<asrwt>0</asrwt>
<pdfrwt beam="1">  1        1 0.23345037E+00 0.70676771E+03</pdfrwt>
<pdfrwt beam="2">  1       -1 0.45478526E-01 0.70676771E+03</pdfrwt>
<totfact> 0.31686004E+01</totfact>
</mgrwt>
</event>
<event>
 4    5  0.7176259E-008  0.8497478E+03  0.7818608E-02  0.9612067E-01
          1   -1    0    0  501    0  0.00000000000E+00  0.00000000000E+00  0.73353917750E+03  0.73353917752E+03  0.50400000000E-02 0. -1.
         -1   -1    0    0    0  501 -0.00000000000E+00 -0.00000000000E+00 -0.16177144855E+04  0.16177144855E+04  0.50400000000E-02 0.  1.
    8880023    1    1    2    0    0  0.44024376706E+03 -0.30732162062E+03  0.40875543145E+03  0.94294875892E+03  0.65864270000E+03 0.  0.
    8880022    1    1    2    0    0 -0.44024376706E+03  0.30732162062E+03 -0.12929307395E+04  0.14083049041E+04  0.15294330000E+03 0.  0.
<mgrwt>
<rscale>  0 0.76502640E+03</rscale>
<asrwt>0</asrwt>
<pdfrwt beam="1">  1        1 0.11285218E+00 0.84974782E+03</pdfrwt>
<pdfrwt beam="2">  1       -1 0.24887915E+00 0.84974782E+03</pdfrwt>
<totfact> 0.18507006E+00</totfact>
</mgrwt>
</event>
<event>
 4    5  0.7176259E-008  0.7723817E+03  0.7818608E-02  0.9774047E-01
          1   -1    0    0  501    0  0.00000000000E+00  0.00000000000E+00  0.47056933491E+03  0.47056933494E+03  0.50400000000E-02 0. -1.
         -1   -1    0    0    0  501 -0.00000000000E+00 -0.00000000000E+00 -0.88616040351E+03  0.88616040352E+03  0.50400000000E-02 0.  1.
    8880023    1    1    2    0    0  0.10276948816E+03 -0.39013040370E+03 -0.21963212939E+02  0.77269391648E+03  0.65864270000E+03 0.  0.
    8880022    1    1    2    0    0 -0.10276948816E+03  0.39013040370E+03 -0.39362785566E+03  0.58403582198E+03  0.15294330000E+03 0.  0.
<mgrwt>
<rscale>  0 0.66774141E+03</rscale>
<asrwt>0</asrwt>
<pdfrwt beam="1">  1        1 0.72395282E-01 0.77238171E+03</pdfrwt>
<pdfrwt beam="2">  1       -1 0.13633237E+00 0.77238171E+03</pdfrwt>
<totfact> 0.22137985E+01</totfact>
</mgrwt>
</event>
<event>
 4    5  0.7176259E-008  0.6612585E+03  0.7818608E-02  0.1022903E+00
         -1   -1    0    0    0  501 -0.00000000000E+00  0.00000000000E+00  0.11975879945E+04  0.11975879945E+04  0.50400000000E-02 0.  1.
          1   -1    0    0  501    0  0.00000000000E+00 -0.00000000000E+00 -0.94737638454E+03  0.94737638456E+03  0.50400000000E-02 0. -1.
    8880023    1    1    2    0    0 -0.57565778872E+02 -0.11778082619E+02 -0.82502209400E+03  0.10573193482E+04  0.65864270000E+03 0. -1.
    8880022    1    1    2    0    0  0.57565778872E+02  0.11778082619E+02  0.10752337040E+04  0.10876450309E+04  0.15294330000E+03 0.  0.
<mgrwt>
<rscale>  0 0.46653553E+03</rscale>
<asrwt>0</asrwt>
<pdfrwt beam="1">  1        1 0.14575021E+00 0.66125846E+03</pdfrwt>
<pdfrwt beam="2">  1       -1 0.18424431E+00 0.66125846E+03</pdfrwt>
<totfact> 0.34122277E+00</totfact>
</mgrwt>
</event>
<event>
 4    5  0.7176259E-008  0.7828705E+03  0.7818608E-02  0.9749137E-01
         -1   -1    0    0    0  501 -0.00000000000E+00  0.00000000000E+00  0.36704878540E+03  0.36704878544E+03  0.50400000000E-02 0.  1.
          1   -1    0    0  501    0  0.00000000000E+00 -0.00000000000E+00 -0.14614447858E+04  0.14614447858E+04  0.50400000000E-02 0. -1.
    8880023    1    1    2    0    0  0.35053418582E+03  0.23706921436E+03 -0.11326855165E+04  0.13769033057E+04  0.65864270000E+03 0.  0.
    8880022    1    1    2    0    0 -0.35053418582E+03 -0.23706921436E+03  0.38289516103E+02  0.45159026549E+03  0.15294330000E+03 0.  0.
<mgrwt>
<rscale>  0 0.68165074E+03</rscale>
<asrwt>0</asrwt>
<pdfrwt beam="1">  1        1 0.22483766E+00 0.78287051E+03</pdfrwt>
<pdfrwt beam="2">  1       -1 0.56469045E-01 0.78287051E+03</pdfrwt>
<totfact> 0.22726375E+01</totfact>
</mgrwt>
</event>
<event>
 4    5  0.7713570E-008  0.1073233E+04  0.7818608E-02  0.9291460E-01
         -1   -1    0    0    0  501 -0.00000000000E+00  0.00000000000E+00  0.84873375654E+03  0.84873375656E+03  0.50400000000E-02 0.  1.
          1   -1    0    0  501    0  0.00000000000E+00 -0.00000000000E+00 -0.27111912160E+04  0.27111912160E+04  0.50400000000E-02 0. -1.
    8880023    1    1    2    0    0  0.20036460818E+03 -0.82333003736E+03 -0.23406711277E+04  0.25749892934E+04  0.65864270000E+03 0.  0.
    8880022    1    1    2    0    0 -0.20036460818E+03  0.82333003736E+03  0.47821366825E+03  0.98493567919E+03  0.15294330000E+03 0.  0.
<mgrwt>
<rscale>  0 0.10157287E+04</rscale>
<asrwt>0</asrwt>
<pdfrwt beam="1">  1        1 0.41710634E+00 0.10732327E+04</pdfrwt>
<pdfrwt beam="2">  1       -1 0.13057443E+00 0.10732327E+04</pdfrwt>
<totfact> 0.48789673E-01</totfact>
</mgrwt>
</event>
<event>
 4    5  0.7176259E-008  0.2112242E+04  0.7818608E-02  0.8567029E-01
         -1   -1    0    0    0  501 -0.00000000000E+00  0.00000000000E+00  0.21782762692E+04  0.21782762692E+04  0.50400000000E-02 0.  1.
          1   -1    0    0  501    0  0.00000000000E+00 -0.00000000000E+00 -0.23143665799E+04  0.23143665799E+04  0.50400000000E-02 0. -1.
    8880023    1    1    2    0    0 -0.14347586603E+04  0.14032895877E+04 -0.95700311789E+03  0.23189263150E+04  0.65864270000E+03 0.  1.
    8880022    1    1    2    0    0  0.14347586603E+04 -0.14032895877E+04  0.82091280722E+03  0.21737165341E+04  0.15294330000E+03 0.  0.
<mgrwt>
<rscale>  0 0.20869157E+04</rscale>
<asrwt>0</asrwt>
<pdfrwt beam="1">  1        1 0.35605640E+00 0.21122415E+04</pdfrwt>
<pdfrwt beam="2">  1       -1 0.33511943E+00 0.21122415E+04</pdfrwt>
<totfact> 0.31098099E-02</totfact>
</mgrwt>
</event>
<event>
 4    5  0.7176259E-008  0.1362854E+04  0.7818608E-02  0.9013097E-01
         -1   -1    0    0    0  501 -0.00000000000E+00  0.00000000000E+00  0.10975132312E+04  0.10975132312E+04  0.50400000000E-02 0.  1.
          1   -1    0    0  501    0  0.00000000000E+00 -0.00000000000E+00 -0.19084939551E+04  0.19084939551E+04  0.50400000000E-02 0. -1.
    8880023    1    1    2    0    0  0.11560891674E+04 -0.29499153558E+03 -0.11200370547E+04  0.17640451749E+04  0.65864270000E+03 0.  0.
    8880022    1    1    2    0    0 -0.11560891674E+04  0.29499153558E+03  0.30905633083E+03  0.12419620113E+04  0.15294330000E+03 0.  0.
<mgrwt>
<rscale>  0 0.13209730E+04</rscale>
<asrwt>0</asrwt>
<pdfrwt beam="1">  1        1 0.29361445E+00 0.13628545E+04</pdfrwt>
<pdfrwt beam="2">  1       -1 0.16884819E+00 0.13628545E+04</pdfrwt>
<totfact> 0.83023552E-01</totfact>
</mgrwt>
</event>
<event>
 4    5  0.7176259E-008  0.1345974E+04  0.7818608E-02  0.9026842E-01
         -1   -1    0    0    0  501 -0.00000000000E+00  0.00000000000E+00  0.11585089247E+04  0.11585089247E+04  0.50400000000E-02 0.  1.
          1   -1    0    0  501    0  0.00000000000E+00 -0.00000000000E+00 -0.16972000119E+04  0.16972000119E+04  0.50400000000E-02 0. -1.
    8880023    1    1    2    0    0  0.54702597103E+03 -0.10385558876E+04 -0.89871503533E+03  0.16184358701E+04  0.65864270000E+03 0.  0.
    8880022    1    1    2    0    0 -0.54702597103E+03  0.10385558876E+04  0.36002394808E+03  0.12372730664E+04  0.15294330000E+03 0.  0.
<mgrwt>
<rscale>  0 0.13034401E+04</rscale>
<asrwt>0</asrwt>
<pdfrwt beam="1">  1        1 0.26110769E+00 0.13459740E+04</pdfrwt>
<pdfrwt beam="2">  1       -1 0.17823214E+00 0.13459740E+04</pdfrwt>
<totfact> 0.98863334E-01</totfact>
</mgrwt>
</event>
<event>
 4    5  0.7176259E-008  0.6595353E+03  0.7818608E-02  0.1024638E+00
         -1   -1    0    0    0  501 -0.00000000000E+00  0.00000000000E+00  0.16754515374E+03  0.16754515382E+03  0.50400000000E-02 0.  1.
          1   -1    0    0  501    0  0.00000000000E+00 -0.00000000000E+00 -0.13342243626E+04  0.13342243626E+04  0.50400000000E-02 0. -1.
    8880023    1    1    2    0    0 -0.26853824921E+02 -0.21342318255E+02 -0.11721163350E+04  0.13449325379E+04  0.65864270000E+03 0. -1.
    8880022    1    1    2    0    0  0.26853824921E+02  0.21342318255E+02  0.54371261972E+01  0.15683697848E+03  0.15294330000E+03 0.  0.
<mgrwt>
<rscale>  0 0.46049548E+03</rscale>
<asrwt>0</asrwt>
<pdfrwt beam="1">  1        1 0.20526528E+00 0.65953531E+03</pdfrwt>
<pdfrwt beam="2">  1       -1 0.25776178E-01 0.65953531E+03</pdfrwt>
<totfact> 0.11682899E+02</totfact>
</mgrwt>
</event>
<event>
 4    5  0.7176259E-008  0.8508959E+03  0.7818608E-02  0.9609968E-01
          1   -1    0    0  501    0  0.00000000000E+00  0.00000000000E+00  0.85909540407E+03  0.85909540408E+03  0.50400000000E-02 0. -1.
         -1   -1    0    0    0  501 -0.00000000000E+00 -0.00000000000E+00 -0.29373443200E+04  0.29373443200E+04  0.50400000000E-02 0.  1.
    8880023    1    1    2    0    0 -0.47277179447E+03  0.25826415285E+03  0.61225433127E+03  0.10482743509E+04  0.65864270000E+03 0.  0.
    8880022    1    1    2    0    0  0.47277179447E+03 -0.25826415285E+03 -0.26905032472E+04  0.27481653732E+04  0.15294330000E+03 0.  0.
<mgrwt>
<rscale>  0 0.76639950E+03</rscale>
<asrwt>0</asrwt>
<pdfrwt beam="1">  1        1 0.13216852E+00 0.85089585E+03</pdfrwt>
<pdfrwt beam="2">  1       -1 0.45189912E+00 0.85089585E+03</pdfrwt>
<totfact> 0.65340593E-02</totfact>
</mgrwt>
</event>
<event>
 4    5  0.7176259E-008  0.1183444E+04  0.7818608E-02  0.9173386E-01
          1   -1    0    0  501    0  0.00000000000E+00  0.00000000000E+00  0.11594761323E+04  0.11594761323E+04  0.50400000000E-02 0. -1.
         -1   -1    0    0    0  501 -0.00000000000E+00 -0.00000000000E+00 -0.22556410261E+04  0.22556410261E+04  0.50400000000E-02 0.  1.
    8880023    1    1    2    0    0  0.81104796250E+03 -0.55581497670E+03  0.69042383419E+03  0.13701183755E+04  0.65864270000E+03 0.  0.
    8880022    1    1    2    0    0 -0.81104796250E+03  0.55581497670E+03 -0.17865887280E+04  0.20449987829E+04  0.15294330000E+03 0.  0.
<mgrwt>
<rscale>  0 0.11332396E+04</rscale>
<asrwt>0</asrwt>
<pdfrwt beam="1">  1        1 0.17838094E+00 0.11834438E+04</pdfrwt>
<pdfrwt beam="2">  1       -1 0.34702170E+00 0.11834438E+04</pdfrwt>
<totfact> 0.18435560E-01</totfact>
</mgrwt>
</event>
<event>
 4    5  0.7176259E-008  0.1374523E+04  0.7818608E-02  0.9003736E-01
          1   -1    0    0  501    0  0.00000000000E+00  0.00000000000E+00  0.16466061909E+04  0.16466061909E+04  0.50400000000E-02 0. -1.
         -1   -1    0    0    0  501 -0.00000000000E+00 -0.00000000000E+00 -0.16371500441E+04  0.16371500441E+04  0.50400000000E-02 0.  1.
    8880023    1    1    2    0    0  0.10485230764E+04 -0.59674313255E+03 -0.10028375678E+04  0.17014688953E+04  0.65864270000E+03 0.  0.
    8880022    1    1    2    0    0 -0.10485230764E+04  0.59674313255E+03  0.10122937146E+04  0.15822873397E+04  0.15294330000E+03 0.  0.
<mgrwt>
<rscale>  0 0.13330798E+04</rscale>
<asrwt>0</asrwt>
<pdfrwt beam="1">  1        1 0.25332403E+00 0.13745229E+04</pdfrwt>
<pdfrwt beam="2">  1       -1 0.25186924E+00 0.13745229E+04</pdfrwt>
<totfact> 0.33696408E-01</totfact>
</mgrwt>
</event>
<event>
 4    5  0.7176259E-008  0.1085220E+04  0.7818608E-02  0.9277693E-01
         -1   -1    0    0    0  501 -0.00000000000E+00  0.00000000000E+00  0.62331629940E+03  0.62331629943E+03  0.50400000000E-02 0.  1.
          1   -1    0    0  501    0  0.00000000000E+00 -0.00000000000E+00 -0.17376401460E+04  0.17376401460E+04  0.50400000000E-02 0. -1.
    8880023    1    1    2    0    0 -0.53822531175E+03 -0.67394801320E+03 -0.10034060323E+04  0.14780143040E+04  0.65864270000E+03 0. -1.
    8880022    1    1    2    0    0  0.53822531175E+03  0.67394801320E+03 -0.11091781429E+03  0.88294214151E+03  0.15294330000E+03 0.  0.
<mgrwt>
<rscale>  0 0.10286269E+04</rscale>
<asrwt>0</asrwt>
<pdfrwt beam="1">  1        1 0.26732925E+00 0.10852201E+04</pdfrwt>
<pdfrwt beam="2">  1       -1 0.95894816E-01 0.10852201E+04</pdfrwt>
<totfact> 0.46989327E+00</totfact>
</mgrwt>
</event>
<event>
 4    5  0.7176259E-008  0.7190196E+03  0.7818608E-02  0.9925917E-01
          1   -1    0    0  501    0  0.00000000000E+00  0.00000000000E+00  0.11499093072E+03  0.11499093083E+03  0.50400000000E-02 0. -1.
         -1   -1    0    0    0  501 -0.00000000000E+00 -0.00000000000E+00 -0.31888111049E+04  0.31888111049E+04  0.50400000000E-02 0.  1.
    8880023    1    1    2    0    0  0.16207006115E+03  0.23856287799E+03 -0.11781403593E+04  0.13802187739E+04  0.65864270000E+03 0. -1.
    8880022    1    1    2    0    0 -0.16207006115E+03 -0.23856287799E+03 -0.18956798148E+04  0.19235832618E+04  0.15294330000E+03 0.  0.
<mgrwt>
<rscale>  0 0.59021496E+03</rscale>
<asrwt>0</asrwt>
<pdfrwt beam="1">  1        1 0.17690915E-01 0.71901958E+03</pdfrwt>
<pdfrwt beam="2">  1       -1 0.49058626E+00 0.71901958E+03</pdfrwt>
<totfact> 0.56495187E-01</totfact>
</mgrwt>
</event>
<event>
 4    5  0.7176259E-008  0.1226685E+04  0.7818608E-02  0.9131609E-01
          1   -1    0    0  501    0  0.00000000000E+00  0.00000000000E+00  0.35714459169E+04  0.35714459169E+04  0.50400000000E-02 0. -1.
         -1   -1    0    0    0  501 -0.00000000000E+00 -0.00000000000E+00 -0.46459130255E+03  0.46459130258E+03  0.50400000000E-02 0.  1.
    8880023    1    1    2    0    0  0.72892470469E+02  0.10322951551E+04  0.25973463208E+04  0.28724492539E+04  0.65864270000E+03 0. -1.
    8880022    1    1    2    0    0 -0.72892470469E+02 -0.10322951551E+04  0.50950829351E+03  0.11635879656E+04  0.15294330000E+03 0.  0.
<mgrwt>
<rscale>  0 0.11788100E+04</rscale>
<asrwt>0</asrwt>
<pdfrwt beam="1">  1        1 0.54945323E+00 0.12266853E+04</pdfrwt>
<pdfrwt beam="2">  1       -1 0.71475583E-01 0.12266853E+04</pdfrwt>
<totfact> 0.43522410E-01</totfact>
</mgrwt>
</event>
<event>
 4    5  0.7176259E-008  0.1064386E+04  0.7818608E-02  0.9301784E-01
          1   -1    0    0  501    0  0.00000000000E+00  0.00000000000E+00  0.93004425563E+03  0.93004425564E+03  0.50400000000E-02 0. -1.
         -1   -1    0    0    0  501 -0.00000000000E+00 -0.00000000000E+00 -0.12623585780E+04  0.12623585780E+04  0.50400000000E-02 0.  1.
    8880023    1    1    2    0    0  0.75868935100E+03 -0.35142360218E+03  0.33050759949E+03  0.11145194297E+04  0.65864270000E+03 0.  0.
    8880022    1    1    2    0    0 -0.75868935100E+03  0.35142360218E+03 -0.66282192185E+03  0.10778834040E+04  0.15294330000E+03 0.  0.
<mgrwt>
<rscale>  0 0.10061881E+04</rscale>
<asrwt>0</asrwt>
<pdfrwt beam="1">  1        1 0.14308373E+00 0.10643863E+04</pdfrwt>
<pdfrwt beam="2">  1       -1 0.19420901E+00 0.10643863E+04</pdfrwt>
<totfact> 0.28285221E+00</totfact>
</mgrwt>
</event>
<event>
 4    5  0.7176259E-008  0.1414859E+04  0.7818608E-02  0.8972222E-01
         -1   -1    0    0    0  501 -0.00000000000E+00  0.00000000000E+00  0.69084011269E+03  0.69084011270E+03  0.50400000000E-02 0.  1.
          1   -1    0    0  501    0  0.00000000000E+00 -0.00000000000E+00 -0.29939872787E+04  0.29939872787E+04  0.50400000000E-02 0. -1.
    8880023    1    1    2    0    0  0.68061130679E+03 -0.10510869099E+04 -0.18827425874E+04  0.23551104644E+04  0.65864270000E+03 0.  0.
    8880022    1    1    2    0    0 -0.68061130679E+03  0.10510869099E+04 -0.42040457863E+03  0.13297169270E+04  0.15294330000E+03 0.  0.
<mgrwt>
<rscale>  0 0.13748569E+04</rscale>
<asrwt>0</asrwt>
<pdfrwt beam="1">  1        1 0.46061342E+00 0.14148589E+04</pdfrwt>
<pdfrwt beam="2">  1       -1 0.10628310E+00 0.14148589E+04</pdfrwt>
<totfact> 0.48351896E-01</totfact>
</mgrwt>
</event>
<event>
 4    5  0.7176259E-008  0.1282534E+04  0.7818608E-02  0.9080792E-01
          1   -1    0    0  501    0  0.00000000000E+00  0.00000000000E+00  0.18677932964E+04  0.18677932964E+04  0.50400000000E-02 0. -1.
         -1   -1    0    0    0  501 -0.00000000000E+00 -0.00000000000E+00 -0.21739601521E+04  0.21739601521E+04  0.50400000000E-02 0.  1.
    8880023    1    1    2    0    0 -0.12416739194E+03  0.10934646051E+04 -0.17813156182E+04  0.21949892760E+04  0.65864270000E+03 0.  1.
    8880022    1    1    2    0    0  0.12416739194E+03 -0.10934646051E+04  0.14751487626E+04  0.18467641724E+04  0.15294330000E+03 0.  0.
<mgrwt>
<rscale>  0 0.12373337E+04</rscale>
<asrwt>0</asrwt>
<pdfrwt beam="1">  1        1 0.28735281E+00 0.12825337E+04</pdfrwt>
<pdfrwt beam="2">  1       -1 0.33445541E+00 0.12825337E+04</pdfrwt>
<totfact> 0.70268926E-02</totfact>
</mgrwt>
</event>
<event>
 4    5  0.7176259E-008  0.7909531E+03  0.7818608E-02  0.9730710E-01
         -1   -1    0    0    0  501 -0.00000000000E+00  0.00000000000E+00  0.93731323998E+03  0.93731323999E+03  0.50400000000E-02 0.  1.
          1   -1    0    0  501    0  0.00000000000E+00 -0.00000000000E+00 -0.80460507167E+03  0.80460507169E+03  0.50400000000E-02 0. -1.
    8880023    1    1    2    0    0 -0.43793916645E+03  0.24379877915E+01 -0.51602255650E+03  0.94439723759E+03  0.65864270000E+03 0. -1.
    8880022    1    1    2    0    0  0.43793916645E+03 -0.24379877915E+01  0.64873072481E+03  0.79752107409E+03  0.15294330000E+03 0.  0.
<mgrwt>
<rscale>  0 0.69217419E+03</rscale>
<asrwt>0</asrwt>
<pdfrwt beam="1">  1        1 0.12378539E+00 0.79095314E+03</pdfrwt>
<pdfrwt beam="2">  1       -1 0.14420204E+00 0.79095314E+03</pdfrwt>
<totfact> 0.87176762E+00</totfact>
</mgrwt>
</event>
<event>
 4    5  0.7176259E-008  0.7552576E+03  0.7818608E-02  0.9817543E-01
         -1   -1    0    0    0  501 -0.00000000000E+00  0.00000000000E+00  0.47402257593E+03  0.47402257596E+03  0.50400000000E-02 0.  1.
          1   -1    0    0  501    0  0.00000000000E+00 -0.00000000000E+00 -0.35776705838E+04  0.35776705838E+04  0.50400000000E-02 0. -1.
    8880023    1    1    2    0    0 -0.48574667743E+02 -0.36639366227E+03 -0.34444017840E+04  0.35262327872E+04  0.65864270000E+03 0. -1.
    8880022    1    1    2    0    0  0.48574667743E+02  0.36639366227E+03  0.34075377613E+03  0.52546037249E+03  0.15294330000E+03 0.  0.
<mgrwt>
<rscale>  0 0.64429503E+03</rscale>
<asrwt>0</asrwt>
<pdfrwt beam="1">  1        1 0.55041084E+00 0.75525759E+03</pdfrwt>
<pdfrwt beam="2">  1       -1 0.72926553E-01 0.75525759E+03</pdfrwt>
<totfact> 0.45089418E-01</totfact>
</mgrwt>
</event>
<event>
 4    5  0.7176259E-008  0.9072480E+03  0.7818608E-02  0.9514495E-01
         -1   -1    0    0    0  501 -0.00000000000E+00  0.00000000000E+00  0.22029130316E+04  0.22029130317E+04  0.50400000000E-02 0.  1.
          1   -1    0    0  501    0  0.00000000000E+00 -0.00000000000E+00 -0.18483268328E+04  0.18483268328E+04  0.50400000000E-02 0. -1.
    8880023    1    1    2    0    0 -0.61489543115E+03  0.10579382784E+03 -0.16845409027E+04  0.19133157043E+04  0.65864270000E+03 0.  0.
    8880022    1    1    2    0    0  0.61489543115E+03 -0.10579382784E+03  0.20391271015E+04  0.21379241601E+04  0.15294330000E+03 0.  0.
<mgrwt>
<rscale>  0 0.83223551E+03</rscale>
<asrwt>0</asrwt>
<pdfrwt beam="1">  1        1 0.28435797E+00 0.90724800E+03</pdfrwt>
<pdfrwt beam="2">  1       -1 0.33890970E+00 0.90724800E+03</pdfrwt>
<totfact> 0.72744785E-02</totfact>
</mgrwt>
</event>
<event>
 4    5  0.7176259E-008  0.6847243E+03  0.7818608E-02  0.1006768E+00
         -1   -1    0    0    0  501 -0.00000000000E+00  0.00000000000E+00  0.23818452352E+03  0.23818452357E+03  0.50400000000E-02 0.  1.
          1   -1    0    0  501    0  0.00000000000E+00 -0.00000000000E+00 -0.14776913303E+04  0.14776913303E+04  0.50400000000E-02 0. -1.
    8880023    1    1    2    0    0  0.26869223564E+02 -0.18524377301E+03 -0.12976838299E+04  0.14672527864E+04  0.65864270000E+03 0. -1.
    8880022    1    1    2    0    0 -0.26869223564E+02  0.18524377301E+03  0.58177023151E+02  0.24862306742E+03  0.15294330000E+03 0.  0.
<mgrwt>
<rscale>  0 0.52779498E+03</rscale>
<asrwt>0</asrwt>
<pdfrwt beam="1">  1        1 0.22733712E+00 0.68472434E+03</pdfrwt>
<pdfrwt beam="2">  1       -1 0.36643774E-01 0.68472434E+03</pdfrwt>
<totfact> 0.50150060E+01</totfact>
</mgrwt>
</event>
<event>
 4    5  0.7176259E-008  0.7098613E+03  0.7818608E-02  0.9958516E-01
          1   -1    0    0  501    0  0.00000000000E+00  0.00000000000E+00  0.44913201953E+03  0.44913201956E+03  0.50400000000E-02 0. -1.
         -1   -1    0    0    0  501 -0.00000000000E+00 -0.00000000000E+00 -0.87701479451E+03  0.87701479452E+03  0.50400000000E-02 0.  1.
    8880023    1    1    2    0    0  0.30511386249E+02 -0.26298655719E+03  0.99242939368E+02  0.71676512278E+03  0.65864270000E+03 0. -1.
    8880022    1    1    2    0    0 -0.30511386249E+02  0.26298655719E+03 -0.52712571435E+03  0.60938169130E+03  0.15294330000E+03 0.  0.
<mgrwt>
<rscale>  0 0.57507250E+03</rscale>
<asrwt>0</asrwt>
<pdfrwt beam="1">  1        1 0.69097234E-01 0.70986131E+03</pdfrwt>
<pdfrwt beam="2">  1       -1 0.13492535E+00 0.70986131E+03</pdfrwt>
<totfact> 0.24369793E+01</totfact>
</mgrwt>
</event>
<event>
 4    5  0.7176259E-008  0.9574938E+03  0.7818608E-02  0.9439413E-01
          1   -1    0    0  501    0  0.00000000000E+00  0.00000000000E+00  0.22660549072E+04  0.22660549073E+04  0.50400000000E-02 0. -1.
         -1   -1    0    0    0  501 -0.00000000000E+00 -0.00000000000E+00 -0.50652054414E+03  0.50652054416E+03  0.50400000000E-02 0.  1.
    8880023    1    1    2    0    0  0.76644277017E+02  0.69073139949E+03  0.18219664694E+04  0.20582410533E+04  0.65864270000E+03 0.  0.
    8880022    1    1    2    0    0 -0.76644277017E+02 -0.69073139949E+03 -0.62432106326E+02  0.71433439813E+03  0.15294330000E+03 0.  0.
<mgrwt>
<rscale>  0 0.88901914E+03</rscale>
<asrwt>0</asrwt>
<pdfrwt beam="1">  1        1 0.34862383E+00 0.95749382E+03</pdfrwt>
<pdfrwt beam="2">  1       -1 0.77926238E-01 0.95749382E+03</pdfrwt>
<totfact> 0.33075644E+00</totfact>
</mgrwt>
</event>
<event>
 4    5  0.7176259E-008  0.6633445E+03  0.7818608E-02  0.1020965E+00
         -1   -1    0    0    0  501 -0.00000000000E+00  0.00000000000E+00  0.41694378052E+03  0.41694378055E+03  0.50400000000E-02 0.  1.
          1   -1    0    0  501    0  0.00000000000E+00 -0.00000000000E+00 -0.13917400785E+04  0.13917400785E+04  0.50400000000E-02 0. -1.
    8880023    1    1    2    0    0  0.70080567964E+02 -0.36116627170E+02 -0.12894409707E+04  0.14500634193E+04  0.65864270000E+03 0. -1.
    8880022    1    1    2    0    0 -0.70080567964E+02  0.36116627170E+02  0.31464467270E+03  0.35862043979E+03  0.15294330000E+03 0.  0.
<mgrwt>
<rscale>  0 0.47340112E+03</rscale>
<asrwt>0</asrwt>
<pdfrwt beam="1">  1        1 0.21411386E+00 0.66334448E+03</pdfrwt>
<pdfrwt beam="2">  1       -1 0.64145198E-01 0.66334448E+03</pdfrwt>
<totfact> 0.20069861E+01</totfact>
</mgrwt>
</event>
<event>
 4    5  0.7506976E-008  0.7317555E+03  0.7818608E-02  0.9884648E-01
         -1   -1    0    0    0  501 -0.00000000000E+00  0.00000000000E+00  0.10364269573E+04  0.10364269574E+04  0.50400000000E-02 0.  1.
          1   -1    0    0  501    0  0.00000000000E+00 -0.00000000000E+00 -0.18206941982E+04  0.18206941982E+04  0.50400000000E-02 0. -1.
    8880023    1    1    2    0    0  0.29904534191E+03 -0.11057934118E+03 -0.17133209641E+04  0.18630445082E+04  0.65864270000E+03 0.  0.
    8880022    1    1    2    0    0 -0.29904534191E+03  0.11057934118E+03  0.92905372323E+03  0.99407664738E+03  0.15294330000E+03 0.  1.
<mgrwt>
<rscale>  0 0.61011106E+03</rscale>
<asrwt>0</asrwt>
<pdfrwt beam="1">  1        1 0.28010680E+00 0.73175550E+03</pdfrwt>
<pdfrwt beam="2">  1       -1 0.15945030E+00 0.73175550E+03</pdfrwt>
<totfact> 0.12320681E+00</totfact>
</mgrwt>
</event>
<event>
 4    5  0.7176259E-008  0.8356247E+03  0.7818608E-02  0.9638486E-01
          1   -1    0    0  501    0  0.00000000000E+00  0.00000000000E+00  0.10671130630E+04  0.10671130630E+04  0.50400000000E-02 0. -1.
         -1   -1    0    0    0  501 -0.00000000000E+00 -0.00000000000E+00 -0.62064775596E+03  0.62064775598E+03  0.50400000000E-02 0.  1.
    8880023    1    1    2    0    0  0.40255102645E+03 -0.32001731687E+03  0.70398625446E+03  0.10926414164E+04  0.65864270000E+03 0.  0.
    8880022    1    1    2    0    0 -0.40255102645E+03  0.32001731687E+03 -0.25752094744E+03  0.59511940263E+03  0.15294330000E+03 0.  0.
<mgrwt>
<rscale>  0 0.74800455E+03</rscale>
<asrwt>0</asrwt>
<pdfrwt beam="1">  1        1 0.16417124E+00 0.83562469E+03</pdfrwt>
<pdfrwt beam="2">  1       -1 0.95484270E-01 0.83562469E+03</pdfrwt>
<totfact> 0.14506400E+01</totfact>
</mgrwt>
</event>
<event>
 4    5  0.7176259E-008  0.7124916E+03  0.7818608E-02  0.9948862E-01
          1   -1    0    0  501    0  0.00000000000E+00  0.00000000000E+00  0.29834148898E+03  0.29834148902E+03  0.50400000000E-02 0. -1.
         -1   -1    0    0    0  501 -0.00000000000E+00 -0.00000000000E+00 -0.13658585834E+04  0.13658585834E+04  0.50400000000E-02 0.  1.
    8880023    1    1    2    0    0 -0.10603158087E+03  0.25018278310E+03 -0.19655687794E+03  0.73910684859E+03  0.65864270000E+03 0. -1.
    8880022    1    1    2    0    0  0.10603158087E+03 -0.25018278310E+03 -0.87096021652E+03  0.92509322388E+03  0.15294330000E+03 0. -1.
<mgrwt>
<rscale>  0 0.57950542E+03</rscale>
<asrwt>0</asrwt>
<pdfrwt beam="1">  1        1 0.45898691E-01 0.71249163E+03</pdfrwt>
<pdfrwt beam="2">  1       -1 0.21013209E+00 0.71249163E+03</pdfrwt>
<totfact> 0.11729853E+01</totfact>
</mgrwt>
</event>
<event>
 4    5  0.7176259E-008  0.8696092E+03  0.7818608E-02  0.9576694E-01
          1   -1    0    0  501    0  0.00000000000E+00  0.00000000000E+00  0.15706106664E+04  0.15706106664E+04  0.50400000000E-02 0. -1.
         -1   -1    0    0    0  501 -0.00000000000E+00 -0.00000000000E+00 -0.42906476503E+03  0.42906476506E+03  0.50400000000E-02 0.  1.
    8880023    1    1    2    0    0  0.56376093020E+03  0.67701819097E+02  0.11109568759E+04  0.14108314248E+04  0.65864270000E+03 0. -1.
    8880022    1    1    2    0    0 -0.56376093020E+03 -0.67701819097E+02  0.30589025444E+02  0.58884400669E+03  0.15294330000E+03 0.  0.
<mgrwt>
<rscale>  0 0.78858127E+03</rscale>
<asrwt>0</asrwt>
<pdfrwt beam="1">  1        1 0.24163241E+00 0.86960918E+03</pdfrwt>
<pdfrwt beam="2">  1       -1 0.66009963E-01 0.86960918E+03</pdfrwt>
<totfact> 0.13888503E+01</totfact>
</mgrwt>
</event>
<event>
 4    5  0.7176259E-008  0.1278027E+04  0.7818608E-02  0.9084771E-01
         -1   -1    0    0    0  501 -0.00000000000E+00  0.00000000000E+00  0.92636046332E+03  0.92636046334E+03  0.50400000000E-02 0.  1.
          1   -1    0    0  501    0  0.00000000000E+00 -0.00000000000E+00 -0.27137663950E+04  0.27137663950E+04  0.50400000000E-02 0. -1.
    8880023    1    1    2    0    0 -0.52597272277E+03  0.96067493886E+03 -0.21286219912E+04  0.24828180423E+04  0.65864270000E+03 0.  0.
    8880022    1    1    2    0    0  0.52597272277E+03 -0.96067493886E+03  0.34121605961E+03  0.11573088160E+04  0.15294330000E+03 0.  0.
<mgrwt>
<rscale>  0 0.12326238E+04</rscale>
<asrwt>0</asrwt>
<pdfrwt beam="1">  1        1 0.41750252E+00 0.12780273E+04</pdfrwt>
<pdfrwt beam="2">  1       -1 0.14251700E+00 0.12780273E+04</pdfrwt>
<totfact> 0.37557642E-01</totfact>
</mgrwt>
</event>
<event>
 4    5  0.7176259E-008  0.1072907E+04  0.7818608E-02  0.9291837E-01
          1   -1    0    0  501    0  0.00000000000E+00  0.00000000000E+00  0.96797208000E+03  0.96797208002E+03  0.50400000000E-02 0. -1.
         -1   -1    0    0    0  501 -0.00000000000E+00 -0.00000000000E+00 -0.12529932624E+04  0.12529932624E+04  0.50400000000E-02 0.  1.
    8880023    1    1    2    0    0  0.42751754885E+02  0.84586766858E+03  0.37480763765E+03  0.11364905617E+04  0.65864270000E+03 0.  1.
    8880022    1    1    2    0    0 -0.42751754885E+02 -0.84586766858E+03 -0.65982882002E+03  0.10844747807E+04  0.15294330000E+03 0.  0.
<mgrwt>
<rscale>  0 0.10153781E+04</rscale>
<asrwt>0</asrwt>
<pdfrwt beam="1">  1        1 0.14891878E+00 0.10729073E+04</pdfrwt>
<pdfrwt beam="2">  1       -1 0.19276819E+00 0.10729073E+04</pdfrwt>
<totfact> 0.26963574E+00</totfact>
</mgrwt>
</event>
<event>
 4    5  0.7176259E-008  0.1526467E+04  0.7818608E-02  0.8891170E-01
          1   -1    0    0  501    0  0.00000000000E+00  0.00000000000E+00  0.24060854523E+04  0.24060854523E+04  0.50400000000E-02 0. -1.
         -1   -1    0    0    0  501 -0.00000000000E+00 -0.00000000000E+00 -0.17907415956E+04  0.17907415956E+04  0.50400000000E-02 0.  1.
    8880023    1    1    2    0    0  0.13648826600E+04 -0.18271682835E+03  0.18097432262E+04  0.23675453250E+04  0.65864270000E+03 0.  0.
    8880022    1    1    2    0    0 -0.13648826600E+04  0.18271682835E+03 -0.11943993695E+04  0.18292817229E+04  0.15294330000E+03 0.  0.
<mgrwt>
<rscale>  0 0.14899412E+04</rscale>
<asrwt>0</asrwt>
<pdfrwt beam="1">  1        1 0.37016699E+00 0.15264666E+04</pdfrwt>
<pdfrwt beam="2">  1       -1 0.27549871E+00 0.15264666E+04</pdfrwt>
<totfact> 0.70374399E-02</totfact>
</mgrwt>
</event>
<event>
 4    5  0.7176259E-008  0.7136336E+03  0.7818608E-02  0.9944747E-01
         -1   -1    0    0    0  501 -0.00000000000E+00  0.00000000000E+00  0.63866089124E+03  0.63866089126E+03  0.50400000000E-02 0.  1.
          1   -1    0    0  501    0  0.00000000000E+00 -0.00000000000E+00 -0.22839937470E+04  0.22839937471E+04  0.50400000000E-02 0. -1.
    8880023    1    1    2    0    0  0.26589356206E+03 -0.69017132703E+02 -0.21847204195E+04  0.22983203146E+04  0.65864270000E+03 0. -1.
    8880022    1    1    2    0    0 -0.26589356206E+03  0.69017132703E+02  0.53938756365E+03  0.62433432373E+03  0.15294330000E+03 0.  0.
<mgrwt>
<rscale>  0 0.58140797E+03</rscale>
<asrwt>0</asrwt>
<pdfrwt beam="1">  1        1 0.35138365E+00 0.71363363E+03</pdfrwt>
<pdfrwt beam="2">  1       -1 0.98255523E-01 0.71363363E+03</pdfrwt>
<totfact> 0.20220088E+00</totfact>
</mgrwt>
</event>
<event>
 4    5  0.7176259E-008  0.6868587E+03  0.7818608E-02  0.1005683E+00
          1   -1    0    0  501    0  0.00000000000E+00  0.00000000000E+00  0.22918109849E+04  0.22918109849E+04  0.50400000000E-02 0. -1.
         -1   -1    0    0    0  501 -0.00000000000E+00 -0.00000000000E+00 -0.21594535576E+03  0.21594535582E+03  0.50400000000E-02 0.  1.
    8880023    1    1    2    0    0  0.10554067627E+01  0.19484251483E+03  0.21436046420E+04  0.22509588595E+04  0.65864270000E+03 0.  0.
    8880022    1    1    2    0    0 -0.10554067627E+01 -0.19484251483E+03 -0.67739012919E+02  0.25679748121E+03  0.15294330000E+03 0.  1.
<mgrwt>
<rscale>  0 0.53227128E+03</rscale>
<asrwt>0</asrwt>
<pdfrwt beam="1">  1        1 0.35258630E+00 0.68685874E+03</pdfrwt>
<pdfrwt beam="2">  1       -1 0.33222363E-01 0.68685874E+03</pdfrwt>
<totfact> 0.16966174E+01</totfact>
</mgrwt>
</event>
<event>
 4    5  0.7176259E-008  0.1497689E+04  0.7818608E-02  0.8911269E-01
         -1   -1    0    0    0  501 -0.00000000000E+00  0.00000000000E+00  0.68912395123E+03  0.68912395125E+03  0.50400000000E-02 0.  1.
          1   -1    0    0  501    0  0.00000000000E+00 -0.00000000000E+00 -0.40227207129E+04  0.40227207129E+04  0.50400000000E-02 0. -1.
    8880023    1    1    2    0    0  0.11494681545E+04  0.69855967665E+03 -0.29441343932E+04  0.33031803147E+04  0.65864270000E+03 0. -1.
    8880022    1    1    2    0    0 -0.11494681545E+04 -0.69855967665E+03 -0.38946236851E+03  0.14086643495E+04  0.15294330000E+03 0.  0.
<mgrwt>
<rscale>  0 0.14603311E+04</rscale>
<asrwt>0</asrwt>
<pdfrwt beam="1">  1        1 0.61888010E+00 0.14976892E+04</pdfrwt>
<pdfrwt beam="2">  1       -1 0.10601907E+00 0.14976892E+04</pdfrwt>
<totfact> 0.73905576E-02</totfact>
</mgrwt>
</event>
<event>
 4    5  0.7176259E-008  0.1087593E+04  0.7818608E-02  0.9274997E-01
         -1   -1    0    0    0  501 -0.00000000000E+00  0.00000000000E+00  0.14292910462E+04  0.14292910462E+04  0.50400000000E-02 0.  1.
          1   -1    0    0  501    0  0.00000000000E+00 -0.00000000000E+00 -0.99236473374E+03  0.99236473375E+03  0.50400000000E-02 0. -1.
    8880023    1    1    2    0    0  0.82829784775E+03 -0.25094098221E+03 -0.44634359714E+03  0.11756196299E+04  0.65864270000E+03 0.  0.
    8880022    1    1    2    0    0 -0.82829784775E+03  0.25094098221E+03  0.88326990962E+03  0.12460361501E+04  0.15294330000E+03 0.  0.
<mgrwt>
<rscale>  0 0.10311764E+04</rscale>
<asrwt>0</asrwt>
<pdfrwt beam="1">  1        1 0.15267150E+00 0.10875932E+04</pdfrwt>
<pdfrwt beam="2">  1       -1 0.21989093E+00 0.10875932E+04</pdfrwt>
<totfact> 0.16814731E+00</totfact>
</mgrwt>
</event>
<event>
 4    5  0.7176259E-008  0.8428877E+03  0.7818608E-02  0.9624759E-01
         -1   -1    0    0    0  501 -0.00000000000E+00  0.00000000000E+00  0.52296682382E+03  0.52296682385E+03  0.50400000000E-02 0.  1.
          1   -1    0    0  501    0  0.00000000000E+00 -0.00000000000E+00 -0.12460821662E+04  0.12460821662E+04  0.50400000000E-02 0. -1.
    8880023    1    1    2    0    0 -0.24026668878E+03 -0.46789028877E+03 -0.86027179511E+03  0.12043783342E+04  0.65864270000E+03 0.  0.
    8880022    1    1    2    0    0  0.24026668878E+03  0.46789028877E+03  0.13715645276E+03  0.56467065588E+03  0.15294330000E+03 0.  0.
<mgrwt>
<rscale>  0 0.75678908E+03</rscale>
<asrwt>0</asrwt>
<pdfrwt beam="1">  1        1 0.19170495E+00 0.84288766E+03</pdfrwt>
<pdfrwt beam="2">  1       -1 0.80456435E-01 0.84288766E+03</pdfrwt>
<totfact> 0.15563096E+01</totfact>
</mgrwt>
</event>
<event>
 4    5  0.7176259E-008  0.1571131E+04  0.7818608E-02  0.8860975E-01
          1   -1    0    0  501    0  0.00000000000E+00  0.00000000000E+00  0.21500144764E+04  0.21500144764E+04  0.50400000000E-02 0. -1.
         -1   -1    0    0    0  501 -0.00000000000E+00 -0.00000000000E+00 -0.13026159997E+04  0.13026159997E+04  0.50400000000E-02 0.  1.
    8880023    1    1    2    0    0 -0.14252072647E+04 -0.58529483816E+02 -0.31962471750E+03  0.16033127000E+04  0.65864270000E+03 0.  0.
    8880022    1    1    2    0    0  0.14252072647E+04  0.58529483816E+02  0.11670231943E+04  0.18493177761E+04  0.15294330000E+03 0.  0.
<mgrwt>
<rscale>  0 0.15358216E+04</rscale>
<asrwt>0</asrwt>
<pdfrwt beam="1">  1        1 0.33077146E+00 0.15711307E+04</pdfrwt>
<pdfrwt beam="2">  1       -1 0.20040246E+00 0.15711307E+04</pdfrwt>
<totfact> 0.33043719E-01</totfact>
</mgrwt>
</event>
<event>
 4    5  0.7176259E-008  0.1042847E+04  0.7818608E-02  0.9327530E-01
         -1   -1    0    0    0  501 -0.00000000000E+00  0.00000000000E+00  0.19383235515E+04  0.19383235515E+04  0.50400000000E-02 0.  1.
          1   -1    0    0  501    0  0.00000000000E+00 -0.00000000000E+00 -0.61242972387E+03  0.61242972389E+03  0.50400000000E-02 0. -1.
    8880023    1    1    2    0    0 -0.80360519156E+03  0.89101124031E+02  0.13758027319E+04  0.17263729833E+04  0.65864270000E+03 0.  0.
    8880022    1    1    2    0    0  0.80360519156E+03 -0.89101124031E+02 -0.49908904256E+02  0.82438029207E+03  0.15294330000E+03 0.  0.
<mgrwt>
<rscale>  0 0.98287459E+03</rscale>
<asrwt>0</asrwt>
<pdfrwt beam="1">  1        1 0.94219959E-01 0.10428473E+04</pdfrwt>
<pdfrwt beam="2">  1       -1 0.29820362E+00 0.10428473E+04</pdfrwt>
<totfact> 0.11367266E+00</totfact>
</mgrwt>
</event>
<event>
 4    5  0.7176259E-008  0.7537414E+03  0.7818608E-02  0.9821588E-01
          1   -1    0    0  501    0  0.00000000000E+00  0.00000000000E+00  0.22704831610E+04  0.22704831610E+04  0.50400000000E-02 0. -1.
         -1   -1    0    0    0  501 -0.00000000000E+00 -0.00000000000E+00 -0.32773059992E+03  0.32773059996E+03  0.50400000000E-02 0.  1.
    8880023    1    1    2    0    0  0.29315418516E+03 -0.21994650750E+03  0.20522353677E+04  0.21862744688E+04  0.65864270000E+03 0.  0.
    8880022    1    1    2    0    0 -0.29315418516E+03  0.21994650750E+03 -0.10948280661E+03  0.41193929213E+03  0.15294330000E+03 0.  0.
<mgrwt>
<rscale>  0 0.64216747E+03</rscale>
<asrwt>0</asrwt>
<pdfrwt beam="1">  1        1 0.34930510E+00 0.75374137E+03</pdfrwt>
<pdfrwt beam="2">  1       -1 0.50420093E-01 0.75374137E+03</pdfrwt>
<totfact> 0.80944108E+00</totfact>
</mgrwt>
</event>
<event>
 4    5  0.7176259E-008  0.1624732E+04  0.7818608E-02  0.8826237E-01
         -1   -1    0    0    0  501 -0.00000000000E+00  0.00000000000E+00  0.11875015748E+04  0.11875015749E+04  0.50400000000E-02 0.  1.
          1   -1    0    0  501    0  0.00000000000E+00 -0.00000000000E+00 -0.23510139272E+04  0.23510139272E+04  0.50400000000E-02 0. -1.
    8880023    1    1    2    0    0 -0.14704811863E+04 -0.20887480449E+03 -0.12393980871E+04  0.20434924585E+04  0.65864270000E+03 0.  0.
    8880022    1    1    2    0    0  0.14704811863E+04  0.20887480449E+03  0.75885734716E+02  0.14950230436E+04  0.15294330000E+03 0.  0.
<mgrwt>
<rscale>  0 0.15907730E+04</rscale>
<asrwt>0</asrwt>
<pdfrwt beam="1">  1        1 0.36169445E+00 0.16247319E+04</pdfrwt>
<pdfrwt beam="2">  1       -1 0.18269255E+00 0.16247319E+04</pdfrwt>
<totfact> 0.31908122E-01</totfact>
</mgrwt>
</event>
<event>
 4    5  0.7604175E-008  0.9929793E+03  0.7818608E-02  0.9390801E-01
         -1   -1    0    0    0  501 -0.00000000000E+00  0.00000000000E+00  0.78340971452E+03  0.78340971454E+03  0.50400000000E-02 0.  1.
          1   -1    0    0  501    0  0.00000000000E+00 -0.00000000000E+00 -0.25188388101E+04  0.25188388101E+04  0.50400000000E-02 0. -1.
    8880023    1    1    2    0    0  0.66723835335E+03  0.32709433809E+03 -0.21992469873E+04  0.24130261589E+04  0.65864270000E+03 0.  0.
    8880022    1    1    2    0    0 -0.66723835335E+03 -0.32709433809E+03  0.46381789166E+03  0.88922236579E+03  0.15294330000E+03 0.  0.
<mgrwt>
<rscale>  0 0.92836605E+03</rscale>
<asrwt>0</asrwt>
<pdfrwt beam="1">  1        1 0.38751366E+00 0.99297932E+03</pdfrwt>
<pdfrwt beam="2">  1       -1 0.12052457E+00 0.99297932E+03</pdfrwt>
<totfact> 0.82117653E-01</totfact>
</mgrwt>
</event>
<event>
 4    5  0.7176259E-008  0.7593604E+03  0.7818608E-02  0.9806766E-01
          1   -1    0    0  501    0  0.00000000000E+00  0.00000000000E+00  0.11330222219E+04  0.11330222219E+04  0.50400000000E-02 0. -1.
         -1   -1    0    0    0  501 -0.00000000000E+00 -0.00000000000E+00 -0.92065873724E+03  0.92065873725E+03  0.50400000000E-02 0.  1.
    8880023    1    1    2    0    0 -0.36725711389E+03 -0.89108205570E+02  0.94678836428E+03  0.12136871397E+04  0.65864270000E+03 0.  0.
    8880022    1    1    2    0    0  0.36725711389E+03  0.89108205570E+02 -0.73442487961E+03  0.83999381950E+03  0.15294330000E+03 0.  0.
<mgrwt>
<rscale>  0 0.65000698E+03</rscale>
<asrwt>0</asrwt>
<pdfrwt beam="1">  1        1 0.17431111E+00 0.75936043E+03</pdfrwt>
<pdfrwt beam="2">  1       -1 0.14163981E+00 0.75936043E+03</pdfrwt>
<totfact> 0.50440967E+00</totfact>
</mgrwt>
</event>
<event>
 4    5  0.7176259E-008  0.1523871E+04  0.7818608E-02  0.8892961E-01
          1   -1    0    0  501    0  0.00000000000E+00  0.00000000000E+00  0.13042044792E+04  0.13042044792E+04  0.50400000000E-02 0. -1.
         -1   -1    0    0    0  501 -0.00000000000E+00 -0.00000000000E+00 -0.19419100096E+04  0.19419100096E+04  0.50400000000E-02 0.  1.
    8880023    1    1    2    0    0  0.12697728349E+04  0.52540330573E+03 -0.99259189035E+03  0.18186315056E+04  0.65864270000E+03 0.  0.
    8880022    1    1    2    0    0 -0.12697728349E+04 -0.52540330573E+03  0.35488635990E+03  0.14274829832E+04  0.15294330000E+03 0.  0.
<mgrwt>
<rscale>  0 0.14872718E+04</rscale>
<asrwt>0</asrwt>
<pdfrwt beam="1">  1        1 0.20064684E+00 0.15238707E+04</pdfrwt>
<pdfrwt beam="2">  1       -1 0.29875539E+00 0.15238707E+04</pdfrwt>
<totfact> 0.28558744E-01</totfact>
</mgrwt>
</event>
<event>
 4    5  0.7176259E-008  0.8574595E+03  0.7818608E-02  0.9598099E-01
         -1   -1    0    0    0  501 -0.00000000000E+00  0.00000000000E+00  0.26356046216E+04  0.26356046216E+04  0.50400000000E-02 0.  1.
          1   -1    0    0  501    0  0.00000000000E+00 -0.00000000000E+00 -0.39634177536E+03  0.39634177539E+03  0.50400000000E-02 0. -1.
    8880023    1    1    2    0    0  0.44664557562E+03 -0.31927143429E+03  0.15524125236E+03  0.87139920339E+03  0.65864270000E+03 0.  1.
    8880022    1    1    2    0    0 -0.44664557562E+03  0.31927143429E+03  0.20840215939E+04  0.21605471936E+04  0.15294330000E+03 0.  0.
<mgrwt>
<rscale>  0 0.77422152E+03</rscale>
<asrwt>0</asrwt>
<pdfrwt beam="1">  1        1 0.60975657E-01 0.85745946E+03</pdfrwt>
<pdfrwt beam="2">  1       -1 0.40547764E+00 0.85745946E+03</pdfrwt>
<totfact> 0.41865002E-01</totfact>
</mgrwt>
</event>
<event>
 4    5  0.7176259E-008  0.1216428E+04  0.7818608E-02  0.9141316E-01
         -1   -1    0    0    0  501 -0.00000000000E+00  0.00000000000E+00  0.91293765174E+03  0.91293765175E+03  0.50400000000E-02 0.  1.
          1   -1    0    0  501    0  0.00000000000E+00 -0.00000000000E+00 -0.20706812977E+04  0.20706812977E+04  0.50400000000E-02 0. -1.
    8880023    1    1    2    0    0  0.91171488032E+03  0.46331767874E+03 -0.14656551819E+04  0.19046896369E+04  0.65864270000E+03 0. -1.
    8880022    1    1    2    0    0 -0.91171488032E+03 -0.46331767874E+03  0.30791153598E+03  0.10789293125E+04  0.15294330000E+03 0.  0.
<mgrwt>
<rscale>  0 0.11680226E+04</rscale>
<asrwt>0</asrwt>
<pdfrwt beam="1">  1        1 0.31856635E+00 0.12164282E+04</pdfrwt>
<pdfrwt beam="2">  1       -1 0.14045195E+00 0.12164282E+04</pdfrwt>
<totfact> 0.10887049E+00</totfact>
</mgrwt>
</event>
<event>
 4    5  0.7176259E-008  0.8761273E+03  0.7818608E-02  0.9565496E-01
         -1   -1    0    0    0  501 -0.00000000000E+00  0.00000000000E+00  0.19909640043E+04  0.19909640044E+04  0.50400000000E-02 0.  1.
          1   -1    0    0  501    0  0.00000000000E+00 -0.00000000000E+00 -0.33698086455E+03  0.33698086459E+03  0.50400000000E-02 0. -1.
    8880023    1    1    2    0    0 -0.52857505008E+03  0.23323207360E+03  0.45262196849E+03  0.98613672295E+03  0.65864270000E+03 0.  0.
    8880022    1    1    2    0    0  0.52857505008E+03 -0.23323207360E+03  0.12013611713E+04  0.13418081460E+04  0.15294330000E+03 0.  0.
<mgrwt>
<rscale>  0 0.79622600E+03</rscale>
<asrwt>0</asrwt>
<pdfrwt beam="1">  1        1 0.51843210E-01 0.87612727E+03</pdfrwt>
<pdfrwt beam="2">  1       -1 0.30630215E+00 0.87612727E+03</pdfrwt>
<totfact> 0.23340690E+00</totfact>
</mgrwt>
</event>
<event>
 4    5  0.7176259E-008  0.8703520E+03  0.7818608E-02  0.9575408E-01
         -1   -1    0    0    0  501 -0.00000000000E+00  0.00000000000E+00  0.50794413022E+03  0.50794413024E+03  0.50400000000E-02 0.  1.
          1   -1    0    0  501    0  0.00000000000E+00 -0.00000000000E+00 -0.15795043593E+04  0.15795043593E+04  0.50400000000E-02 0. -1.
    8880023    1    1    2    0    0 -0.22218554284E+03  0.52377090890E+03 -0.12020136274E+04  0.14840314509E+04  0.65864270000E+03 0. -1.
    8880022    1    1    2    0    0  0.22218554284E+03 -0.52377090890E+03  0.13045339829E+03  0.60341703870E+03  0.15294330000E+03 0.  0.
<mgrwt>
<rscale>  0 0.78945447E+03</rscale>
<asrwt>0</asrwt>
<pdfrwt beam="1">  1        1 0.24300067E+00 0.87035199E+03</pdfrwt>
<pdfrwt beam="2">  1       -1 0.78145252E-01 0.87035199E+03</pdfrwt>
<totfact> 0.96622327E+00</totfact>
</mgrwt>
</event>
<event>
 4    5  0.7176259E-008  0.9143018E+03  0.7818608E-02  0.9503452E-01
          1   -1    0    0  501    0  0.00000000000E+00  0.00000000000E+00  0.24780437563E+04  0.24780437563E+04  0.50400000000E-02 0. -1.
         -1   -1    0    0    0  501 -0.00000000000E+00 -0.00000000000E+00 -0.71497637973E+03  0.71497637974E+03  0.50400000000E-02 0.  1.
    8880023    1    1    2    0    0 -0.55092488431E+02 -0.63174546871E+03  0.22171107300E+04  0.23982342911E+04  0.65864270000E+03 0.  0.
    8880022    1    1    2    0    0  0.55092488431E+02  0.63174546871E+03 -0.45404335345E+03  0.79478584496E+03  0.15294330000E+03 0.  0.
<mgrwt>
<rscale>  0 0.84029801E+03</rscale>
<asrwt>0</asrwt>
<pdfrwt beam="1">  1        1 0.38123750E+00 0.91430177E+03</pdfrwt>
<pdfrwt beam="2">  1       -1 0.10999637E+00 0.91430177E+03</pdfrwt>
<totfact> 0.11061050E+00</totfact>
</mgrwt>
</event>
<event>
 4    5  0.7176259E-008  0.1002248E+04  0.7818608E-02  0.9378622E-01
          1   -1    0    0  501    0  0.00000000000E+00  0.00000000000E+00  0.68844342912E+03  0.68844342914E+03  0.50400000000E-02 0. -1.
         -1   -1    0    0    0  501 -0.00000000000E+00 -0.00000000000E+00 -0.18106563496E+04  0.18106563496E+04  0.50400000000E-02 0.  1.
    8880023    1    1    2    0    0  0.75520640964E+03 -0.18835312945E+02  0.14820884744E+03  0.10131473530E+04  0.65864270000E+03 0. -1.
    8880022    1    1    2    0    0 -0.75520640964E+03  0.18835312945E+02 -0.12704217679E+04  0.14859524257E+04  0.15294330000E+03 0.  0.
<mgrwt>
<rscale>  0 0.93856079E+03</rscale>
<asrwt>0</asrwt>
<pdfrwt beam="1">  1        1 0.10591437E+00 0.10022483E+04</pdfrwt>
<pdfrwt beam="2">  1       -1 0.27856251E+00 0.10022483E+04</pdfrwt>
<totfact> 0.12844578E+00</totfact>
</mgrwt>
</event>
<event>
 4    5  0.7176259E-008  0.7885454E+03  0.7818608E-02  0.9736134E-01
          1   -1    0    0  501    0  0.00000000000E+00  0.00000000000E+00  0.17799572697E+03  0.17799572704E+03  0.50400000000E-02 0. -1.
         -1   -1    0    0    0  501 -0.00000000000E+00 -0.00000000000E+00 -0.22080589119E+04  0.22080589119E+04  0.50400000000E-02 0.  1.
    8880023    1    1    2    0    0  0.98508841110E+02  0.42224354882E+03 -0.11720858256E+04  0.14126531758E+04  0.65864270000E+03 0.  0.
    8880022    1    1    2    0    0 -0.98508841110E+02 -0.42224354882E+03 -0.85797735929E+03  0.97340146310E+03  0.15294330000E+03 0.  0.
<mgrwt>
<rscale>  0 0.68905574E+03</rscale>
<asrwt>0</asrwt>
<pdfrwt beam="1">  1        1 0.27383960E-01 0.78854538E+03</pdfrwt>
<pdfrwt beam="2">  1       -1 0.33970135E+00 0.78854538E+03</pdfrwt>
<totfact> 0.32973115E+00</totfact>
</mgrwt>
</event>
<event>
 4    5  0.7176259E-008  0.9780437E+03  0.7818608E-02  0.9410864E-01
         -1   -1    0    0    0  501 -0.00000000000E+00  0.00000000000E+00  0.50007961633E+03  0.50007961635E+03  0.50400000000E-02 0.  1.
          1   -1    0    0  501    0  0.00000000000E+00 -0.00000000000E+00 -0.26398481429E+04  0.26398481429E+04  0.50400000000E-02 0. -1.
    8880023    1    1    2    0    0  0.55150498423E+03 -0.46754846533E+03 -0.21907438138E+04  0.23991515123E+04  0.65864270000E+03 0.  0.
    8880022    1    1    2    0    0 -0.55150498423E+03  0.46754846533E+03  0.50975287263E+02  0.74077624691E+03  0.15294330000E+03 0.  0.
<mgrwt>
<rscale>  0 0.91186971E+03</rscale>
<asrwt>0</asrwt>
<pdfrwt beam="1">  1        1 0.40613048E+00 0.97804372E+03</pdfrwt>
<pdfrwt beam="2">  1       -1 0.76935327E-01 0.97804372E+03</pdfrwt>
<totfact> 0.18788792E+00</totfact>
</mgrwt>
</event>
<event>
 4    5  0.7176259E-008  0.1709853E+04  0.7818608E-02  0.8774113E-01
          1   -1    0    0  501    0  0.00000000000E+00  0.00000000000E+00  0.28138210675E+04  0.28138210675E+04  0.50400000000E-02 0. -1.
         -1   -1    0    0    0  501 -0.00000000000E+00 -0.00000000000E+00 -0.14891810863E+04  0.14891810863E+04  0.50400000000E-02 0.  1.
    8880023    1    1    2    0    0 -0.48085645248E+03  0.15028520961E+04  0.19547684423E+04  0.25970593408E+04  0.65864270000E+03 0.  0.
    8880022    1    1    2    0    0  0.48085645248E+03 -0.15028520961E+04 -0.63012846107E+03  0.17059428130E+04  0.15294330000E+03 0.  0.
<mgrwt>
<rscale>  0 0.16778264E+04</rscale>
<asrwt>0</asrwt>
<pdfrwt beam="1">  1        1 0.43289555E+00 0.17098531E+04</pdfrwt>
<pdfrwt beam="2">  1       -1 0.22910478E+00 0.17098531E+04</pdfrwt>
<totfact> 0.71761790E-02</totfact>
</mgrwt>
</event>
<event>
 4    5  0.7176259E-008  0.1401840E+04  0.7818608E-02  0.8982255E-01
         -1   -1    0    0    0  501 -0.00000000000E+00  0.00000000000E+00  0.10028173948E+04  0.10028173948E+04  0.50400000000E-02 0.  1.
          1   -1    0    0  501    0  0.00000000000E+00 -0.00000000000E+00 -0.24274115093E+04  0.24274115093E+04  0.50400000000E-02 0. -1.
    8880023    1    1    2    0    0  0.79053542809E+02  0.12349473641E+04 -0.16479009895E+04  0.21635000190E+04  0.65864270000E+03 0.  0.
    8880022    1    1    2    0    0 -0.79053542809E+02 -0.12349473641E+04  0.22330687503E+03  0.12667288851E+04  0.15294330000E+03 0.  0.
<mgrwt>
<rscale>  0 0.13613847E+04</rscale>
<asrwt>0</asrwt>
<pdfrwt beam="1">  1        1 0.37344792E+00 0.14018397E+04</pdfrwt>
<pdfrwt beam="2">  1       -1 0.15427960E+00 0.14018397E+04</pdfrwt>
<totfact> 0.47209005E-01</totfact>
</mgrwt>
</event>
<event>
 4    5  0.7176259E-008  0.1190512E+04  0.7818608E-02  0.9166401E-01
          1   -1    0    0  501    0  0.00000000000E+00  0.00000000000E+00  0.15597145922E+04  0.15597145923E+04  0.50400000000E-02 0. -1.
         -1   -1    0    0    0  501 -0.00000000000E+00 -0.00000000000E+00 -0.12900769780E+04  0.12900769780E+04  0.50400000000E-02 0.  1.
    8880023    1    1    2    0    0 -0.38061546379E+03  0.91577308601E+03  0.10431084031E+04  0.15828435877E+04  0.65864270000E+03 0.  0.
    8880022    1    1    2    0    0  0.38061546379E+03 -0.91577308601E+03 -0.77347078878E+03  0.12669479825E+04  0.15294330000E+03 0.  0.
<mgrwt>
<rscale>  0 0.11407057E+04</rscale>
<asrwt>0</asrwt>
<pdfrwt beam="1">  1        1 0.23995609E+00 0.11905119E+04</pdfrwt>
<pdfrwt beam="2">  1       -1 0.19847338E+00 0.11905119E+04</pdfrwt>
<totfact> 0.89994684E-01</totfact>
</mgrwt>
</event>
<event>
 4    5  0.7176259E-008  0.7153830E+03  0.7818608E-02  0.9938529E-01
          1   -1    0    0  501    0  0.00000000000E+00  0.00000000000E+00  0.23028265312E+04  0.23028265312E+04  0.50400000000E-02 0. -1.
         -1   -1    0    0    0  501 -0.00000000000E+00 -0.00000000000E+00 -0.13268295308E+03  0.13268295318E+03  0.50400000000E-02 0.  1.
    8880023    1    1    2    0    0 -0.26854992206E+03  0.76443550152E+02  0.18522936486E+04  0.19856396058E+04  0.65864270000E+03 0.  1.
    8880022    1    1    2    0    0  0.26854992206E+03 -0.76443550152E+02  0.31784992950E+03  0.44986987863E+03  0.15294330000E+03 0.  0.
<mgrwt>
<rscale>  0 0.58429782E+03</rscale>
<asrwt>0</asrwt>
<pdfrwt beam="1">  1        1 0.35428101E+00 0.71538303E+03</pdfrwt>
<pdfrwt beam="2">  1       -1 0.20412762E-01 0.71538303E+03</pdfrwt>
<totfact> 0.38253864E+01</totfact>
</mgrwt>
</event>
<event>
 4    5  0.7176259E-008  0.1871753E+04  0.7818608E-02  0.8683850E-01
         -1   -1    0    0    0  501 -0.00000000000E+00  0.00000000000E+00  0.37860084590E+04  0.37860084591E+04  0.50400000000E-02 0.  1.
          1   -1    0    0  501    0  0.00000000000E+00 -0.00000000000E+00 -0.16442087763E+04  0.16442087763E+04  0.50400000000E-02 0. -1.
    8880023    1    1    2    0    0 -0.15652867470E+04 -0.78710022353E+03 -0.77368735044E+03  0.20253522372E+04  0.65864270000E+03 0.  0.
    8880022    1    1    2    0    0  0.15652867470E+04  0.78710022353E+03  0.29154870332E+04  0.34048649982E+04  0.15294330000E+03 0.  0.
<mgrwt>
<rscale>  0 0.18428273E+04</rscale>
<asrwt>0</asrwt>
<pdfrwt beam="1">  1        1 0.25295520E+00 0.18717531E+04</pdfrwt>
<pdfrwt beam="2">  1       -1 0.58246283E+00 0.18717531E+04</pdfrwt>
<totfact> 0.23829019E-03</totfact>
</mgrwt>
</event>
<event>
 4    5  0.7176259E-008  0.1091060E+04  0.7818608E-02  0.9271076E-01
         -1   -1    0    0    0  501 -0.00000000000E+00  0.00000000000E+00  0.77103807504E+03  0.77103807506E+03  0.50400000000E-02 0.  1.
          1   -1    0    0  501    0  0.00000000000E+00 -0.00000000000E+00 -0.13736221898E+04  0.13736221898E+04  0.50400000000E-02 0. -1.
    8880023    1    1    2    0    0  0.86251365328E+03 -0.11256755034E+03 -0.63220885262E+03  0.12609914730E+04  0.65864270000E+03 0.  0.
    8880022    1    1    2    0    0 -0.86251365328E+03  0.11256755034E+03  0.29624737886E+02  0.88366879180E+03  0.15294330000E+03 0.  0.
<mgrwt>
<rscale>  0 0.10348985E+04</rscale>
<asrwt>0</asrwt>
<pdfrwt beam="1">  1        1 0.21132649E+00 0.10910598E+04</pdfrwt>
<pdfrwt beam="2">  1       -1 0.11862124E+00 0.10910598E+04</pdfrwt>
<totfact> 0.50763141E+00</totfact>
</mgrwt>
</event>
<event>
 4    5  0.7176259E-008  0.8055911E+03  0.7818608E-02  0.9698835E-01
         -1   -1    0    0    0  501 -0.00000000000E+00  0.00000000000E+00  0.10912122332E+04  0.10912122333E+04  0.50400000000E-02 0.  1.
          1   -1    0    0  501    0  0.00000000000E+00 -0.00000000000E+00 -0.50442732897E+03  0.50442732899E+03  0.50400000000E-02 0. -1.
    8880023    1    1    2    0    0  0.40266988209E+03  0.23026877910E+03 -0.33320220783E+02  0.80627984469E+03  0.65864270000E+03 0. -1.
    8880022    1    1    2    0    0 -0.40266988209E+03 -0.23026877910E+03  0.62010512505E+03  0.78935971756E+03  0.15294330000E+03 0.  0.
<mgrwt>
<rscale>  0 0.71086203E+03</rscale>
<asrwt>0</asrwt>
<pdfrwt beam="1">  1        1 0.77604206E-01 0.80559106E+03</pdfrwt>
<pdfrwt beam="2">  1       -1 0.16787880E+00 0.80559106E+03</pdfrwt>
<totfact> 0.11426027E+01</totfact>
</mgrwt>
</event>
<event>
 4    5  0.7176259E-008  0.7929424E+03  0.7818608E-02  0.9726269E-01
          1   -1    0    0  501    0  0.00000000000E+00  0.00000000000E+00  0.49759943819E+03  0.49759943821E+03  0.50400000000E-02 0. -1.
         -1   -1    0    0    0  501 -0.00000000000E+00 -0.00000000000E+00 -0.90172648748E+03  0.90172648749E+03  0.50400000000E-02 0.  1.
    8880023    1    1    2    0    0 -0.14974613025E+03 -0.41535961882E+03 -0.17973201441E+02  0.79314611435E+03  0.65864270000E+03 0.  0.
    8880022    1    1    2    0    0  0.14974613025E+03  0.41535961882E+03 -0.38615384785E+03  0.60617981135E+03  0.15294330000E+03 0.  0.
<mgrwt>
<rscale>  0 0.69474064E+03</rscale>
<asrwt>0</asrwt>
<pdfrwt beam="1">  1        1 0.76553760E-01 0.79294245E+03</pdfrwt>
<pdfrwt beam="2">  1       -1 0.13872715E+00 0.79294245E+03</pdfrwt>
<totfact> 0.19567058E+01</totfact>
</mgrwt>
</event>
<event>
 4    5  0.7176259E-008  0.6688338E+03  0.7818608E-02  0.1016513E+00
          1   -1    0    0  501    0  0.00000000000E+00  0.00000000000E+00  0.14784266840E+04  0.14784266841E+04  0.50400000000E-02 0. -1.
         -1   -1    0    0    0  501 -0.00000000000E+00 -0.00000000000E+00 -0.72957300391E+03  0.72957300392E+03  0.50400000000E-02 0.  1.
    8880023    1    1    2    0    0 -0.19546446150E+02 -0.11465749252E+03  0.13879218607E+04  0.15406705364E+04  0.65864270000E+03 0. -1.
    8880022    1    1    2    0    0  0.19546446150E+02  0.11465749252E+03 -0.63906818054E+03  0.66732915157E+03  0.15294330000E+03 0.  0.
<mgrwt>
<rscale>  0 0.48966204E+03</rscale>
<asrwt>0</asrwt>
<pdfrwt beam="1">  1        1 0.22745026E+00 0.66883377E+03</pdfrwt>
<pdfrwt beam="2">  1       -1 0.11224200E+00 0.66883377E+03</pdfrwt>
<totfact> 0.52041834E+00</totfact>
</mgrwt>
</event>
<event>
 4    5  0.7176259E-008  0.1062202E+04  0.7818608E-02  0.9304355E-01
         -1   -1    0    0    0  501 -0.00000000000E+00  0.00000000000E+00  0.13307587826E+04  0.13307587826E+04  0.50400000000E-02 0.  1.
          1   -1    0    0  501    0  0.00000000000E+00 -0.00000000000E+00 -0.14417178780E+04  0.14417178780E+04  0.50400000000E-02 0. -1.
    8880023    1    1    2    0    0 -0.51698415615E+03 -0.65359829306E+03 -0.10597495208E+04  0.15004474664E+04  0.65864270000E+03 0.  0.
    8880022    1    1    2    0    0  0.51698415615E+03  0.65359829306E+03  0.94879042539E+03  0.12720291941E+04  0.15294330000E+03 0.  0.
<mgrwt>
<rscale>  0 0.10038296E+04</rscale>
<asrwt>0</asrwt>
<pdfrwt beam="1">  1        1 0.22180275E+00 0.10622022E+04</pdfrwt>
<pdfrwt beam="2">  1       -1 0.20473212E+00 0.10622022E+04</pdfrwt>
<totfact> 0.10008216E+00</totfact>
</mgrwt>
</event>
<event>
 4    5  0.7176259E-008  0.9927030E+03  0.7818608E-02  0.9391167E-01
          1   -1    0    0  501    0  0.00000000000E+00  0.00000000000E+00  0.87136387325E+03  0.87136387327E+03  0.50400000000E-02 0. -1.
         -1   -1    0    0    0  501 -0.00000000000E+00 -0.00000000000E+00 -0.11310509405E+04  0.11310509406E+04  0.50400000000E-02 0.  1.
    8880023    1    1    2    0    0  0.73696971468E+03  0.92328908495E+02  0.32534306430E+03  0.10446565481E+04  0.65864270000E+03 0.  0.
    8880022    1    1    2    0    0 -0.73696971468E+03 -0.92328908495E+02 -0.58503013159E+03  0.95775826574E+03  0.15294330000E+03 0.  0.
<mgrwt>
<rscale>  0 0.92806161E+03</rscale>
<asrwt>0</asrwt>
<pdfrwt beam="1">  1        1 0.13405598E+00 0.99270297E+03</pdfrwt>
<pdfrwt beam="2">  1       -1 0.17400784E+00 0.99270297E+03</pdfrwt>
<totfact> 0.44363298E+00</totfact>
</mgrwt>
</event>
<event>
 4    5  0.7176259E-008  0.1013262E+04  0.7818608E-02  0.9364409E-01
         -1   -1    0    0    0  501 -0.00000000000E+00  0.00000000000E+00  0.35403839047E+03  0.35403839051E+03  0.50400000000E-02 0.  1.
          1   -1    0    0  501    0  0.00000000000E+00 -0.00000000000E+00 -0.45411803892E+04  0.45411803892E+04  0.50400000000E-02 0. -1.
    8880023    1    1    2    0    0 -0.75464276021E+03 -0.15298186442E+03 -0.39459476155E+04  0.40739663643E+04  0.65864270000E+03 0.  0.
    8880022    1    1    2    0    0  0.75464276021E+03  0.15298186442E+03 -0.24119438320E+03  0.82125241545E+03  0.15294330000E+03 0.  0.
<mgrwt>
<rscale>  0 0.95063448E+03</rscale>
<asrwt>0</asrwt>
<pdfrwt beam="1">  1        1 0.69864309E+00 0.10132617E+04</pdfrwt>
<pdfrwt beam="2">  1       -1 0.54467448E-01 0.10132617E+04</pdfrwt>
<totfact> 0.10659457E-01</totfact>
</mgrwt>
</event>
<event>
 4    5  0.7176259E-008  0.8199057E+03  0.7818608E-02  0.9669301E-01
          1   -1    0    0  501    0  0.00000000000E+00  0.00000000000E+00  0.15641546996E+04  0.15641546996E+04  0.50400000000E-02 0. -1.
         -1   -1    0    0    0  501 -0.00000000000E+00 -0.00000000000E+00 -0.54906336246E+03  0.54906336249E+03  0.50400000000E-02 0.  1.
    8880023    1    1    2    0    0  0.33198582721E+03  0.35807903911E+03  0.12929136385E+04  0.15309706303E+04  0.65864270000E+03 0.  0.
    8880022    1    1    2    0    0 -0.33198582721E+03 -0.35807903911E+03 -0.27782230140E+03  0.58224743184E+03  0.15294330000E+03 0.  0.
<mgrwt>
<rscale>  0 0.72874352E+03</rscale>
<asrwt>0</asrwt>
<pdfrwt beam="1">  1        1 0.24063918E+00 0.81990572E+03</pdfrwt>
<pdfrwt beam="2">  1       -1 0.84471286E-01 0.81990572E+03</pdfrwt>
<totfact> 0.84386168E+00</totfact>
</mgrwt>
</event>
<event>
 4    5  0.7176259E-008  0.9642524E+03  0.7818608E-02  0.9429898E-01
         -1   -1    0    0    0  501 -0.00000000000E+00  0.00000000000E+00  0.80209852739E+03  0.80209852740E+03  0.50400000000E-02 0.  1.
          1   -1    0    0  501    0  0.00000000000E+00 -0.00000000000E+00 -0.19334527634E+04  0.19334527634E+04  0.50400000000E-02 0. -1.
    8880023    1    1    2    0    0  0.45008365802E+03  0.54166151109E+03 -0.16055602210E+04  0.18728604650E+04  0.65864270000E+03 0. -1.
    8880022    1    1    2    0    0 -0.45008365802E+03 -0.54166151109E+03  0.47420598495E+03  0.86269082584E+03  0.15294330000E+03 0.  0.
<mgrwt>
<rscale>  0 0.89655522E+03</rscale>
<asrwt>0</asrwt>
<pdfrwt beam="1">  1        1 0.29745427E+00 0.96425240E+03</pdfrwt>
<pdfrwt beam="2">  1       -1 0.12339977E+00 0.96425240E+03</pdfrwt>
<totfact> 0.19402464E+00</totfact>
</mgrwt>
</event>
<event>
 4    5  0.7176259E-008  0.6682964E+03  0.7818608E-02  0.1016915E+00
          1   -1    0    0  501    0  0.00000000000E+00  0.00000000000E+00  0.61436462169E+03  0.61436462172E+03  0.50400000000E-02 0. -1.
         -1   -1    0    0    0  501 -0.00000000000E+00 -0.00000000000E+00 -0.11615997522E+04  0.11615997522E+04  0.50400000000E-02 0.  1.
    8880023    1    1    2    0    0  0.78256890651E+02 -0.81766109611E+02  0.42057926950E+03  0.78962457270E+03  0.65864270000E+03 0. -1.
    8880022    1    1    2    0    0 -0.78256890651E+02  0.81766109611E+02 -0.96781439997E+03  0.98633980119E+03  0.15294330000E+03 0.  0.
<mgrwt>
<rscale>  0 0.48816612E+03</rscale>
<asrwt>0</asrwt>
<pdfrwt beam="1">  1        1 0.94517634E-01 0.66829637E+03</pdfrwt>
<pdfrwt beam="2">  1       -1 0.17870765E+00 0.66829637E+03</pdfrwt>
<totfact> 0.73539574E+00</totfact>
</mgrwt>
</event>
<event>
 4    5  0.7176259E-008  0.9404435E+03  0.7818608E-02  0.9463999E-01
          1   -1    0    0  501    0  0.00000000000E+00  0.00000000000E+00  0.25739255157E+04  0.25739255158E+04  0.50400000000E-02 0. -1.
         -1   -1    0    0    0  501 -0.00000000000E+00 -0.00000000000E+00 -0.54198865444E+03  0.54198865447E+03  0.50400000000E-02 0.  1.
    8880023    1    1    2    0    0  0.61132475300E+03  0.27731906594E+03  0.22125553077E+04  0.24041287432E+04  0.65864270000E+03 0. -1.
    8880022    1    1    2    0    0 -0.61132475300E+03 -0.27731906594E+03 -0.18061844637E+03  0.71178542704E+03  0.15294330000E+03 0.  0.
<mgrwt>
<rscale>  0 0.86990856E+03</rscale>
<asrwt>0</asrwt>
<pdfrwt beam="1">  1        1 0.39598854E+00 0.94044353E+03</pdfrwt>
<pdfrwt beam="2">  1       -1 0.83382869E-01 0.94044353E+03</pdfrwt>
<totfact> 0.17683576E+00</totfact>
</mgrwt>
</event>
<event>
 4    5  0.7176259E-008  0.1248521E+04  0.7818608E-02  0.9111342E-01
          1   -1    0    0  501    0  0.00000000000E+00  0.00000000000E+00  0.34661421666E+04  0.34661421666E+04  0.50400000000E-02 0. -1.
         -1   -1    0    0    0  501 -0.00000000000E+00 -0.00000000000E+00 -0.94700576648E+03  0.94700576649E+03  0.50400000000E-02 0.  1.
    8880023    1    1    2    0    0  0.66787053637E+03 -0.82397971697E+03  0.29918366602E+04  0.32418961172E+04  0.65864270000E+03 0.  0.
    8880022    1    1    2    0    0 -0.66787053637E+03  0.82397971697E+03 -0.47270026006E+03  0.11712518159E+04  0.15294330000E+03 0.  0.
<mgrwt>
<rscale>  0 0.12017323E+04</rscale>
<asrwt>0</asrwt>
<pdfrwt beam="1">  1        1 0.53325265E+00 0.12485207E+04</pdfrwt>
<pdfrwt beam="2">  1       -1 0.14569319E+00 0.12485207E+04</pdfrwt>
<totfact> 0.99467749E-02</totfact>
</mgrwt>
</event>
<event>
 4    5  0.7176259E-008  0.6651177E+03  0.7818608E-02  0.1019435E+00
          1   -1    0    0  501    0  0.00000000000E+00  0.00000000000E+00  0.44531983153E+03  0.44531983156E+03  0.50400000000E-02 0. -1.
         -1   -1    0    0    0  501 -0.00000000000E+00 -0.00000000000E+00 -0.43004355418E+03  0.43004355421E+03  0.50400000000E-02 0.  1.
    8880023    1    1    2    0    0  0.90258355498E+02  0.20609288082E+02  0.10822152217E+03  0.67386453952E+03  0.65864270000E+03 0.  1.
    8880022    1    1    2    0    0 -0.90258355498E+02 -0.20609288082E+02 -0.92945244824E+02  0.20149884626E+03  0.15294330000E+03 0.  0.
<mgrwt>
<rscale>  0 0.47891093E+03</rscale>
<asrwt>0</asrwt>
<pdfrwt beam="1">  1        1 0.68510744E-01 0.66511767E+03</pdfrwt>
<pdfrwt beam="2">  1       -1 0.66160546E-01 0.66511767E+03</pdfrwt>
<totfact> 0.12288639E+02</totfact>
</mgrwt>
</event>
<event>
 4    5  0.7176259E-008  0.6629244E+03  0.7818608E-02  0.1021342E+00
         -1   -1    0    0    0  501 -0.00000000000E+00  0.00000000000E+00  0.24769494470E+03  0.24769494475E+03  0.50400000000E-02 0.  1.
          1   -1    0    0  501    0  0.00000000000E+00 -0.00000000000E+00 -0.42422681054E+04  0.42422681054E+04  0.50400000000E-02 0. -1.
    8880023    1    1    2    0    0 -0.71201208943E+02  0.24268240827E+02 -0.41833942684E+04  0.42355939809E+04  0.65864270000E+03 0. -1.
    8880022    1    1    2    0    0  0.71201208943E+02 -0.24268240827E+02  0.18882110771E+03  0.25436906927E+03  0.15294330000E+03 0.  0.
<mgrwt>
<rscale>  0 0.47205399E+03</rscale>
<asrwt>0</asrwt>
<pdfrwt beam="1">  1        1 0.65265658E+00 0.66292440E+03</pdfrwt>
<pdfrwt beam="2">  1       -1 0.38106918E-01 0.66292440E+03</pdfrwt>
<totfact> 0.44078200E-01</totfact>
</mgrwt>
</event>
<event>
 4    5  0.7176259E-008  0.1048882E+04  0.7818608E-02  0.9320227E-01
          1   -1    0    0  501    0  0.00000000000E+00  0.00000000000E+00  0.20265373865E+04  0.20265373865E+04  0.50400000000E-02 0. -1.
         -1   -1    0    0    0  501 -0.00000000000E+00 -0.00000000000E+00 -0.59981396263E+03  0.59981396265E+03  0.50400000000E-02 0.  1.
    8880023    1    1    2    0    0  0.56919561254E+03  0.58511471055E+03  0.14570294061E+04  0.17952960108E+04  0.65864270000E+03 0. -1.
    8880022    1    1    2    0    0 -0.56919561254E+03 -0.58511471055E+03 -0.30305982247E+02  0.83105533836E+03  0.15294330000E+03 0.  1.
<mgrwt>
<rscale>  0 0.98941881E+03</rscale>
<asrwt>0</asrwt>
<pdfrwt beam="1">  1        1 0.31177498E+00 0.10488818E+04</pdfrwt>
<pdfrwt beam="2">  1       -1 0.92279071E-01 0.10488818E+04</pdfrwt>
<totfact> 0.32833028E+00</totfact>
</mgrwt>
</event>
<event>
 4    5  0.7176259E-008  0.9093378E+03  0.7818608E-02  0.9511205E-01
          1   -1    0    0  501    0  0.00000000000E+00  0.00000000000E+00  0.17718356113E+04  0.17718356113E+04  0.50400000000E-02 0. -1.
         -1   -1    0    0    0  501 -0.00000000000E+00 -0.00000000000E+00 -0.83948149365E+03  0.83948149367E+03  0.50400000000E-02 0.  1.
    8880023    1    1    2    0    0 -0.54097037839E+03  0.31691649950E+03  0.14985038024E+04  0.17528288194E+04  0.65864270000E+03 0.  0.
    8880022    1    1    2    0    0  0.54097037839E+03 -0.31691649950E+03 -0.56614968476E+03  0.85848828560E+03  0.15294330000E+03 0.  0.
<mgrwt>
<rscale>  0 0.83462765E+03</rscale>
<asrwt>0</asrwt>
<pdfrwt beam="1">  1        1 0.27259009E+00 0.90933779E+03</pdfrwt>
<pdfrwt beam="2">  1       -1 0.12915100E+00 0.90933779E+03</pdfrwt>
<totfact> 0.22430367E+00</totfact>
</mgrwt>
</event>
<event>
 4    5  0.7176259E-008  0.9454744E+03  0.7818608E-02  0.9456656E-01
          1   -1    0    0  501    0  0.00000000000E+00  0.00000000000E+00  0.39609201893E+03  0.39609201896E+03  0.50400000000E-02 0. -1.
         -1   -1    0    0    0  501 -0.00000000000E+00 -0.00000000000E+00 -0.17610530511E+04  0.17610530511E+04  0.50400000000E-02 0.  1.
    8880023    1    1    2    0    0  0.37499013725E+03  0.56523803931E+03 -0.98259758971E+03  0.13636054685E+04  0.65864270000E+03 0.  1.
    8880022    1    1    2    0    0 -0.37499013725E+03 -0.56523803931E+03 -0.38236344245E+03  0.79353960157E+03  0.15294330000E+03 0.  0.
<mgrwt>
<rscale>  0 0.87556272E+03</rscale>
<asrwt>0</asrwt>
<pdfrwt beam="1">  1        1 0.60937235E-01 0.94547440E+03</pdfrwt>
<pdfrwt beam="2">  1       -1 0.27093123E+00 0.94547440E+03</pdfrwt>
<totfact> 0.31516450E+00</totfact>
</mgrwt>
</event>
<event>
 4    5  0.7176259E-008  0.9937349E+03  0.7818608E-02  0.9389801E-01
         -1   -1    0    0    0  501 -0.00000000000E+00  0.00000000000E+00  0.53795516602E+03  0.53795516604E+03  0.50400000000E-02 0.  1.
          1   -1    0    0  501    0  0.00000000000E+00 -0.00000000000E+00 -0.19597163545E+04  0.19597163545E+04  0.50400000000E-02 0. -1.
    8880023    1    1    2    0    0  0.27056367076E+03  0.69317680536E+03 -0.14258751849E+04  0.17379956940E+04  0.65864270000E+03 0. -1.
    8880022    1    1    2    0    0 -0.27056367076E+03 -0.69317680536E+03  0.41139963750E+01  0.75967582652E+03  0.15294330000E+03 0.  0.
<mgrwt>
<rscale>  0 0.92919825E+03</rscale>
<asrwt>0</asrwt>
<pdfrwt beam="1">  1        1 0.30149482E+00 0.99373487E+03</pdfrwt>
<pdfrwt beam="2">  1       -1 0.82762335E-01 0.99373487E+03</pdfrwt>
<totfact> 0.46567444E+00</totfact>
</mgrwt>
</event>
<event>
 4    5  0.7176259E-008  0.1345642E+04  0.7818608E-02  0.9027115E-01
          1   -1    0    0  501    0  0.00000000000E+00  0.00000000000E+00  0.16535022910E+04  0.16535022910E+04  0.50400000000E-02 0. -1.
         -1   -1    0    0    0  501 -0.00000000000E+00 -0.00000000000E+00 -0.15230374064E+04  0.15230374064E+04  0.50400000000E-02 0.  1.
    8880023    1    1    2    0    0 -0.45170703035E+03  0.10830061978E+04  0.10262915182E+04  0.16923433908E+04  0.65864270000E+03 0. -1.
    8880022    1    1    2    0    0  0.45170703035E+03 -0.10830061978E+04 -0.89582663365E+03  0.14841963065E+04  0.15294330000E+03 0.  0.
<mgrwt>
<rscale>  0 0.13030949E+04</rscale>
<asrwt>0</asrwt>
<pdfrwt beam="1">  1        1 0.25438497E+00 0.13456418E+04</pdfrwt>
<pdfrwt beam="2">  1       -1 0.23431345E+00 0.13456418E+04</pdfrwt>
<totfact> 0.43611528E-01</totfact>
</mgrwt>
</event>
<event>
 4    5  0.7176259E-008  0.1164054E+04  0.7818608E-02  0.9192881E-01
         -1   -1    0    0    0  501 -0.00000000000E+00  0.00000000000E+00  0.16887084643E+04  0.16887084643E+04  0.50400000000E-02 0.  1.
          1   -1    0    0  501    0  0.00000000000E+00 -0.00000000000E+00 -0.17114809461E+04  0.17114809461E+04  0.50400000000E-02 0. -1.
    8880023    1    1    2    0    0 -0.96836421291E+02  0.95490038522E+03 -0.13324343175E+04  0.17692946207E+04  0.65864270000E+03 0.  0.
    8880022    1    1    2    0    0  0.96836421291E+02 -0.95490038522E+03  0.13096618356E+04  0.16308947897E+04  0.15294330000E+03 0.  0.
<mgrwt>
<rscale>  0 0.11127206E+04</rscale>
<asrwt>0</asrwt>
<pdfrwt beam="1">  1        1 0.26330476E+00 0.11640542E+04</pdfrwt>
<pdfrwt beam="2">  1       -1 0.25980130E+00 0.11640542E+04</pdfrwt>
<totfact> 0.27810819E-01</totfact>
</mgrwt>
</event>
<event>
 4    5  0.7176259E-008  0.1230951E+04  0.7818608E-02  0.9127608E-01
          1   -1    0    0  501    0  0.00000000000E+00  0.00000000000E+00  0.13855969304E+04  0.13855969304E+04  0.50400000000E-02 0. -1.
         -1   -1    0    0    0  501 -0.00000000000E+00 -0.00000000000E+00 -0.10246656802E+04  0.10246656802E+04  0.50400000000E-02 0.  1.
    8880023    1    1    2    0    0  0.98108749390E+03  0.34481404150E+03 -0.15267999204E+03  0.12403833198E+04  0.65864270000E+03 0.  0.
    8880022    1    1    2    0    0 -0.98108749390E+03 -0.34481404150E+03  0.51361124227E+03  0.11698792908E+04  0.15294330000E+03 0.  0.
<mgrwt>
<rscale>  0 0.11832922E+04</rscale>
<asrwt>0</asrwt>
<pdfrwt beam="1">  1        1 0.21316876E+00 0.12309507E+04</pdfrwt>
<pdfrwt beam="2">  1       -1 0.15764087E+00 0.12309507E+04</pdfrwt>
<totfact> 0.23411065E+00</totfact>
</mgrwt>
</event>
<event>
 4    5  0.7176259E-008  0.7152427E+03  0.7818608E-02  0.9939024E-01
         -1   -1    0    0    0  501 -0.00000000000E+00  0.00000000000E+00  0.34907578150E+03  0.34907578153E+03  0.50400000000E-02 0.  1.
          1   -1    0    0  501    0  0.00000000000E+00 -0.00000000000E+00 -0.89579656869E+03  0.89579656871E+03  0.50400000000E-02 0. -1.
    8880023    1    1    2    0    0  0.58207811595E+02  0.27271562234E+03 -0.58568847365E+03  0.92444748603E+03  0.65864270000E+03 0.  0.
    8880022    1    1    2    0    0 -0.58207811595E+02 -0.27271562234E+03  0.38967686457E+02  0.32042486421E+03  0.15294330000E+03 0. -1.
<mgrwt>
<rscale>  0 0.58406713E+03</rscale>
<asrwt>0</asrwt>
<pdfrwt beam="1">  1        1 0.13781486E+00 0.71524273E+03</pdfrwt>
<pdfrwt beam="2">  1       -1 0.53703967E-01 0.71524273E+03</pdfrwt>
<totfact> 0.65783547E+01</totfact>
</mgrwt>
</event>
<event>
 4    5  0.7176259E-008  0.6823000E+03  0.7818608E-02  0.1008051E+00
         -1   -1    0    0    0  501 -0.00000000000E+00  0.00000000000E+00  0.43903508492E+03  0.43903508495E+03  0.50400000000E-02 0.  1.
          1   -1    0    0  501    0  0.00000000000E+00 -0.00000000000E+00 -0.11479446530E+04  0.11479446530E+04  0.50400000000E-02 0. -1.
    8880023    1    1    2    0    0  0.10825359813E+03 -0.14143643456E+03 -0.10015101943E+04  0.12118399160E+04  0.65864270000E+03 0. -1.
    8880022    1    1    2    0    0 -0.10825359813E+03  0.14143643456E+03  0.29260062621E+03  0.37513982194E+03  0.15294330000E+03 0.  0.
<mgrwt>
<rscale>  0 0.52256465E+03</rscale>
<asrwt>0</asrwt>
<pdfrwt beam="1">  1        1 0.17660687E+00 0.68230002E+03</pdfrwt>
<pdfrwt beam="2">  1       -1 0.67543860E-01 0.68230002E+03</pdfrwt>
<totfact> 0.26888140E+01</totfact>
</mgrwt>
</event>
<event>
 4    5  0.7176259E-008  0.6725597E+03  0.7818608E-02  0.1013891E+00
         -1   -1    0    0    0  501 -0.00000000000E+00  0.00000000000E+00  0.18278652394E+03  0.18278652401E+03  0.50400000000E-02 0.  1.
          1   -1    0    0  501    0  0.00000000000E+00 -0.00000000000E+00 -0.13766465935E+04  0.13766465936E+04  0.50400000000E-02 0. -1.
    8880023    1    1    2    0    0  0.25842417332E+02  0.13363562236E+03 -0.11749464188E+04  0.13538225894E+04  0.65864270000E+03 0.  0.
    8880022    1    1    2    0    0 -0.25842417332E+02 -0.13363562236E+03 -0.18913650763E+02  0.20561052818E+03  0.15294330000E+03 0.  0.
<mgrwt>
<rscale>  0 0.49957206E+03</rscale>
<asrwt>0</asrwt>
<pdfrwt beam="1">  1        1 0.21179178E+00 0.67255967E+03</pdfrwt>
<pdfrwt beam="2">  1       -1 0.28121005E-01 0.67255967E+03</pdfrwt>
<totfact> 0.93868318E+01</totfact>
</mgrwt>
</event>
<event>
 4    5  0.7176259E-008  0.6905957E+03  0.7818608E-02  0.1003871E+00
          1   -1    0    0  501    0  0.00000000000E+00  0.00000000000E+00  0.18839227416E+04  0.18839227416E+04  0.50400000000E-02 0. -1.
         -1   -1    0    0    0  501 -0.00000000000E+00 -0.00000000000E+00 -0.19931324949E+03  0.19931324955E+03  0.50400000000E-02 0.  1.
    8880023    1    1    2    0    0  0.34525037497E+01 -0.20760621324E+03  0.16896187636E+04  0.18253038192E+04  0.65864270000E+03 0.  0.
    8880022    1    1    2    0    0 -0.34525037497E+01  0.20760621324E+03 -0.50092714794E+01  0.25793217204E+03  0.15294330000E+03 0.  0.
<mgrwt>
<rscale>  0 0.53985088E+03</rscale>
<asrwt>0</asrwt>
<pdfrwt beam="1">  1        1 0.28983427E+00 0.69059573E+03</pdfrwt>
<pdfrwt beam="2">  1       -1 0.30663576E-01 0.69059573E+03</pdfrwt>
<totfact> 0.36568556E+01</totfact>
</mgrwt>
</event>
<event>
 4    5  0.7176259E-008  0.7817552E+03  0.7818608E-02  0.9751730E-01
          1   -1    0    0  501    0  0.00000000000E+00  0.00000000000E+00  0.15165982912E+04  0.15165982912E+04  0.50400000000E-02 0. -1.
         -1   -1    0    0    0  501 -0.00000000000E+00 -0.00000000000E+00 -0.10903129106E+04  0.10903129106E+04  0.50400000000E-02 0.  1.
    8880023    1    1    2    0    0  0.40952242446E+03 -0.98093664457E+02  0.13614690331E+04  0.15699487627E+04  0.65864270000E+03 0. -1.
    8880022    1    1    2    0    0 -0.40952242446E+03  0.98093664457E+02 -0.93518365255E+03  0.10369624391E+04  0.15294330000E+03 0.  0.
<mgrwt>
<rscale>  0 0.68018590E+03</rscale>
<asrwt>0</asrwt>
<pdfrwt beam="1">  1        1 0.23332281E+00 0.78175520E+03</pdfrwt>
<pdfrwt beam="2">  1       -1 0.16774045E+00 0.78175520E+03</pdfrwt>
<totfact> 0.16979217E+00</totfact>
</mgrwt>
</event>
<event>
 4    5  0.7176259E-008  0.7667346E+03  0.7818608E-02  0.9787974E-01
         -1   -1    0    0    0  501 -0.00000000000E+00  0.00000000000E+00  0.12740494836E+04  0.12740494836E+04  0.50400000000E-02 0.  1.
          1   -1    0    0  501    0  0.00000000000E+00 -0.00000000000E+00 -0.11936690792E+04  0.11936690792E+04  0.50400000000E-02 0. -1.
    8880023    1    1    2    0    0  0.10291194131E+03  0.37878873268E+03 -0.10277333200E+04  0.12822315528E+04  0.65864270000E+03 0. -1.
    8880022    1    1    2    0    0 -0.10291194131E+03 -0.37878873268E+03  0.11081137244E+04  0.11854870100E+04  0.15294330000E+03 0.  0.
<mgrwt>
<rscale>  0 0.66011927E+03</rscale>
<asrwt>0</asrwt>
<pdfrwt beam="1">  1        1 0.18364140E+00 0.76673462E+03</pdfrwt>
<pdfrwt beam="2">  1       -1 0.19600761E+00 0.76673462E+03</pdfrwt>
<totfact> 0.18060344E+00</totfact>
</mgrwt>
</event>
<event>
 4    5  0.7176259E-008  0.1655326E+04  0.7818608E-02  0.8807091E-01
          1   -1    0    0  501    0  0.00000000000E+00  0.00000000000E+00  0.23830626380E+04  0.23830626380E+04  0.50400000000E-02 0. -1.
         -1   -1    0    0    0  501 -0.00000000000E+00 -0.00000000000E+00 -0.13944785997E+04  0.13944785998E+04  0.50400000000E-02 0.  1.
    8880023    1    1    2    0    0 -0.10233125207E+04  0.11221074170E+04 -0.41217793406E+03  0.17058705771E+04  0.65864270000E+03 0.  0.
    8880022    1    1    2    0    0  0.10233125207E+04 -0.11221074170E+04  0.14007619723E+04  0.20716706606E+04  0.15294330000E+03 0.  0.
<mgrwt>
<rscale>  0 0.16220894E+04</rscale>
<asrwt>0</asrwt>
<pdfrwt beam="1">  1        1 0.36662502E+00 0.16553259E+04</pdfrwt>
<pdfrwt beam="2">  1       -1 0.21453517E+00 0.16553259E+04</pdfrwt>
<totfact> 0.18132090E-01</totfact>
</mgrwt>
</event>
<event>
 4    5  0.8036513E-008  0.7483802E+03  0.7818608E-02  0.9836176E-01
          1   -1    0    0  501    0  0.00000000000E+00  0.00000000000E+00  0.17464558982E+04  0.17464558982E+04  0.50400000000E-02 0. -1.
         -1   -1    0    0    0  501 -0.00000000000E+00 -0.00000000000E+00 -0.10159177111E+04  0.10159177111E+04  0.50400000000E-02 0.  1.
    8880023    1    1    2    0    0  0.98110831875E+02 -0.34152154064E+03  0.16243375255E+04  0.17884477351E+04  0.65864270000E+03 0. -1.
    8880022    1    1    2    0    0 -0.98110831875E+02  0.34152154064E+03 -0.89379933848E+03  0.97392587425E+03  0.15294330000E+03 0.  0.
<mgrwt>
<rscale>  0 0.63456758E+03</rscale>
<asrwt>0</asrwt>
<pdfrwt beam="1">  1        1 0.26868552E+00 0.74838019E+03</pdfrwt>
<pdfrwt beam="2">  1       -1 0.15629503E+00 0.74838019E+03</pdfrwt>
<totfact> 0.14549101E+00</totfact>
</mgrwt>
</event>
<event>
 4    5  0.7176259E-008  0.1578522E+04  0.7818608E-02  0.8856091E-01
         -1   -1    0    0    0  501 -0.00000000000E+00  0.00000000000E+00  0.13573798304E+04  0.13573798304E+04  0.50400000000E-02 0.  1.
          1   -1    0    0  501    0  0.00000000000E+00 -0.00000000000E+00 -0.18150103927E+04  0.18150103927E+04  0.50400000000E-02 0. -1.
    8880023    1    1    2    0    0 -0.10188887377E+04 -0.10098453487E+04 -0.66876796900E+03  0.17143461409E+04  0.65864270000E+03 0.  0.
    8880022    1    1    2    0    0  0.10188887377E+04  0.10098453487E+04  0.21113740664E+03  0.14580440822E+04  0.15294330000E+03 0.  0.
<mgrwt>
<rscale>  0 0.15434060E+04</rscale>
<asrwt>0</asrwt>
<pdfrwt beam="1">  1        1 0.27923237E+00 0.15785221E+04</pdfrwt>
<pdfrwt beam="2">  1       -1 0.20882766E+00 0.15785221E+04</pdfrwt>
<totfact> 0.48859212E-01</totfact>
</mgrwt>
</event>
<event>
 4    5  0.7176259E-008  0.1281652E+04  0.7818608E-02  0.9081569E-01
          1   -1    0    0  501    0  0.00000000000E+00  0.00000000000E+00  0.30253382769E+04  0.30253382769E+04  0.50400000000E-02 0. -1.
         -1   -1    0    0    0  501 -0.00000000000E+00 -0.00000000000E+00 -0.61828413110E+03  0.61828413112E+03  0.50400000000E-02 0.  1.
    8880023    1    1    2    0    0  0.10250362410E+04  0.39764498889E+03  0.38724012918E+03  0.13388748845E+04  0.65864270000E+03 0.  1.
    8880022    1    1    2    0    0 -0.10250362410E+04 -0.39764498889E+03  0.20198140167E+04  0.23047475236E+04  0.15294330000E+03 0.  0.
<mgrwt>
<rscale>  0 0.12364120E+04</rscale>
<asrwt>0</asrwt>
<pdfrwt beam="1">  1        1 0.46543665E+00 0.12816517E+04</pdfrwt>
<pdfrwt beam="2">  1       -1 0.95120637E-01 0.12816517E+04</pdfrwt>
<totfact> 0.60284387E-01</totfact>
</mgrwt>
</event>
<event>
 4    5  0.7176259E-008  0.8897816E+03  0.7818608E-02  0.9542639E-01
          1   -1    0    0  501    0  0.00000000000E+00  0.00000000000E+00  0.71642329509E+03  0.71642329511E+03  0.50400000000E-02 0. -1.
         -1   -1    0    0    0  501 -0.00000000000E+00 -0.00000000000E+00 -0.14217629008E+04  0.14217629008E+04  0.50400000000E-02 0.  1.
    8880023    1    1    2    0    0 -0.14867658324E+03  0.57947938983E+03  0.31638973091E+03  0.94435891362E+03  0.65864270000E+03 0. -1.
    8880022    1    1    2    0    0  0.14867658324E+03 -0.57947938983E+03 -0.10217293366E+04  0.11938272823E+04  0.15294330000E+03 0.  0.
<mgrwt>
<rscale>  0 0.81211940E+03</rscale>
<asrwt>0</asrwt>
<pdfrwt beam="1">  1        1 0.11021897E+00 0.88978160E+03</pdfrwt>
<pdfrwt beam="2">  1       -1 0.21873275E+00 0.88978160E+03</pdfrwt>
<totfact> 0.30082934E+00</totfact>
</mgrwt>
</event>
<event>
 4    5  0.7664366E-008  0.1090216E+04  0.7818608E-02  0.9272028E-01
         -1   -1    0    0    0  501 -0.00000000000E+00  0.00000000000E+00  0.10479919908E+04  0.10479919909E+04  0.50400000000E-02 0.  1.
          1   -1    0    0  501    0  0.00000000000E+00 -0.00000000000E+00 -0.19623765440E+04  0.19623765440E+04  0.50400000000E-02 0. -1.
    8880023    1    1    2    0    0 -0.85326688150E+03  0.16339053983E+03 -0.15699151655E+04  0.19113358346E+04  0.65864270000E+03 0. -1.
    8880022    1    1    2    0    0  0.85326688150E+03 -0.16339053983E+03  0.65553061231E+03  0.10990327003E+04  0.15294330000E+03 0.  0.
<mgrwt>
<rscale>  0 0.10339928E+04</rscale>
<asrwt>0</asrwt>
<pdfrwt beam="1">  1        1 0.30190408E+00 0.10902161E+04</pdfrwt>
<pdfrwt beam="2">  1       -1 0.16122954E+00 0.10902161E+04</pdfrwt>
<totfact> 0.90138736E-01</totfact>
</mgrwt>
</event>
<event>
 4    5  0.7176259E-008  0.8832939E+03  0.7818608E-02  0.9553401E-01
         -1   -1    0    0    0  501 -0.00000000000E+00  0.00000000000E+00  0.74376476708E+03  0.74376476710E+03  0.50400000000E-02 0.  1.
          1   -1    0    0  501    0  0.00000000000E+00 -0.00000000000E+00 -0.11331307184E+04  0.11331307184E+04  0.50400000000E-02 0. -1.
    8880023    1    1    2    0    0 -0.33873052010E+03  0.48131031237E+03 -0.75956845658E+03  0.11649688530E+04  0.65864270000E+03 0. -1.
    8880022    1    1    2    0    0  0.33873052010E+03 -0.48131031237E+03  0.37020250530E+03  0.71192663244E+03  0.15294330000E+03 0.  0.
<mgrwt>
<rscale>  0 0.80458750E+03</rscale>
<asrwt>0</asrwt>
<pdfrwt beam="1">  1        1 0.17432780E+00 0.88329394E+03</pdfrwt>
<pdfrwt beam="2">  1       -1 0.11442535E+00 0.88329394E+03</pdfrwt>
<totfact> 0.84551956E+00</totfact>
</mgrwt>
</event>
<event>
 4    5  0.7176259E-008  0.8327734E+03  0.7818608E-02  0.9643960E-01
          1   -1    0    0  501    0  0.00000000000E+00  0.00000000000E+00  0.81722350995E+03  0.81722350997E+03  0.50400000000E-02 0. -1.
         -1   -1    0    0    0  501 -0.00000000000E+00 -0.00000000000E+00 -0.59878365728E+03  0.59878365730E+03  0.50400000000E-02 0.  1.
    8880023    1    1    2    0    0  0.32083409323E+03 -0.39593792962E+03 -0.19871175480E+02  0.83301046174E+03  0.65864270000E+03 0.  0.
    8880022    1    1    2    0    0 -0.32083409323E+03  0.39593792962E+03  0.23831102816E+03  0.58299670552E+03  0.15294330000E+03 0.  0.
<mgrwt>
<rscale>  0 0.74453700E+03</rscale>
<asrwt>0</asrwt>
<pdfrwt beam="1">  1        1 0.12572669E+00 0.83277342E+03</pdfrwt>
<pdfrwt beam="2">  1       -1 0.92120563E-01 0.83277342E+03</pdfrwt>
<totfact> 0.24937303E+01</totfact>
</mgrwt>
</event>
<event>
 4    5  0.7176259E-008  0.6863534E+03  0.7818608E-02  0.1005936E+00
          1   -1    0    0  501    0  0.00000000000E+00  0.00000000000E+00  0.15972847015E+04  0.15972847015E+04  0.50400000000E-02 0. -1.
         -1   -1    0    0    0  501 -0.00000000000E+00 -0.00000000000E+00 -0.14966058369E+03  0.14966058378E+03  0.50400000000E-02 0.  1.
    8880023    1    1    2    0    0  0.30519332832E+02  0.19062868578E+03  0.12689093564E+04  0.14426405951E+04  0.65864270000E+03 0.  0.
    8880022    1    1    2    0    0 -0.30519332832E+02 -0.19062868578E+03  0.17871476139E+03  0.30430469020E+03  0.15294330000E+03 0.  0.
<mgrwt>
<rscale>  0 0.53122163E+03</rscale>
<asrwt>0</asrwt>
<pdfrwt beam="1">  1        1 0.24573611E+00 0.68635336E+03</pdfrwt>
<pdfrwt beam="2">  1       -1 0.23024705E-01 0.68635336E+03</pdfrwt>
<totfact> 0.93110348E+01</totfact>
</mgrwt>
</event>
<event>
 4    5  0.7176259E-008  0.8317909E+03  0.7818608E-02  0.9645858E-01
         -1   -1    0    0    0  501 -0.00000000000E+00  0.00000000000E+00  0.35292850402E+03  0.35292850405E+03  0.50400000000E-02 0.  1.
          1   -1    0    0  501    0  0.00000000000E+00 -0.00000000000E+00 -0.21884735999E+04  0.21884735999E+04  0.50400000000E-02 0. -1.
    8880023    1    1    2    0    0 -0.45108016858E+03  0.23365056418E+03 -0.18307541214E+04  0.20108547346E+04  0.65864270000E+03 0.  0.
    8880022    1    1    2    0    0  0.45108016858E+03 -0.23365056418E+03 -0.47909745031E+01  0.53054736931E+03  0.15294330000E+03 0.  0.
<mgrwt>
<rscale>  0 0.74333955E+03</rscale>
<asrwt>0</asrwt>
<pdfrwt beam="1">  1        1 0.33668824E+00 0.83179091E+03</pdfrwt>
<pdfrwt beam="2">  1       -1 0.54296694E-01 0.83179091E+03</pdfrwt>
<totfact> 0.78798080E+00</totfact>
</mgrwt>
</event>
<event>
 4    5  0.7176259E-008  0.8250266E+03  0.7818608E-02  0.9659088E-01
         -1   -1    0    0    0  501 -0.00000000000E+00  0.00000000000E+00  0.11410305368E+04  0.11410305368E+04  0.50400000000E-02 0.  1.
          1   -1    0    0  501    0  0.00000000000E+00 -0.00000000000E+00 -0.14105675580E+04  0.14105675580E+04  0.50400000000E-02 0. -1.
    8880023    1    1    2    0    0 -0.47687035695E+03 -0.13947528156E+03 -0.12173492162E+04  0.14705808417E+04  0.65864270000E+03 0. -1.
    8880022    1    1    2    0    0  0.47687035695E+03  0.13947528156E+03  0.94781219499E+03  0.10810172531E+04  0.15294330000E+03 0.  0.
<mgrwt>
<rscale>  0 0.73505823E+03</rscale>
<asrwt>0</asrwt>
<pdfrwt beam="1">  1        1 0.21701039E+00 0.82502660E+03</pdfrwt>
<pdfrwt beam="2">  1       -1 0.17554316E+00 0.82502660E+03</pdfrwt>
<totfact> 0.17489163E+00</totfact>
</mgrwt>
</event>
<event>
 4    5  0.7176259E-008  0.7467588E+03  0.7818608E-02  0.9840679E-01
         -1   -1    0    0    0  501 -0.00000000000E+00  0.00000000000E+00  0.19125053007E+04  0.19125053007E+04  0.50400000000E-02 0.  1.
          1   -1    0    0  501    0  0.00000000000E+00 -0.00000000000E+00 -0.70885620776E+03  0.70885620778E+03  0.50400000000E-02 0. -1.
    8880023    1    1    2    0    0  0.12007475618E+03  0.33078772553E+03 -0.48449490867E+03  0.89015953021E+03  0.65864270000E+03 0. -1.
    8880022    1    1    2    0    0 -0.12007475618E+03 -0.33078772553E+03  0.16881440016E+04  0.17312019783E+04  0.15294330000E+03 0.  0.
<mgrwt>
<rscale>  0 0.63224417E+03</rscale>
<asrwt>0</asrwt>
<pdfrwt beam="1">  1        1 0.10905480E+00 0.74675878E+03</pdfrwt>
<pdfrwt beam="2">  1       -1 0.29423158E+00 0.74675878E+03</pdfrwt>
<totfact> 0.10162096E+00</totfact>
</mgrwt>
</event>
<event>
 4    5  0.7176259E-008  0.1031321E+04  0.7818608E-02  0.9341681E-01
         -1   -1    0    0    0  501 -0.00000000000E+00  0.00000000000E+00  0.10526462384E+04  0.10526462384E+04  0.50400000000E-02 0.  1.
          1   -1    0    0  501    0  0.00000000000E+00 -0.00000000000E+00 -0.85890317377E+03  0.85890317379E+03  0.50400000000E-02 0. -1.
    8880023    1    1    2    0    0  0.79148845986E+03  0.57956162783E+02  0.34858639831E+03  0.10886393261E+04  0.65864270000E+03 0.  0.
    8880022    1    1    2    0    0 -0.79148845986E+03 -0.57956162783E+02 -0.15484333367E+03  0.82291008615E+03  0.15294330000E+03 0.  0.
<mgrwt>
<rscale>  0 0.97034587E+03</rscale>
<asrwt>0</asrwt>
<pdfrwt beam="1">  1        1 0.13213895E+00 0.10313210E+04</pdfrwt>
<pdfrwt beam="2">  1       -1 0.16194557E+00 0.10313210E+04</pdfrwt>
<totfact> 0.55564829E+00</totfact>
</mgrwt>
</event>
<event>
 4    5  0.7176259E-008  0.7069061E+03  0.7818608E-02  0.9969674E-01
          1   -1    0    0  501    0  0.00000000000E+00  0.00000000000E+00  0.70715738552E+03  0.70715738554E+03  0.50400000000E-02 0. -1.
         -1   -1    0    0    0  501 -0.00000000000E+00 -0.00000000000E+00 -0.81057054647E+03  0.81057054649E+03  0.50400000000E-02 0.  1.
    8880023    1    1    2    0    0  0.13343366829E+03  0.21932057125E+03  0.48533996447E+03  0.85747952989E+03  0.65864270000E+03 0.  0.
    8880022    1    1    2    0    0 -0.13343366829E+03 -0.21932057125E+03 -0.58875312542E+03  0.66024840213E+03  0.15294330000E+03 0.  0.
<mgrwt>
<rscale>  0 0.57000196E+03</rscale>
<asrwt>0</asrwt>
<pdfrwt beam="1">  1        1 0.10879344E+00 0.70690612E+03</pdfrwt>
<pdfrwt beam="2">  1       -1 0.12470316E+00 0.70690612E+03</pdfrwt>
<totfact> 0.15609794E+01</totfact>
</mgrwt>
</event>
<event>
 4    5  0.7176259E-008  0.6708750E+03  0.7818608E-02  0.1015043E+00
         -1   -1    0    0    0  501 -0.00000000000E+00  0.00000000000E+00  0.71078585287E+03  0.71078585289E+03  0.50400000000E-02 0.  1.
          1   -1    0    0  501    0  0.00000000000E+00 -0.00000000000E+00 -0.88780987510E+03  0.88780987512E+03  0.50400000000E-02 0. -1.
    8880023    1    1    2    0    0  0.10622717808E+03 -0.70560560250E+02 -0.74154543638E+03  0.99998142308E+03  0.65864270000E+03 0. -1.
    8880022    1    1    2    0    0 -0.10622717808E+03  0.70560560250E+02  0.56452141414E+03  0.59861430493E+03  0.15294330000E+03 0.  0.
<mgrwt>
<rscale>  0 0.49518555E+03</rscale>
<asrwt>0</asrwt>
<pdfrwt beam="1">  1        1 0.13658613E+00 0.67087496E+03</pdfrwt>
<pdfrwt beam="2">  1       -1 0.10935167E+00 0.67087496E+03</pdfrwt>
<totfact> 0.14996943E+01</totfact>
</mgrwt>
</event>
<event>
 4    5  0.7176259E-008  0.6915510E+03  0.7818608E-02  0.1003424E+00
          1   -1    0    0  501    0  0.00000000000E+00  0.00000000000E+00  0.34158799183E+03  0.34158799187E+03  0.50400000000E-02 0. -1.
         -1   -1    0    0    0  501 -0.00000000000E+00 -0.00000000000E+00 -0.69887242579E+03  0.69887242581E+03  0.50400000000E-02 0.  1.
    8880023    1    1    2    0    0 -0.43072845789E+02 -0.20634265873E+03 -0.36078617984E+03  0.78000604913E+03  0.65864270000E+03 0.  1.
    8880022    1    1    2    0    0  0.43072845789E+02  0.20634265873E+03  0.35017458811E+01  0.26045436855E+03  0.15294330000E+03 0. -1.
<mgrwt>
<rscale>  0 0.54174044E+03</rscale>
<asrwt>0</asrwt>
<pdfrwt beam="1">  1        1 0.52551999E-01 0.69155099E+03</pdfrwt>
<pdfrwt beam="2">  1       -1 0.10751883E+00 0.69155099E+03</pdfrwt>
<totfact> 0.60991644E+01</totfact>
</mgrwt>
</event>
<event>
 4    5  0.7176259E-008  0.8040657E+03  0.7818608E-02  0.9702073E-01
         -1   -1    0    0    0  501 -0.00000000000E+00  0.00000000000E+00  0.11905559188E+04  0.11905559188E+04  0.50400000000E-02 0.  1.
          1   -1    0    0  501    0  0.00000000000E+00 -0.00000000000E+00 -0.11413334932E+04  0.11413334932E+04  0.50400000000E-02 0. -1.
    8880023    1    1    2    0    0 -0.43340345199E+03  0.15771127359E+03 -0.93564740436E+03  0.12336764850E+04  0.65864270000E+03 0.  0.
    8880022    1    1    2    0    0  0.43340345199E+03 -0.15771127359E+03  0.98486982999E+03  0.10982129270E+04  0.15294330000E+03 0.  1.
<mgrwt>
<rscale>  0 0.70893487E+03</rscale>
<asrwt>0</asrwt>
<pdfrwt beam="1">  1        1 0.17558977E+00 0.80406567E+03</pdfrwt>
<pdfrwt beam="2">  1       -1 0.18316245E+00 0.80406567E+03</pdfrwt>
<totfact> 0.24096588E+00</totfact>
</mgrwt>
</event>
<event>
 4    5  0.7176259E-008  0.7818264E+03  0.7818608E-02  0.9751564E-01
          1   -1    0    0  501    0  0.00000000000E+00  0.00000000000E+00  0.36924928646E+04  0.36924928646E+04  0.50400000000E-02 0. -1.
         -1   -1    0    0    0  501 -0.00000000000E+00 -0.00000000000E+00 -0.17828120990E+03  0.17828120997E+03  0.50400000000E-02 0.  1.
    8880023    1    1    2    0    0 -0.56465826037E+02 -0.41743733577E+03  0.32664249835E+04  0.33586879429E+04  0.65864270000E+03 0. -1.
    8880022    1    1    2    0    0  0.56465826037E+02  0.41743733577E+03  0.24778667120E+03  0.51208613166E+03  0.15294330000E+03 0.  0.
<mgrwt>
<rscale>  0 0.68027952E+03</rscale>
<asrwt>0</asrwt>
<pdfrwt beam="1">  1        1 0.56807582E+00 0.78182640E+03</pdfrwt>
<pdfrwt beam="2">  1       -1 0.27427879E-01 0.78182640E+03</pdfrwt>
<totfact> 0.22607788E+00</totfact>
</mgrwt>
</event>
<event>
 4    5  0.7176259E-008  0.9266207E+03  0.7818608E-02  0.9484581E-01
          1   -1    0    0  501    0  0.00000000000E+00  0.00000000000E+00  0.50052548832E+03  0.50052548834E+03  0.50400000000E-02 0. -1.
         -1   -1    0    0    0  501 -0.00000000000E+00 -0.00000000000E+00 -0.20854016783E+04  0.20854016783E+04  0.50400000000E-02 0.  1.
    8880023    1    1    2    0    0  0.63347927469E+03 -0.15336168796E+03 -0.69465974663E+02  0.92922092459E+03  0.65864270000E+03 0. -1.
    8880022    1    1    2    0    0 -0.63347927469E+03  0.15336168796E+03 -0.15154102153E+04  0.16567062420E+04  0.15294330000E+03 0.  0.
<mgrwt>
<rscale>  0 0.85430195E+03</rscale>
<asrwt>0</asrwt>
<pdfrwt beam="1">  1        1 0.77003922E-01 0.92662074E+03</pdfrwt>
<pdfrwt beam="2">  1       -1 0.32083102E+00 0.92662074E+03</pdfrwt>
<totfact> 0.10994523E+00</totfact>
</mgrwt>
</event>
<event>
 4    5  0.7176259E-008  0.7331019E+03  0.7818608E-02  0.9880516E-01
          1   -1    0    0  501    0  0.00000000000E+00  0.00000000000E+00  0.12645170587E+04  0.12645170588E+04  0.50400000000E-02 0. -1.
         -1   -1    0    0    0  501 -0.00000000000E+00 -0.00000000000E+00 -0.93237695719E+03  0.93237695720E+03  0.50400000000E-02 0.  1.
    8880023    1    1    2    0    0  0.72600074388E+02 -0.31361982084E+03  0.11163234786E+04  0.13355210511E+04  0.65864270000E+03 0. -1.
    8880022    1    1    2    0    0 -0.72600074388E+02  0.31361982084E+03 -0.78418337701E+03  0.86137296487E+03  0.15294330000E+03 0.  0.
<mgrwt>
<rscale>  0 0.61214906E+03</rscale>
<asrwt>0</asrwt>
<pdfrwt beam="1">  1        1 0.19454109E+00 0.73310188E+03</pdfrwt>
<pdfrwt beam="2">  1       -1 0.14344261E+00 0.73310188E+03</pdfrwt>
<totfact> 0.39350174E+00</totfact>
</mgrwt>
</event>
<event>
 4    5  0.7176259E-008  0.6837100E+03  0.7818608E-02  0.1007298E+00
         -1   -1    0    0    0  501 -0.00000000000E+00  0.00000000000E+00  0.32282463172E+03  0.32282463176E+03  0.50400000000E-02 0.  1.
          1   -1    0    0  501    0  0.00000000000E+00 -0.00000000000E+00 -0.10861456021E+04  0.10861456021E+04  0.50400000000E-02 0. -1.
    8880023    1    1    2    0    0 -0.12140050943E+03 -0.13751751234E+03 -0.90273409392E+03  0.11324258035E+04  0.65864270000E+03 0. -1.
    8880022    1    1    2    0    0  0.12140050943E+03  0.13751751234E+03  0.13941312358E+03  0.27654443030E+03  0.15294330000E+03 0.  0.
<mgrwt>
<rscale>  0 0.52562638E+03</rscale>
<asrwt>0</asrwt>
<pdfrwt beam="1">  1        1 0.16709932E+00 0.68370999E+03</pdfrwt>
<pdfrwt beam="2">  1       -1 0.49665329E-01 0.68370999E+03</pdfrwt>
<totfact> 0.54449296E+01</totfact>
</mgrwt>
</event>
<event>
 4    5  0.7176259E-008  0.6790070E+03  0.7818608E-02  0.1009891E+00
         -1   -1    0    0    0  501 -0.00000000000E+00  0.00000000000E+00  0.79925097243E+03  0.79925097244E+03  0.50400000000E-02 0.  1.
          1   -1    0    0  501    0  0.00000000000E+00 -0.00000000000E+00 -0.56867739822E+03  0.56867739824E+03  0.50400000000E-02 0. -1.
    8880023    1    1    2    0    0 -0.15281480425E+03 -0.62353694946E+02 -0.33652058822E+03  0.75782363399E+03  0.65864270000E+03 0.  0.
    8880022    1    1    2    0    0  0.15281480425E+03  0.62353694946E+02  0.56709416243E+03  0.61010473670E+03  0.15294330000E+03 0.  1.
<mgrwt>
<rscale>  0 0.51517982E+03</rscale>
<asrwt>0</asrwt>
<pdfrwt beam="1">  1        1 0.87488831E-01 0.67900704E+03</pdfrwt>
<pdfrwt beam="2">  1       -1 0.12296169E+00 0.67900704E+03</pdfrwt>
<totfact> 0.22296808E+01</totfact>
</mgrwt>
</event>
<event>
 4    5  0.7176259E-008  0.1263312E+04  0.7818608E-02  0.9097908E-01
         -1   -1    0    0    0  501 -0.00000000000E+00  0.00000000000E+00  0.21117548573E+04  0.21117548573E+04  0.50400000000E-02 0.  1.
          1   -1    0    0  501    0  0.00000000000E+00 -0.00000000000E+00 -0.15930558534E+04  0.15930558534E+04  0.50400000000E-02 0. -1.
    8880023    1    1    2    0    0 -0.10636084149E+04 -0.17573791074E+03 -0.11526149601E+04  0.17101105596E+04  0.65864270000E+03 0.  0.
    8880022    1    1    2    0    0  0.10636084149E+04  0.17573791074E+03  0.16713139641E+04  0.19947001511E+04  0.15294330000E+03 0.  0.
<mgrwt>
<rscale>  0 0.12172293E+04</rscale>
<asrwt>0</asrwt>
<pdfrwt beam="1">  1        1 0.24508552E+00 0.12633119E+04</pdfrwt>
<pdfrwt beam="2">  1       -1 0.32488536E+00 0.12633119E+04</pdfrwt>
<totfact> 0.12527053E-01</totfact>
</mgrwt>
</event>
<event>
 4    5  0.7176259E-008  0.7852922E+03  0.7818608E-02  0.9743549E-01
         -1   -1    0    0    0  501 -0.00000000000E+00  0.00000000000E+00  0.12732195922E+04  0.12732195922E+04  0.50400000000E-02 0.  1.
          1   -1    0    0  501    0  0.00000000000E+00 -0.00000000000E+00 -0.38531802309E+03  0.38531802313E+03  0.50400000000E-02 0. -1.
    8880023    1    1    2    0    0  0.42746504437E+03 -0.12136282092E+02  0.16131952369E+03  0.80169061894E+03  0.65864270000E+03 0. -1.
    8880022    1    1    2    0    0 -0.42746504437E+03  0.12136282092E+02  0.72658204545E+03  0.85684699643E+03  0.15294330000E+03 0.  0.
<mgrwt>
<rscale>  0 0.68482048E+03</rscale>
<asrwt>0</asrwt>
<pdfrwt beam="1">  1        1 0.59279695E-01 0.78529221E+03</pdfrwt>
<pdfrwt beam="2">  1       -1 0.19587994E+00 0.78529221E+03</pdfrwt>
<totfact> 0.10406322E+01</totfact>
</mgrwt>
</event>
<event>
 4    5  0.7176259E-008  0.1329708E+04  0.7818608E-02  0.9040321E-01
          1   -1    0    0  501    0  0.00000000000E+00  0.00000000000E+00  0.15108805881E+04  0.15108805881E+04  0.50400000000E-02 0. -1.
         -1   -1    0    0    0  501 -0.00000000000E+00 -0.00000000000E+00 -0.17455520283E+04  0.17455520283E+04  0.50400000000E-02 0.  1.
    8880023    1    1    2    0    0  0.96047698091E+03 -0.64171371757E+03 -0.11630676096E+04  0.17665924818E+04  0.65864270000E+03 0.  0.
    8880022    1    1    2    0    0 -0.96047698091E+03  0.64171371757E+03  0.92839616941E+03  0.14898401346E+04  0.15294330000E+03 0.  0.
<mgrwt>
<rscale>  0 0.12865237E+04</rscale>
<asrwt>0</asrwt>
<pdfrwt beam="1">  1        1 0.23244317E+00 0.13297078E+04</pdfrwt>
<pdfrwt beam="2">  1       -1 0.26854647E+00 0.13297078E+04</pdfrwt>
<totfact> 0.32758046E-01</totfact>
</mgrwt>
</event>
<event>
 4    5  0.7176259E-008  0.1037505E+04  0.7818608E-02  0.9334054E-01
          1   -1    0    0  501    0  0.00000000000E+00  0.00000000000E+00  0.88089112978E+03  0.88089112980E+03  0.50400000000E-02 0. -1.
         -1   -1    0    0    0  501 -0.00000000000E+00 -0.00000000000E+00 -0.12229603743E+04  0.12229603743E+04  0.50400000000E-02 0.  1.
    8880023    1    1    2    0    0  0.18661180951E+03  0.77960460557E+03  0.28354761416E+03  0.10755541661E+04  0.65864270000E+03 0.  0.
    8880022    1    1    2    0    0 -0.18661180951E+03 -0.77960460557E+03 -0.62561685869E+03  0.10282973380E+04  0.15294330000E+03 0.  0.
<mgrwt>
<rscale>  0 0.97707292E+03</rscale>
<asrwt>0</asrwt>
<pdfrwt beam="1">  1        1 0.13552171E+00 0.10375054E+04</pdfrwt>
<pdfrwt beam="2">  1       -1 0.18814775E+00 0.10375054E+04</pdfrwt>
<totfact> 0.34326351E+00</totfact>
</mgrwt>
</event>
<event>
 4    5  0.7176259E-008  0.1119920E+04  0.7818608E-02  0.9239195E-01
          1   -1    0    0  501    0  0.00000000000E+00  0.00000000000E+00  0.18711287226E+04  0.18711287227E+04  0.50400000000E-02 0. -1.
         -1   -1    0    0    0  501 -0.00000000000E+00 -0.00000000000E+00 -0.76923798398E+03  0.76923798400E+03  0.50400000000E-02 0.  1.
    8880023    1    1    2    0    0 -0.90013746163E+03 -0.10081457496E+03  0.12841251032E+04  0.17038774942E+04  0.65864270000E+03 0.  0.
    8880022    1    1    2    0    0  0.90013746163E+03  0.10081457496E+03 -0.18223436455E+03  0.93648921243E+03  0.15294330000E+03 0.  0.
<mgrwt>
<rscale>  0 0.10657870E+04</rscale>
<asrwt>0</asrwt>
<pdfrwt beam="1">  1        1 0.28786596E+00 0.11199202E+04</pdfrwt>
<pdfrwt beam="2">  1       -1 0.11834431E+00 0.11199202E+04</pdfrwt>
<totfact> 0.23194627E+00</totfact>
</mgrwt>
</event>
<event>
 4    5  0.1165471E-007  0.1158694E+04  0.7818608E-02  0.9198359E-01
         -1   -1    0    0    0  501 -0.00000000000E+00  0.00000000000E+00  0.24056387429E+04  0.24056387429E+04  0.50400000000E-02 0.  1.
          1   -1    0    0  501    0  0.00000000000E+00 -0.00000000000E+00 -0.28188749108E+04  0.28188749108E+04  0.50400000000E-02 0. -1.
    8880023    1    1    2    0    0  0.86092958529E+03  0.40934298736E+03 -0.25932135586E+04  0.28403042441E+04  0.65864270000E+03 0.  0.
    8880022    1    1    2    0    0 -0.86092958529E+03 -0.40934298736E+03  0.21799773907E+04  0.23842094096E+04  0.15294330000E+03 0.  0.
<mgrwt>
<rscale>  0 0.11070378E+04</rscale>
<asrwt>0</asrwt>
<pdfrwt beam="1">  1        1 0.43367306E+00 0.11586939E+04</pdfrwt>
<pdfrwt beam="2">  1       -1 0.37009827E+00 0.11586939E+04</pdfrwt>
<totfact> 0.92862937E-03</totfact>
</mgrwt>
</event>
<event>
 4    5  0.7176259E-008  0.7400049E+03  0.7818608E-02  0.9859933E-01
          1   -1    0    0  501    0  0.00000000000E+00  0.00000000000E+00  0.33111406402E+04  0.33111406402E+04  0.50400000000E-02 0. -1.
         -1   -1    0    0    0  501 -0.00000000000E+00 -0.00000000000E+00 -0.28931257022E+03  0.28931257027E+03  0.50400000000E-02 0.  1.
    8880023    1    1    2    0    0  0.27500103666E+03 -0.19537524416E+03  0.31286443522E+04  0.32149685449E+04  0.65864270000E+03 0. -1.
    8880022    1    1    2    0    0 -0.27500103666E+03  0.19537524416E+03 -0.10681628222E+03  0.38548466553E+03  0.15294330000E+03 0.  0.
<mgrwt>
<rscale>  0 0.62243033E+03</rscale>
<asrwt>0</asrwt>
<pdfrwt beam="1">  1        1 0.50940623E+00 0.74000491E+03</pdfrwt>
<pdfrwt beam="2">  1       -1 0.44509628E-01 0.74000491E+03</pdfrwt>
<totfact> 0.18981606E+00</totfact>
</mgrwt>
</event>
<event>
 4    5  0.7176259E-008  0.1142918E+04  0.7818608E-02  0.9214713E-01
         -1   -1    0    0    0  501 -0.00000000000E+00  0.00000000000E+00  0.60118556611E+03  0.60118556613E+03  0.50400000000E-02 0.  1.
          1   -1    0    0  501    0  0.00000000000E+00 -0.00000000000E+00 -0.32039884013E+04  0.32039884013E+04  0.50400000000E-02 0. -1.
    8880023    1    1    2    0    0 -0.91835514491E+03 -0.17051164354E+03 -0.26200980758E+04  0.28585266355E+04  0.65864270000E+03 0.  0.
    8880022    1    1    2    0    0  0.91835514491E+03  0.17051164354E+03  0.17295240567E+02  0.94664733197E+03  0.15294330000E+03 0.  0.
<mgrwt>
<rscale>  0 0.10902852E+04</rscale>
<asrwt>0</asrwt>
<pdfrwt beam="1">  1        1 0.49292128E+00 0.11429176E+04</pdfrwt>
<pdfrwt beam="2">  1       -1 0.92490089E-01 0.11429176E+04</pdfrwt>
<totfact> 0.48401768E-01</totfact>
</mgrwt>
</event>
<event>
 4    5  0.7176259E-008  0.9495063E+03  0.7818608E-02  0.9450825E-01
         -1   -1    0    0    0  501 -0.00000000000E+00  0.00000000000E+00  0.13951611269E+04  0.13951611269E+04  0.50400000000E-02 0.  1.
          1   -1    0    0  501    0  0.00000000000E+00 -0.00000000000E+00 -0.57837203523E+03  0.57837203525E+03  0.50400000000E-02 0. -1.
    8880023    1    1    2    0    0 -0.31296713785E+03  0.60811484492E+03  0.74103269025E+02  0.95239361334E+03  0.65864270000E+03 0. -1.
    8880022    1    1    2    0    0  0.31296713785E+03 -0.60811484492E+03  0.74268582262E+03  0.10211395488E+04  0.15294330000E+03 0.  1.
<mgrwt>
<rscale>  0 0.88008472E+03</rscale>
<asrwt>0</asrwt>
<pdfrwt beam="1">  1        1 0.88980313E-01 0.94950635E+03</pdfrwt>
<pdfrwt beam="2">  1       -1 0.21464017E+00 0.94950635E+03</pdfrwt>
<totfact> 0.43654703E+00</totfact>
</mgrwt>
</event>
<event>
 4    5  0.7176259E-008  0.9755848E+03  0.7818608E-02  0.9414221E-01
         -1   -1    0    0    0  501 -0.00000000000E+00  0.00000000000E+00  0.14138281291E+04  0.14138281291E+04  0.50400000000E-02 0.  1.
          1   -1    0    0  501    0  0.00000000000E+00 -0.00000000000E+00 -0.10643824250E+04  0.10643824250E+04  0.50400000000E-02 0. -1.
    8880023    1    1    2    0    0 -0.62552575842E+03  0.35591158743E+03 -0.69700331351E+03  0.11989909749E+04  0.65864270000E+03 0.  0.
    8880022    1    1    2    0    0  0.62552575842E+03 -0.35591158743E+03  0.10464490176E+04  0.12792195793E+04  0.15294330000E+03 0.  0.
<mgrwt>
<rscale>  0 0.90914522E+03</rscale>
<asrwt>0</asrwt>
<pdfrwt beam="1">  1        1 0.16375114E+00 0.97558482E+03</pdfrwt>
<pdfrwt beam="2">  1       -1 0.21751202E+00 0.97558482E+03</pdfrwt>
<totfact> 0.15571242E+00</totfact>
</mgrwt>
</event>
<event>
 4    5  0.7176259E-008  0.1025361E+04  0.7818608E-02  0.9349104E-01
          1   -1    0    0  501    0  0.00000000000E+00  0.00000000000E+00  0.16194115648E+04  0.16194115648E+04  0.50400000000E-02 0. -1.
         -1   -1    0    0    0  501 -0.00000000000E+00 -0.00000000000E+00 -0.96898432429E+03  0.96898432431E+03  0.50400000000E-02 0.  1.
    8880023    1    1    2    0    0  0.40809570335E+02 -0.78478676379E+03  0.12290437402E+04  0.16005981404E+04  0.65864270000E+03 0.  0.
    8880022    1    1    2    0    0 -0.40809570335E+02  0.78478676379E+03 -0.57861649964E+03  0.98779774869E+03  0.15294330000E+03 0.  0.
<mgrwt>
<rscale>  0 0.96385233E+03</rscale>
<asrwt>0</asrwt>
<pdfrwt beam="1">  1        1 0.24914024E+00 0.10253613E+04</pdfrwt>
<pdfrwt beam="2">  1       -1 0.14907451E+00 0.10253613E+04</pdfrwt>
<totfact> 0.19257253E+00</totfact>
</mgrwt>
</event>
<event>
 4    5  0.7176259E-008  0.7349121E+03  0.7818608E-02  0.9875024E-01
          1   -1    0    0  501    0  0.00000000000E+00  0.00000000000E+00  0.68990591650E+03  0.68990591652E+03  0.50400000000E-02 0. -1.
         -1   -1    0    0    0  501 -0.00000000000E+00 -0.00000000000E+00 -0.96323123796E+03  0.96323123797E+03  0.50400000000E-02 0.  1.
    8880023    1    1    2    0    0  0.29890568189E+03 -0.13015732518E+03  0.43822711621E+03  0.85565106651E+03  0.65864270000E+03 0. -1.
    8880022    1    1    2    0    0 -0.29890568189E+03  0.13015732518E+03 -0.71155243767E+03  0.79748608799E+03  0.15294330000E+03 0.  0.
<mgrwt>
<rscale>  0 0.61487167E+03</rscale>
<asrwt>0</asrwt>
<pdfrwt beam="1">  1        1 0.10613937E+00 0.73491206E+03</pdfrwt>
<pdfrwt beam="2">  1       -1 0.14818942E+00 0.73491206E+03</pdfrwt>
<totfact> 0.10367224E+01</totfact>
</mgrwt>
</event>
<event>
 4    5  0.7176259E-008  0.1189839E+04  0.7818608E-02  0.9167063E-01
         -1   -1    0    0    0  501 -0.00000000000E+00  0.00000000000E+00  0.12564522004E+04  0.12564522004E+04  0.50400000000E-02 0.  1.
          1   -1    0    0  501    0  0.00000000000E+00 -0.00000000000E+00 -0.19312830896E+04  0.19312830896E+04  0.50400000000E-02 0. -1.
    8880023    1    1    2    0    0 -0.98980473850E+03 -0.46836193023E+02 -0.14820161558E+04  0.19005496946E+04  0.65864270000E+03 0.  0.
    8880022    1    1    2    0    0  0.98980473850E+03  0.46836193023E+02  0.80718526658E+03  0.12871855954E+04  0.15294330000E+03 0.  0.
<mgrwt>
<rscale>  0 0.11399954E+04</rscale>
<asrwt>0</asrwt>
<pdfrwt beam="1">  1        1 0.29712048E+00 0.11898392E+04</pdfrwt>
<pdfrwt beam="2">  1       -1 0.19330034E+00 0.11898392E+04</pdfrwt>
<totfact> 0.54624132E-01</totfact>
</mgrwt>
</event>
<event>
 4    5  0.7176259E-008  0.1262348E+04  0.7818608E-02  0.9098777E-01
          1   -1    0    0  501    0  0.00000000000E+00  0.00000000000E+00  0.13178407576E+04  0.13178407576E+04  0.50400000000E-02 0. -1.
         -1   -1    0    0    0  501 -0.00000000000E+00 -0.00000000000E+00 -0.14252292213E+04  0.14252292213E+04  0.50400000000E-02 0.  1.
    8880023    1    1    2    0    0  0.80034367145E+03 -0.72052837467E+03  0.64784315166E+03  0.14188805752E+04  0.65864270000E+03 0.  0.
    8880022    1    1    2    0    0 -0.80034367145E+03  0.72052837467E+03 -0.75523161532E+03  0.13241894037E+04  0.15294330000E+03 0.  0.
<mgrwt>
<rscale>  0 0.12162196E+04</rscale>
<asrwt>0</asrwt>
<pdfrwt beam="1">  1        1 0.20274473E+00 0.12623476E+04</pdfrwt>
<pdfrwt beam="2">  1       -1 0.21926603E+00 0.12623476E+04</pdfrwt>
<totfact> 0.95101385E-01</totfact>
</mgrwt>
</event>
<event>
 4    5  0.7176259E-008  0.8839288E+03  0.7818608E-02  0.9552340E-01
         -1   -1    0    0    0  501 -0.00000000000E+00  0.00000000000E+00  0.50608396137E+03  0.50608396139E+03  0.50400000000E-02 0.  1.
          1   -1    0    0  501    0  0.00000000000E+00 -0.00000000000E+00 -0.14177406481E+04  0.14177406481E+04  0.50400000000E-02 0. -1.
    8880023    1    1    2    0    0  0.46428824631E+03 -0.36325804228E+03 -0.96960866151E+03  0.13120484533E+04  0.65864270000E+03 0.  0.
    8880022    1    1    2    0    0 -0.46428824631E+03  0.36325804228E+03  0.57951974792E+02  0.61177615624E+03  0.15294330000E+03 0.  0.
<mgrwt>
<rscale>  0 0.80532612E+03</rscale>
<asrwt>0</asrwt>
<pdfrwt beam="1">  1        1 0.21811394E+00 0.88392884E+03</pdfrwt>
<pdfrwt beam="2">  1       -1 0.77859072E-01 0.88392884E+03</pdfrwt>
<totfact> 0.12561477E+01</totfact>
</mgrwt>
</event>
<event>
 4    5  0.7176259E-008  0.7477731E+03  0.7818608E-02  0.9837857E-01
         -1   -1    0    0    0  501 -0.00000000000E+00  0.00000000000E+00  0.44475308856E+03  0.44475308859E+03  0.50400000000E-02 0.  1.
          1   -1    0    0  501    0  0.00000000000E+00 -0.00000000000E+00 -0.12287322185E+04  0.12287322186E+04  0.50400000000E-02 0. -1.
    8880023    1    1    2    0    0 -0.11370274131E+01 -0.35405234589E+03 -0.98649208616E+03  0.12378736603E+04  0.65864270000E+03 0.  0.
    8880022    1    1    2    0    0  0.11370274131E+01  0.35405234589E+03  0.20251295618E+03  0.43561164688E+03  0.15294330000E+03 0.  0.
<mgrwt>
<rscale>  0 0.63369901E+03</rscale>
<asrwt>0</asrwt>
<pdfrwt beam="1">  1        1 0.18903572E+00 0.74777307E+03</pdfrwt>
<pdfrwt beam="2">  1       -1 0.68423552E-01 0.74777307E+03</pdfrwt>
<totfact> 0.22696124E+01</totfact>
</mgrwt>
</event>
<event>
 4    5  0.7176259E-008  0.1362921E+04  0.7818608E-02  0.9013043E-01
          1   -1    0    0  501    0  0.00000000000E+00  0.00000000000E+00  0.17173834150E+04  0.17173834150E+04  0.50400000000E-02 0. -1.
         -1   -1    0    0    0  501 -0.00000000000E+00 -0.00000000000E+00 -0.13258797551E+04  0.13258797551E+04  0.50400000000E-02 0.  1.
    8880023    1    1    2    0    0  0.10701805425E+04 -0.52769157810E+03  0.10045174959E+04  0.16931067306E+04  0.65864270000E+03 0.  0.
    8880022    1    1    2    0    0 -0.10701805425E+04  0.52769157810E+03 -0.61301383596E+03  0.13501564396E+04  0.15294330000E+03 0.  0.
<mgrwt>
<rscale>  0 0.13210426E+04</rscale>
<asrwt>0</asrwt>
<pdfrwt beam="1">  1        1 0.26421283E+00 0.13629215E+04</pdfrwt>
<pdfrwt beam="2">  1       -1 0.20398150E+00 0.13629215E+04</pdfrwt>
<totfact> 0.62954424E-01</totfact>
</mgrwt>
</event>
<event>
 4    5  0.7176259E-008  0.7009129E+03  0.7818608E-02  0.9993435E-01
         -1   -1    0    0    0  501 -0.00000000000E+00  0.00000000000E+00  0.95211110308E+03  0.95211110309E+03  0.50400000000E-02 0.  1.
          1   -1    0    0  501    0  0.00000000000E+00 -0.00000000000E+00 -0.42320655854E+03  0.42320655857E+03  0.50400000000E-02 0. -1.
    8880023    1    1    2    0    0  0.25368782719E+02  0.23838028954E+03 -0.77861241772E+02  0.70522430248E+03  0.65864270000E+03 0. -1.
    8880022    1    1    2    0    0 -0.25368782719E+02 -0.23838028954E+03  0.60676578631E+03  0.67009335919E+03  0.15294330000E+03 0.  0.
<mgrwt>
<rscale>  0 0.55939043E+03</rscale>
<asrwt>0</asrwt>
<pdfrwt beam="1">  1        1 0.65108702E-01 0.70091294E+03</pdfrwt>
<pdfrwt beam="2">  1       -1 0.14647863E+00 0.70091294E+03</pdfrwt>
<totfact> 0.21327541E+01</totfact>
</mgrwt>
</event>
<event>
 4    5  0.7176259E-008  0.6862389E+03  0.7818608E-02  0.1005994E+00
         -1   -1    0    0    0  501 -0.00000000000E+00  0.00000000000E+00  0.30542755984E+03  0.30542755988E+03  0.50400000000E-02 0.  1.
          1   -1    0    0  501    0  0.00000000000E+00 -0.00000000000E+00 -0.14957282240E+04  0.14957282240E+04  0.50400000000E-02 0. -1.
    8880023    1    1    2    0    0  0.72852058059E+02  0.17834308273E+03 -0.13454389940E+04  0.15103410113E+04  0.65864270000E+03 0. -1.
    8880022    1    1    2    0    0 -0.72852058059E+02 -0.17834308273E+03  0.15513832989E+03  0.29081477256E+03  0.15294330000E+03 0.  0.
<mgrwt>
<rscale>  0 0.53098313E+03</rscale>
<asrwt>0</asrwt>
<pdfrwt beam="1">  1        1 0.23011203E+00 0.68623894E+03</pdfrwt>
<pdfrwt beam="2">  1       -1 0.46988857E-01 0.68623894E+03</pdfrwt>
<totfact> 0.30932494E+01</totfact>
</mgrwt>
</event>
<event>
 4    5  0.7176259E-008  0.1155659E+04  0.7818608E-02  0.9201479E-01
          1   -1    0    0  501    0  0.00000000000E+00  0.00000000000E+00  0.20189376679E+04  0.20189376679E+04  0.50400000000E-02 0. -1.
         -1   -1    0    0    0  501 -0.00000000000E+00 -0.00000000000E+00 -0.89827237788E+03  0.89827237790E+03  0.50400000000E-02 0.  1.
    8880023    1    1    2    0    0 -0.91255835649E+03 -0.26262870366E+03  0.14910954327E+04  0.18865079871E+04  0.65864270000E+03 0.  0.
    8880022    1    1    2    0    0  0.91255835649E+03  0.26262870366E+03 -0.37043014270E+03  0.10307020586E+04  0.15294330000E+03 0.  0.
<mgrwt>
<rscale>  0 0.11038178E+04</rscale>
<asrwt>0</asrwt>
<pdfrwt beam="1">  1        1 0.31060579E+00 0.11556586E+04</pdfrwt>
<pdfrwt beam="2">  1       -1 0.13819575E+00 0.11556586E+04</pdfrwt>
<totfact> 0.12409193E+00</totfact>
</mgrwt>
</event>
<event>
 4    5  0.7176259E-008  0.1620340E+04  0.7818608E-02  0.8829025E-01
          1   -1    0    0  501    0  0.00000000000E+00  0.00000000000E+00  0.19367919730E+04  0.19367919730E+04  0.50400000000E-02 0. -1.
         -1   -1    0    0    0  501 -0.00000000000E+00 -0.00000000000E+00 -0.15094570016E+04  0.15094570017E+04  0.50400000000E-02 0.  1.
    8880023    1    1    2    0    0  0.11645079858E+04 -0.91411787379E+03 -0.49627933604E+03  0.16946367522E+04  0.65864270000E+03 0.  0.
    8880022    1    1    2    0    0 -0.11645079858E+04  0.91411787379E+03  0.92361430735E+03  0.17516122225E+04  0.15294330000E+03 0.  0.
<mgrwt>
<rscale>  0 0.15862742E+04</rscale>
<asrwt>0</asrwt>
<pdfrwt beam="1">  1        1 0.29796799E+00 0.16203396E+04</pdfrwt>
<pdfrwt beam="2">  1       -1 0.23222416E+00 0.16203396E+04</pdfrwt>
<totfact> 0.27958310E-01</totfact>
</mgrwt>
</event>
<event>
 4    5  0.7176259E-008  0.8754904E+03  0.7818608E-02  0.9566582E-01
          1   -1    0    0  501    0  0.00000000000E+00  0.00000000000E+00  0.14343267787E+04  0.14343267787E+04  0.50400000000E-02 0. -1.
         -1   -1    0    0    0  501 -0.00000000000E+00 -0.00000000000E+00 -0.74124250176E+03  0.74124250177E+03  0.50400000000E-02 0.  1.
    8880023    1    1    2    0    0  0.57064900813E+03  0.83862589679E+02  0.11347198217E+04  0.14332035809E+04  0.65864270000E+03 0. -1.
    8880022    1    1    2    0    0 -0.57064900813E+03 -0.83862589679E+02 -0.44163554476E+03  0.74236569953E+03  0.15294330000E+03 0.  0.
<mgrwt>
<rscale>  0 0.79548076E+03</rscale>
<asrwt>0</asrwt>
<pdfrwt beam="1">  1        1 0.22066566E+00 0.87549039E+03</pdfrwt>
<pdfrwt beam="2">  1       -1 0.11403731E+00 0.87549039E+03</pdfrwt>
<totfact> 0.51988023E+00</totfact>
</mgrwt>
</event>
<event>
 4    5  0.7176259E-008  0.1839702E+04  0.7818608E-02  0.8700887E-01
         -1   -1    0    0    0  501 -0.00000000000E+00  0.00000000000E+00  0.13408363543E+04  0.13408363543E+04  0.50400000000E-02 0.  1.
          1   -1    0    0  501    0  0.00000000000E+00 -0.00000000000E+00 -0.48989124673E+04  0.48989124673E+04  0.50400000000E-02 0. -1.
    8880023    1    1    2    0    0  0.17177295206E+04  0.98409578504E+01 -0.40484374730E+04  0.44468356985E+04  0.65864270000E+03 0.  0.
    8880022    1    1    2    0    0 -0.17177295206E+04 -0.98409578504E+01  0.49036136003E+03  0.17929131231E+04  0.15294330000E+03 0.  0.
<mgrwt>
<rscale>  0 0.18102130E+04</rscale>
<asrwt>0</asrwt>
<pdfrwt beam="1">  1        1 0.75367883E+00 0.18397015E+04</pdfrwt>
<pdfrwt beam="2">  1       -1 0.20628252E+00 0.18397015E+04</pdfrwt>
<totfact> 0.14537409E-03</totfact>
</mgrwt>
</event>
<event>
 4    5  0.7176259E-008  0.6787312E+03  0.7818608E-02  0.1010051E+00
         -1   -1    0    0    0  501 -0.00000000000E+00  0.00000000000E+00  0.79238322472E+03  0.79238322473E+03  0.50400000000E-02 0.  1.
          1   -1    0    0  501    0  0.00000000000E+00 -0.00000000000E+00 -0.22938265920E+04  0.22938265920E+04  0.50400000000E-02 0. -1.
    8880023    1    1    2    0    0 -0.16363278626E+03 -0.94974754464E+01 -0.22263071765E+04  0.23274706746E+04  0.65864270000E+03 0. -1.
    8880022    1    1    2    0    0  0.16363278626E+03  0.94974754464E+01  0.72486380925E+03  0.75873914210E+03  0.15294330000E+03 0.  0.
<mgrwt>
<rscale>  0 0.51454521E+03</rscale>
<asrwt>0</asrwt>
<pdfrwt beam="1">  1        1 0.35289640E+00 0.67873124E+03</pdfrwt>
<pdfrwt beam="2">  1       -1 0.12190511E+00 0.67873124E+03</pdfrwt>
<totfact> 0.12087020E+00</totfact>
</mgrwt>
</event>
<event>
 4    5  0.7176259E-008  0.1106926E+04  0.7818608E-02  0.9253384E-01
         -1   -1    0    0    0  501 -0.00000000000E+00  0.00000000000E+00  0.11798485696E+04  0.11798485696E+04  0.50400000000E-02 0.  1.
          1   -1    0    0  501    0  0.00000000000E+00 -0.00000000000E+00 -0.15867059869E+04  0.15867059869E+04  0.50400000000E-02 0. -1.
    8880023    1    1    2    0    0 -0.32323782013E+03 -0.82884986784E+03 -0.11508361190E+04  0.15967807522E+04  0.65864270000E+03 0.  0.
    8880022    1    1    2    0    0  0.32323782013E+03  0.82884986784E+03  0.74397870164E+03  0.11697738043E+04  0.15294330000E+03 0.  0.
<mgrwt>
<rscale>  0 0.10519006E+04</rscale>
<asrwt>0</asrwt>
<pdfrwt beam="1">  1        1 0.24410861E+00 0.11069259E+04</pdfrwt>
<pdfrwt beam="2">  1       -1 0.18151516E+00 0.11069259E+04</pdfrwt>
<totfact> 0.11473893E+00</totfact>
</mgrwt>
</event>
<event>
 4    5  0.7176259E-008  0.1251577E+04  0.7818608E-02  0.9108547E-01
         -1   -1    0    0    0  501 -0.00000000000E+00  0.00000000000E+00  0.92630001343E+03  0.92630001345E+03  0.50400000000E-02 0.  1.
          1   -1    0    0  501    0  0.00000000000E+00 -0.00000000000E+00 -0.20949452431E+04  0.20949452431E+04  0.50400000000E-02 0. -1.
    8880023    1    1    2    0    0  0.73776620466E+03 -0.76702977510E+03 -0.14444473532E+04  0.19112488093E+04  0.65864270000E+03 0. -1.
    8880022    1    1    2    0    0 -0.73776620466E+03  0.76702977510E+03  0.27580212350E+03  0.11099964473E+04  0.15294330000E+03 0.  0.
<mgrwt>
<rscale>  0 0.12049360E+04</rscale>
<asrwt>0</asrwt>
<pdfrwt beam="1">  1        1 0.32229927E+00 0.12515765E+04</pdfrwt>
<pdfrwt beam="2">  1       -1 0.14250770E+00 0.12515765E+04</pdfrwt>
<totfact> 0.10043575E+00</totfact>
</mgrwt>
</event>
<event>
 4    5  0.7176259E-008  0.6957998E+03  0.7818608E-02  0.1001509E+00
          1   -1    0    0  501    0  0.00000000000E+00  0.00000000000E+00  0.80037226410E+03  0.80037226412E+03  0.50400000000E-02 0. -1.
         -1   -1    0    0    0  501 -0.00000000000E+00 -0.00000000000E+00 -0.18269108633E+04  0.18269108633E+04  0.50400000000E-02 0.  1.
    8880023    1    1    2    0    0  0.95171585675E+02 -0.20314889791E+03  0.63602791459E+03  0.94269232512E+03  0.65864270000E+03 0.  0.
    8880022    1    1    2    0    0 -0.95171585675E+02  0.20314889791E+03 -0.16625665138E+04  0.16845908023E+04  0.15294330000E+03 0.  0.
<mgrwt>
<rscale>  0 0.54993386E+03</rscale>
<asrwt>0</asrwt>
<pdfrwt beam="1">  1        1 0.12313419E+00 0.69579976E+03</pdfrwt>
<pdfrwt beam="2">  1       -1 0.28106321E+00 0.69579976E+03</pdfrwt>
<totfact> 0.10316586E+00</totfact>
</mgrwt>
</event>
<event>
 4    5  0.7176259E-008  0.7599748E+03  0.7818608E-02  0.9805173E-01
          1   -1    0    0  501    0  0.00000000000E+00  0.00000000000E+00  0.48811148513E+03  0.48811148516E+03  0.50400000000E-02 0. -1.
         -1   -1    0    0    0  501 -0.00000000000E+00 -0.00000000000E+00 -0.13927285619E+04  0.13927285619E+04  0.50400000000E-02 0.  1.
    8880023    1    1    2    0    0  0.26662692785E+03  0.26955812895E+03  0.12759596231E+03  0.77061173064E+03  0.65864270000E+03 0. -1.
    8880022    1    1    2    0    0 -0.26662692785E+03 -0.26955812895E+03 -0.10322130390E+04  0.11102283164E+04  0.15294330000E+03 0.  0.
<mgrwt>
<rscale>  0 0.65085684E+03</rscale>
<asrwt>0</asrwt>
<pdfrwt beam="1">  1        1 0.75094075E-01 0.75997481E+03</pdfrwt>
<pdfrwt beam="2">  1       -1 0.21426593E+00 0.75997481E+03</pdfrwt>
<totfact> 0.57014978E+00</totfact>
</mgrwt>
</event>
<event>
 4    5  0.7176259E-008  0.1340806E+04  0.7818608E-02  0.9031099E-01
          1   -1    0    0  501    0  0.00000000000E+00  0.00000000000E+00  0.18884817871E+04  0.18884817871E+04  0.50400000000E-02 0. -1.
         -1   -1    0    0    0  501 -0.00000000000E+00 -0.00000000000E+00 -0.23066373675E+04  0.23066373675E+04  0.50400000000E-02 0.  1.
    8880023    1    1    2    0    0  0.11601657185E+04 -0.13403831343E+03  0.14574232320E+04  0.19803644733E+04  0.65864270000E+03 0. -1.
    8880022    1    1    2    0    0 -0.11601657185E+04  0.13403831343E+03 -0.18755788123E+04  0.22147546813E+04  0.15294330000E+03 0.  0.
<mgrwt>
<rscale>  0 0.12980680E+04</rscale>
<asrwt>0</asrwt>
<pdfrwt beam="1">  1        1 0.29053566E+00 0.13408061E+04</pdfrwt>
<pdfrwt beam="2">  1       -1 0.35486729E+00 0.13408061E+04</pdfrwt>
<totfact> 0.49466674E-02</totfact>
</mgrwt>
</event>
<event>
 4    5  0.7176259E-008  0.1307609E+04  0.7818608E-02  0.9059017E-01
         -1   -1    0    0    0  501 -0.00000000000E+00  0.00000000000E+00  0.11166324360E+04  0.11166324360E+04  0.50400000000E-02 0.  1.
          1   -1    0    0  501    0  0.00000000000E+00 -0.00000000000E+00 -0.36021142001E+04  0.36021142001E+04  0.50400000000E-02 0. -1.
    8880023    1    1    2    0    0 -0.46687754123E+03 -0.10286181734E+04 -0.31420359916E+04  0.34032676010E+04  0.65864270000E+03 0.  0.
    8880022    1    1    2    0    0  0.46687754123E+03  0.10286181734E+04  0.65655422746E+03  0.13154790351E+04  0.15294330000E+03 0.  0.
<mgrwt>
<rscale>  0 0.12635053E+04</rscale>
<asrwt>0</asrwt>
<pdfrwt beam="1">  1        1 0.55417141E+00 0.13076086E+04</pdfrwt>
<pdfrwt beam="2">  1       -1 0.17178961E+00 0.13076086E+04</pdfrwt>
<totfact> 0.48651516E-02</totfact>
</mgrwt>
</event>
<event>
 4    5  0.7176259E-008  0.8635468E+03  0.7818608E-02  0.9587285E-01
          1   -1    0    0  501    0  0.00000000000E+00  0.00000000000E+00  0.14007044545E+04  0.14007044545E+04  0.50400000000E-02 0. -1.
         -1   -1    0    0    0  501 -0.00000000000E+00 -0.00000000000E+00 -0.63910070555E+03  0.63910070557E+03  0.50400000000E-02 0.  1.
    8880023    1    1    2    0    0  0.30552732059E+03  0.46749963569E+03  0.10769879457E+04  0.13804405436E+04  0.65864270000E+03 0. -1.
    8880022    1    1    2    0    0 -0.30552732059E+03 -0.46749963569E+03 -0.31538419668E+03  0.65936461653E+03  0.15294330000E+03 0.  0.
<mgrwt>
<rscale>  0 0.78143473E+03</rscale>
<asrwt>0</asrwt>
<pdfrwt beam="1">  1        1 0.21549299E+00 0.86354679E+03</pdfrwt>
<pdfrwt beam="2">  1       -1 0.98323187E-01 0.86354679E+03</pdfrwt>
<totfact> 0.77667423E+00</totfact>
</mgrwt>
</event>
<event>
 4    5  0.7176259E-008  0.7663951E+03  0.7818608E-02  0.9788824E-01
         -1   -1    0    0    0  501 -0.00000000000E+00  0.00000000000E+00  0.67265799696E+03  0.67265799698E+03  0.50400000000E-02 0.  1.
          1   -1    0    0  501    0  0.00000000000E+00 -0.00000000000E+00 -0.76696658049E+03  0.76696658051E+03  0.50400000000E-02 0. -1.
    8880023    1    1    2    0    0  0.32124991832E+03 -0.22438737512E+03 -0.45001020367E+03  0.88874664208E+03  0.65864270000E+03 0.  0.
    8880022    1    1    2    0    0 -0.32124991832E+03  0.22438737512E+03  0.35570162014E+03  0.55087793541E+03  0.15294330000E+03 0.  0.
<mgrwt>
<rscale>  0 0.65965773E+03</rscale>
<asrwt>0</asrwt>
<pdfrwt beam="1">  1        1 0.11799486E+00 0.76639507E+03</pdfrwt>
<pdfrwt beam="2">  1       -1 0.10348585E+00 0.76639507E+03</pdfrwt>
<totfact> 0.21347198E+01</totfact>
</mgrwt>
</event>
<event>
 4    5  0.7176259E-008  0.1154349E+04  0.7818608E-02  0.9202829E-01
         -1   -1    0    0    0  501 -0.00000000000E+00  0.00000000000E+00  0.15953615828E+04  0.15953615828E+04  0.50400000000E-02 0.  1.
          1   -1    0    0  501    0  0.00000000000E+00 -0.00000000000E+00 -0.18051904012E+04  0.18051904012E+04  0.50400000000E-02 0. -1.
    8880023    1    1    2    0    0  0.21741958913E+02 -0.94775399569E+03 -0.14364278738E+04  0.18427820251E+04  0.65864270000E+03 0. -1.
    8880022    1    1    2    0    0 -0.21741958913E+02  0.94775399569E+03  0.12265990554E+04  0.15577699589E+04  0.15294330000E+03 0.  0.
<mgrwt>
<rscale>  0 0.11024276E+04</rscale>
<asrwt>0</asrwt>
<pdfrwt beam="1">  1        1 0.27772160E+00 0.11543485E+04</pdfrwt>
<pdfrwt beam="2">  1       -1 0.24544024E+00 0.11543485E+04</pdfrwt>
<totfact> 0.29827766E-01</totfact>
</mgrwt>
</event>
<event>
 4    5  0.7176259E-008  0.6921747E+03  0.7818608E-02  0.1003136E+00
         -1   -1    0    0    0  501 -0.00000000000E+00  0.00000000000E+00  0.56423202454E+03  0.56423202456E+03  0.50400000000E-02 0.  1.
          1   -1    0    0  501    0  0.00000000000E+00 -0.00000000000E+00 -0.85985414929E+03  0.85985414930E+03  0.50400000000E-02 0. -1.
    8880023    1    1    2    0    0  0.51790140264E+02 -0.20643008448E+03 -0.67247899920E+03  0.96505637609E+03  0.65864270000E+03 0. -1.
    8880022    1    1    2    0    0 -0.51790140264E+02  0.20643008448E+03  0.37685687445E+03  0.45902979777E+03  0.15294330000E+03 0.  0.
<mgrwt>
<rscale>  0 0.54296434E+03</rscale>
<asrwt>0</asrwt>
<pdfrwt beam="1">  1        1 0.13228525E+00 0.69217469E+03</pdfrwt>
<pdfrwt beam="2">  1       -1 0.86804928E-01 0.69217469E+03</pdfrwt>
<totfact> 0.26556071E+01</totfact>
</mgrwt>
</event>
<event>
 4    5  0.7176259E-008  0.8618928E+03  0.7818608E-02  0.9590205E-01
         -1   -1    0    0    0  501 -0.00000000000E+00  0.00000000000E+00  0.13281191774E+04  0.13281191774E+04  0.50400000000E-02 0.  1.
          1   -1    0    0  501    0  0.00000000000E+00 -0.00000000000E+00 -0.13931398556E+04  0.13931398556E+04  0.50400000000E-02 0. -1.
    8880023    1    1    2    0    0 -0.54493266596E+03 -0.10998818472E+03 -0.11828116478E+04  0.14635240387E+04  0.65864270000E+03 0.  0.
    8880022    1    1    2    0    0  0.54493266596E+03  0.10998818472E+03  0.11177909696E+04  0.12577349944E+04  0.15294330000E+03 0.  0.
<mgrwt>
<rscale>  0 0.77947863E+03</rscale>
<asrwt>0</asrwt>
<pdfrwt beam="1">  1        1 0.21432921E+00 0.86189281E+03</pdfrwt>
<pdfrwt beam="2">  1       -1 0.20432603E+00 0.86189281E+03</pdfrwt>
<totfact> 0.11236507E+00</totfact>
</mgrwt>
</event>
<event>
 4    5  0.7176259E-008  0.1028684E+04  0.7818608E-02  0.9344956E-01
          1   -1    0    0  501    0  0.00000000000E+00  0.00000000000E+00  0.16039872686E+04  0.16039872686E+04  0.50400000000E-02 0. -1.
         -1   -1    0    0    0  501 -0.00000000000E+00 -0.00000000000E+00 -0.64043438162E+03  0.64043438164E+03  0.50400000000E-02 0.  1.
    8880023    1    1    2    0    0 -0.70296437123E+03 -0.36086175648E+03  0.10055106847E+04  0.14384860298E+04  0.65864270000E+03 0.  0.
    8880022    1    1    2    0    0  0.70296437123E+03  0.36086175648E+03 -0.41957797757E+02  0.80593562046E+03  0.15294330000E+03 0.  0.
<mgrwt>
<rscale>  0 0.96747371E+03</rscale>
<asrwt>0</asrwt>
<pdfrwt beam="1">  1        1 0.24676727E+00 0.10286838E+04</pdfrwt>
<pdfrwt beam="2">  1       -1 0.98528367E-01 0.10286838E+04</pdfrwt>
<totfact> 0.54841401E+00</totfact>
</mgrwt>
</event>
<event>
 4    5  0.7176259E-008  0.8145728E+03  0.7818608E-02  0.9680130E-01
          1   -1    0    0  501    0  0.00000000000E+00  0.00000000000E+00  0.29821475001E+04  0.29821475001E+04  0.50400000000E-02 0. -1.
         -1   -1    0    0    0  501 -0.00000000000E+00 -0.00000000000E+00 -0.47128079012E+03  0.47128079015E+03  0.50400000000E-02 0.  1.
    8880023    1    1    2    0    0  0.40936468753E+03 -0.24927726849E+03  0.27701590046E+04  0.28874399944E+04  0.65864270000E+03 0. -1.
    8880022    1    1    2    0    0 -0.40936468753E+03  0.24927726849E+03 -0.25929229466E+03  0.56598829587E+03  0.15294330000E+03 0.  0.
<mgrwt>
<rscale>  0 0.72212293E+03</rscale>
<asrwt>0</asrwt>
<pdfrwt beam="1">  1        1 0.45879193E+00 0.81457278E+03</pdfrwt>
<pdfrwt beam="2">  1       -1 0.72504736E-01 0.81457278E+03</pdfrwt>
<totfact> 0.12557290E+00</totfact>
</mgrwt>
</event>
<event>
 4    5  0.7176259E-008  0.7505600E+03  0.7818608E-02  0.9830190E-01
         -1   -1    0    0    0  501 -0.00000000000E+00  0.00000000000E+00  0.37430479912E+03  0.37430479916E+03  0.50400000000E-02 0.  1.
          1   -1    0    0  501    0  0.00000000000E+00 -0.00000000000E+00 -0.11593170027E+04  0.11593170027E+04  0.50400000000E-02 0. -1.
    8880023    1    1    2    0    0 -0.35938752681E+03 -0.19252867294E+02 -0.85354627802E+03  0.11366096614E+04  0.65864270000E+03 0.  0.
    8880022    1    1    2    0    0  0.35938752681E+03  0.19252867294E+02  0.68534074450E+02  0.39701214049E+03  0.15294330000E+03 0.  0.
<mgrwt>
<rscale>  0 0.63767251E+03</rscale>
<asrwt>0</asrwt>
<pdfrwt beam="1">  1        1 0.17835646E+00 0.75055997E+03</pdfrwt>
<pdfrwt beam="2">  1       -1 0.57585354E-01 0.75055997E+03</pdfrwt>
<totfact> 0.35923867E+01</totfact>
</mgrwt>
</event>
<event>
 4    5  0.7176259E-008  0.7704061E+03  0.7818608E-02  0.9778876E-01
          1   -1    0    0  501    0  0.00000000000E+00  0.00000000000E+00  0.10209136889E+04  0.10209136889E+04  0.50400000000E-02 0. -1.
         -1   -1    0    0    0  501 -0.00000000000E+00 -0.00000000000E+00 -0.12065249852E+04  0.12065249853E+04  0.50400000000E-02 0.  1.
    8880023    1    1    2    0    0  0.17459364979E+03 -0.35948909415E+03  0.82571739132E+03  0.11293072071E+04  0.65864270000E+03 0.  0.
    8880022    1    1    2    0    0 -0.17459364979E+03  0.35948909415E+03 -0.10113286877E+04  0.10981314671E+04  0.15294330000E+03 0.  0.
<mgrwt>
<rscale>  0 0.66508615E+03</rscale>
<asrwt>0</asrwt>
<pdfrwt beam="1">  1        1 0.15706364E+00 0.77040610E+03</pdfrwt>
<pdfrwt beam="2">  1       -1 0.18561923E+00 0.77040610E+03</pdfrwt>
<totfact> 0.28684535E+00</totfact>
</mgrwt>
</event>
<event>
 4    5  0.7176259E-008  0.7800689E+03  0.7818608E-02  0.9755675E-01
         -1   -1    0    0    0  501 -0.00000000000E+00  0.00000000000E+00  0.32087090993E+03  0.32087090997E+03  0.50400000000E-02 0.  1.
          1   -1    0    0  501    0  0.00000000000E+00 -0.00000000000E+00 -0.22102854887E+04  0.22102854887E+04  0.50400000000E-02 0. -1.
    8880023    1    1    2    0    0 -0.37283446433E+03  0.18892269390E+03 -0.19325020179E+04  0.20840037374E+04  0.65864270000E+03 0.  0.
    8880022    1    1    2    0    0  0.37283446433E+03 -0.18892269390E+03  0.43087439124E+02  0.44715266128E+03  0.15294330000E+03 0.  0.
<mgrwt>
<rscale>  0 0.67796500E+03</rscale>
<asrwt>0</asrwt>
<pdfrwt beam="1">  1        1 0.34004391E+00 0.78006893E+03</pdfrwt>
<pdfrwt beam="2">  1       -1 0.49364757E-01 0.78006893E+03</pdfrwt>
<totfact> 0.92101151E+00</totfact>
</mgrwt>
</event>
<event>
 4    5  0.7176259E-008  0.1175645E+04  0.7818608E-02  0.9181168E-01
         -1   -1    0    0    0  501 -0.00000000000E+00  0.00000000000E+00  0.19661398343E+04  0.19661398344E+04  0.50400000000E-02 0.  1.
          1   -1    0    0  501    0  0.00000000000E+00 -0.00000000000E+00 -0.18306908783E+04  0.18306908783E+04  0.50400000000E-02 0. -1.
    8880023    1    1    2    0    0 -0.58460526887E+03  0.77882467797E+03 -0.14887022990E+04  0.18969385706E+04  0.65864270000E+03 0.  0.
    8880022    1    1    2    0    0  0.58460526887E+03 -0.77882467797E+03  0.16241512550E+04  0.18998921421E+04  0.15294330000E+03 0.  0.
<mgrwt>
<rscale>  0 0.11249934E+04</rscale>
<asrwt>0</asrwt>
<pdfrwt beam="1">  1        1 0.28164475E+00 0.11756451E+04</pdfrwt>
<pdfrwt beam="2">  1       -1 0.30248305E+00 0.11756451E+04</pdfrwt>
<totfact> 0.12222360E-01</totfact>
</mgrwt>
</event>
<event>
 4    5  0.7176259E-008  0.7973106E+03  0.7818608E-02  0.9716642E-01
         -1   -1    0    0    0  501 -0.00000000000E+00  0.00000000000E+00  0.37831470611E+03  0.37831470615E+03  0.50400000000E-02 0.  1.
          1   -1    0    0  501    0  0.00000000000E+00 -0.00000000000E+00 -0.14856586702E+04  0.14856586702E+04  0.50400000000E-02 0. -1.
    8880023    1    1    2    0    0  0.44481004346E+03 -0.63545352835E+02 -0.11366711687E+04  0.13884255611E+04  0.65864270000E+03 0. -1.
    8880022    1    1    2    0    0 -0.44481004346E+03  0.63545352835E+02  0.29327204661E+02  0.47554781523E+03  0.15294330000E+03 0.  0.
<mgrwt>
<rscale>  0 0.70034550E+03</rscale>
<asrwt>0</asrwt>
<pdfrwt beam="1">  1        1 0.22856287E+00 0.79731060E+03</pdfrwt>
<pdfrwt beam="2">  1       -1 0.58202263E-01 0.79731060E+03</pdfrwt>
<totfact> 0.20581379E+01</totfact>
</mgrwt>
</event>
<event>
 4    5  0.7176259E-008  0.7597952E+03  0.7818608E-02  0.9805638E-01
         -1   -1    0    0    0  501 -0.00000000000E+00  0.00000000000E+00  0.16028349781E+03  0.16028349789E+03  0.50400000000E-02 0.  1.
          1   -1    0    0  501    0  0.00000000000E+00 -0.00000000000E+00 -0.29406968487E+04  0.29406968487E+04  0.50400000000E-02 0. -1.
    8880023    1    1    2    0    0 -0.30163617137E+03 -0.22911614284E+03 -0.24803655307E+04  0.25941283621E+04  0.65864270000E+03 0. -1.
    8880022    1    1    2    0    0  0.30163617137E+03  0.22911614284E+03 -0.30004782018E+03  0.50685198451E+03  0.15294330000E+03 0.  0.
<mgrwt>
<rscale>  0 0.65060858E+03</rscale>
<asrwt>0</asrwt>
<pdfrwt beam="1">  1        1 0.45241486E+00 0.75979523E+03</pdfrwt>
<pdfrwt beam="2">  1       -1 0.24659002E-01 0.75979523E+03</pdfrwt>
<totfact> 0.10026594E+01</totfact>
</mgrwt>
</event>
<event>
 4    5  0.7176259E-008  0.7255418E+03  0.7818608E-02  0.9904262E-01
          1   -1    0    0  501    0  0.00000000000E+00  0.00000000000E+00  0.27354492132E+04  0.27354492132E+04  0.50400000000E-02 0. -1.
         -1   -1    0    0    0  501 -0.00000000000E+00 -0.00000000000E+00 -0.11507095345E+04  0.11507095345E+04  0.50400000000E-02 0.  1.
    8880023    1    1    2    0    0 -0.28520066410E+03 -0.10611909527E+03  0.26605609834E+04  0.27577156550E+04  0.65864270000E+03 0. -1.
    8880022    1    1    2    0    0  0.28520066410E+03  0.10611909527E+03 -0.10758213046E+04  0.11284430927E+04  0.15294330000E+03 0.  0.
<mgrwt>
<rscale>  0 0.60055182E+03</rscale>
<asrwt>0</asrwt>
<pdfrwt beam="1">  1        1 0.42083834E+00 0.72554179E+03</pdfrwt>
<pdfrwt beam="2">  1       -1 0.17703224E+00 0.72554179E+03</pdfrwt>
<totfact> 0.22054043E-01</totfact>
</mgrwt>
</event>
<event>
 4    5  0.7176259E-008  0.9223326E+03  0.7818608E-02  0.9491092E-01
         -1   -1    0    0    0  501 -0.00000000000E+00  0.00000000000E+00  0.27458838318E+04  0.27458838318E+04  0.50400000000E-02 0.  1.
          1   -1    0    0  501    0  0.00000000000E+00 -0.00000000000E+00 -0.23676438530E+03  0.23676438535E+03  0.50400000000E-02 0. -1.
    8880023    1    1    2    0    0 -0.47633571158E+03 -0.43588014831E+03  0.17195165982E+04  0.19512649107E+04  0.65864270000E+03 0.  1.
    8880022    1    1    2    0    0  0.47633571158E+03  0.43588014831E+03  0.78960284823E+03  0.10313833064E+04  0.15294330000E+03 0. -1.
<mgrwt>
<rscale>  0 0.84943793E+03</rscale>
<asrwt>0</asrwt>
<pdfrwt beam="1">  1        1 0.36425292E-01 0.92233260E+03</pdfrwt>
<pdfrwt beam="2">  1       -1 0.42244365E+00 0.92233260E+03</pdfrwt>
<totfact> 0.62186597E-01</totfact>
</mgrwt>
</event>
<event>
 4    5  0.7176259E-008  0.1695423E+04  0.7818608E-02  0.8782703E-01
         -1   -1    0    0    0  501 -0.00000000000E+00  0.00000000000E+00  0.19029806868E+04  0.19029806868E+04  0.50400000000E-02 0.  1.
          1   -1    0    0  501    0  0.00000000000E+00 -0.00000000000E+00 -0.17068695965E+04  0.17068695965E+04  0.50400000000E-02 0. -1.
    8880023    1    1    2    0    0 -0.54463113012E+03 -0.14642496048E+04 -0.66294994284E+03  0.18204292917E+04  0.65864270000E+03 0.  0.
    8880022    1    1    2    0    0  0.54463113012E+03  0.14642496048E+04  0.85906103314E+03  0.17894209915E+04  0.15294330000E+03 0.  0.
<mgrwt>
<rscale>  0 0.16630857E+04</rscale>
<asrwt>0</asrwt>
<pdfrwt beam="1">  1        1 0.26259532E+00 0.16954233E+04</pdfrwt>
<pdfrwt beam="2">  1       -1 0.29276626E+00 0.16954233E+04</pdfrwt>
<totfact> 0.16019814E-01</totfact>
</mgrwt>
</event>
<event>
 4    5  0.7176259E-008  0.1103572E+04  0.7818608E-02  0.9257089E-01
          1   -1    0    0  501    0  0.00000000000E+00  0.00000000000E+00  0.20620098759E+04  0.20620098759E+04  0.50400000000E-02 0. -1.
         -1   -1    0    0    0  501 -0.00000000000E+00 -0.00000000000E+00 -0.77670951557E+03  0.77670951559E+03  0.50400000000E-02 0.  1.
    8880023    1    1    2    0    0 -0.68564718474E+03 -0.56031230958E+03  0.15492995227E+04  0.19021569766E+04  0.65864270000E+03 0.  0.
    8880022    1    1    2    0    0  0.68564718474E+03  0.56031230958E+03 -0.26399916241E+03  0.93656241489E+03  0.15294330000E+03 0.  0.
<mgrwt>
<rscale>  0 0.10483115E+04</rscale>
<asrwt>0</asrwt>
<pdfrwt beam="1">  1        1 0.31723229E+00 0.11035725E+04</pdfrwt>
<pdfrwt beam="2">  1       -1 0.11949377E+00 0.11035725E+04</pdfrwt>
<totfact> 0.16870914E+00</totfact>
</mgrwt>
</event>
<event>
 4    5  0.7176259E-008  0.7622874E+03  0.7818608E-02  0.9799221E-01
          1   -1    0    0  501    0  0.00000000000E+00  0.00000000000E+00  0.13306200776E+04  0.13306200776E+04  0.50400000000E-02 0. -1.
         -1   -1    0    0    0  501 -0.00000000000E+00 -0.00000000000E+00 -0.47176115074E+03  0.47176115077E+03  0.50400000000E-02 0.  1.
    8880023    1    1    2    0    0  0.31430891798E+03  0.22018580621E+03  0.10891537794E+04  0.13294126698E+04  0.65864270000E+03 0. -1.
    8880022    1    1    2    0    0 -0.31430891798E+03 -0.22018580621E+03 -0.23029485261E+03  0.47296855851E+03  0.15294330000E+03 0.  0.
<mgrwt>
<rscale>  0 0.65404353E+03</rscale>
<asrwt>0</asrwt>
<pdfrwt beam="1">  1        1 0.20471078E+00 0.76228741E+03</pdfrwt>
<pdfrwt beam="2">  1       -1 0.72578638E-01 0.76228741E+03</pdfrwt>
<totfact> 0.16992736E+01</totfact>
</mgrwt>
</event>
<event>
 4    5  0.7176259E-008  0.1004648E+04  0.7818608E-02  0.9375502E-01
         -1   -1    0    0    0  501 -0.00000000000E+00  0.00000000000E+00  0.13482497279E+04  0.13482497279E+04  0.50400000000E-02 0.  1.
          1   -1    0    0  501    0  0.00000000000E+00 -0.00000000000E+00 -0.19984177077E+04  0.19984177077E+04  0.50400000000E-02 0. -1.
    8880023    1    1    2    0    0 -0.75436930285E+03 -0.80208368610E+02  0.10655545629E+04  0.14644873370E+04  0.65864270000E+03 0.  1.
    8880022    1    1    2    0    0  0.75436930285E+03  0.80208368610E+02 -0.17157225426E+04  0.18821800986E+04  0.15294330000E+03 0.  0.
<mgrwt>
<rscale>  0 0.94119455E+03</rscale>
<asrwt>0</asrwt>
<pdfrwt beam="1">  1        1 0.30744888E+00 0.10046475E+04</pdfrwt>
<pdfrwt beam="2">  1       -1 0.20742304E+00 0.10046475E+04</pdfrwt>
<totfact> 0.40481629E-01</totfact>
</mgrwt>
</event>
<event>
 4    5  0.7176259E-008  0.8860861E+03  0.7818608E-02  0.9548747E-01
         -1   -1    0    0    0  501 -0.00000000000E+00  0.00000000000E+00  0.76983211414E+03  0.76983211415E+03  0.50400000000E-02 0.  1.
          1   -1    0    0  501    0  0.00000000000E+00 -0.00000000000E+00 -0.19240256193E+04  0.19240256193E+04  0.50400000000E-02 0. -1.
    8880023    1    1    2    0    0 -0.33525553925E+03  0.48881700601E+03 -0.16718652217E+04  0.18921632773E+04  0.65864270000E+03 0. -1.
    8880022    1    1    2    0    0  0.33525553925E+03 -0.48881700601E+03  0.51767171656E+03  0.80169445620E+03  0.15294330000E+03 0.  0.
<mgrwt>
<rscale>  0 0.80783329E+03</rscale>
<asrwt>0</asrwt>
<pdfrwt beam="1">  1        1 0.29600394E+00 0.88608608E+03</pdfrwt>
<pdfrwt beam="2">  1       -1 0.11843571E+00 0.88608608E+03</pdfrwt>
<totfact> 0.22043828E+00</totfact>
</mgrwt>
</event>
<event>
 4    5  0.7176259E-008  0.2032477E+04  0.7818608E-02  0.8603790E-01
          1   -1    0    0  501    0  0.00000000000E+00  0.00000000000E+00  0.27878958258E+04  0.27878958258E+04  0.50400000000E-02 0. -1.
         -1   -1    0    0    0  501 -0.00000000000E+00 -0.00000000000E+00 -0.21114543740E+04  0.21114543740E+04  0.50400000000E-02 0.  1.
    8880023    1    1    2    0    0  0.68601802826E+03 -0.17962548934E+04 -0.10703408650E+04  0.22970834009E+04  0.65864270000E+03 0.  0.
    8880022    1    1    2    0    0 -0.68601802826E+03  0.17962548934E+04  0.17467823168E+04  0.26022667989E+04  0.15294330000E+03 0.  0.
<mgrwt>
<rscale>  0 0.20060651E+04</rscale>
<asrwt>0</asrwt>
<pdfrwt beam="1">  1        1 0.42890705E+00 0.20324770E+04</pdfrwt>
<pdfrwt beam="2">  1       -1 0.32483913E+00 0.20324770E+04</pdfrwt>
<totfact> 0.17060951E-02</totfact>
</mgrwt>
</event>
<event>
 4    5  0.7176259E-008  0.7518647E+03  0.7818608E-02  0.9826643E-01
         -1   -1    0    0    0  501 -0.00000000000E+00  0.00000000000E+00  0.54725538835E+03  0.54725538837E+03  0.50400000000E-02 0.  1.
          1   -1    0    0  501    0  0.00000000000E+00 -0.00000000000E+00 -0.29221154332E+04  0.29221154332E+04  0.50400000000E-02 0. -1.
    8880023    1    1    2    0    0  0.27578506522E+03  0.23544189147E+03 -0.27946087709E+04  0.28939831850E+04  0.65864270000E+03 0. -1.
    8880022    1    1    2    0    0 -0.27578506522E+03 -0.23544189147E+03  0.41974872596E+03  0.57538763666E+03  0.15294330000E+03 0.  0.
<mgrwt>
<rscale>  0 0.63952107E+03</rscale>
<asrwt>0</asrwt>
<pdfrwt beam="1">  1        1 0.44955621E+00 0.75186468E+03</pdfrwt>
<pdfrwt beam="2">  1       -1 0.84193138E-01 0.75186468E+03</pdfrwt>
<totfact> 0.10244485E+00</totfact>
</mgrwt>
</event>
<event>
 4    5  0.7176259E-008  0.8391284E+03  0.7818608E-02  0.9631826E-01
         -1   -1    0    0    0  501 -0.00000000000E+00  0.00000000000E+00  0.15070281664E+04  0.15070281664E+04  0.50400000000E-02 0.  1.
          1   -1    0    0  501    0  0.00000000000E+00 -0.00000000000E+00 -0.52326197813E+03  0.52326197815E+03  0.50400000000E-02 0. -1.
    8880023    1    1    2    0    0 -0.50747346889E+03 -0.11312381716E+03 -0.73367681343E+02  0.84232971131E+03  0.65864270000E+03 0.  0.
    8880022    1    1    2    0    0  0.50747346889E+03  0.11312381716E+03  0.10571338696E+04  0.11879604332E+04  0.15294330000E+03 0.  0.
<mgrwt>
<rscale>  0 0.75225077E+03</rscale>
<asrwt>0</asrwt>
<pdfrwt beam="1">  1        1 0.80501845E-01 0.83912843E+03</pdfrwt>
<pdfrwt beam="2">  1       -1 0.23185048E+00 0.83912843E+03</pdfrwt>
<totfact> 0.39195916E+00</totfact>
</mgrwt>
</event>
<event>
 4    5  0.7176259E-008  0.8710600E+03  0.7818608E-02  0.9574185E-01
         -1   -1    0    0    0  501 -0.00000000000E+00  0.00000000000E+00  0.13546302618E+04  0.13546302618E+04  0.50400000000E-02 0.  1.
          1   -1    0    0  501    0  0.00000000000E+00 -0.00000000000E+00 -0.19808797629E+04  0.19808797629E+04  0.50400000000E-02 0. -1.
    8880023    1    1    2    0    0  0.56913894766E+03  0.31876363976E+02 -0.18122802805E+04  0.20107474396E+04  0.65864270000E+03 0. -1.
    8880022    1    1    2    0    0 -0.56913894766E+03 -0.31876363976E+02  0.11860307794E+04  0.13247625851E+04  0.15294330000E+03 0.  0.
<mgrwt>
<rscale>  0 0.79028623E+03</rscale>
<asrwt>0</asrwt>
<pdfrwt beam="1">  1        1 0.30475073E+00 0.87105996E+03</pdfrwt>
<pdfrwt beam="2">  1       -1 0.20840466E+00 0.87105996E+03</pdfrwt>
<totfact> 0.41995770E-01</totfact>
</mgrwt>
</event>
<event>
 4    5  0.7176259E-008  0.6836743E+03  0.7818608E-02  0.1007317E+00
          1   -1    0    0  501    0  0.00000000000E+00  0.00000000000E+00  0.90294106512E+03  0.90294106513E+03  0.50400000000E-02 0. -1.
         -1   -1    0    0    0  501 -0.00000000000E+00 -0.00000000000E+00 -0.29949681512E+03  0.29949681517E+03  0.50400000000E-02 0.  1.
    8880023    1    1    2    0    0 -0.17621451880E+03  0.50486020093E+02  0.66726023021E+03  0.95532550261E+03  0.65864270000E+03 0.  0.
    8880022    1    1    2    0    0  0.17621451880E+03 -0.50486020093E+02 -0.63815980212E+02  0.24711237769E+03  0.15294330000E+03 0.  0.
<mgrwt>
<rscale>  0 0.52554964E+03</rscale>
<asrwt>0</asrwt>
<pdfrwt beam="1">  1        1 0.13891401E+00 0.68367434E+03</pdfrwt>
<pdfrwt beam="2">  1       -1 0.46076434E-01 0.68367434E+03</pdfrwt>
<totfact> 0.86959614E+01</totfact>
</mgrwt>
</event>
<event>
 4    5  0.7176259E-008  0.1188951E+04  0.7818608E-02  0.9167938E-01
          1   -1    0    0  501    0  0.00000000000E+00  0.00000000000E+00  0.20925221308E+04  0.20925221308E+04  0.50400000000E-02 0. -1.
         -1   -1    0    0    0  501 -0.00000000000E+00 -0.00000000000E+00 -0.77937105098E+03  0.77937105099E+03  0.50400000000E-02 0.  1.
    8880023    1    1    2    0    0  0.80872546888E+03  0.57075115192E+03  0.14342861397E+04  0.18630031396E+04  0.65864270000E+03 0.  0.
    8880022    1    1    2    0    0 -0.80872546888E+03 -0.57075115192E+03 -0.12113505989E+03  0.10088900422E+04  0.15294330000E+03 0.  0.
<mgrwt>
<rscale>  0 0.11390573E+04</rscale>
<asrwt>0</asrwt>
<pdfrwt beam="1">  1        1 0.32192648E+00 0.11889508E+04</pdfrwt>
<pdfrwt beam="2">  1       -1 0.11990324E+00 0.11889508E+04</pdfrwt>
<totfact> 0.15779837E+00</totfact>
</mgrwt>
</event>
<event>
 4    5  0.7176259E-008  0.7823977E+03  0.7818608E-02  0.9750235E-01
          1   -1    0    0  501    0  0.00000000000E+00  0.00000000000E+00  0.81256879239E+03  0.81256879241E+03  0.50400000000E-02 0. -1.
         -1   -1    0    0    0  501 -0.00000000000E+00 -0.00000000000E+00 -0.22244833854E+04  0.22244833854E+04  0.50400000000E-02 0.  1.
    8880023    1    1    2    0    0 -0.15286006046E+03 -0.39366191328E+03  0.59345219684E+03  0.98200387792E+03  0.65864270000E+03 0.  0.
    8880022    1    1    2    0    0  0.15286006046E+03  0.39366191328E+03 -0.20053667899E+04  0.20550482999E+04  0.15294330000E+03 0.  0.
<mgrwt>
<rscale>  0 0.68103011E+03</rscale>
<asrwt>0</asrwt>
<pdfrwt beam="1">  1        1 0.12501058E+00 0.78239767E+03</pdfrwt>
<pdfrwt beam="2">  1       -1 0.34222821E+00 0.78239767E+03</pdfrwt>
<totfact> 0.40008923E-01</totfact>
</mgrwt>
</event>
<event>
 4    5  0.7176259E-008  0.9702775E+03  0.7818608E-02  0.9421520E-01
         -1   -1    0    0    0  501 -0.00000000000E+00  0.00000000000E+00  0.62918445474E+03  0.62918445476E+03  0.50400000000E-02 0.  1.
          1   -1    0    0  501    0  0.00000000000E+00 -0.00000000000E+00 -0.27154929267E+04  0.27154929267E+04  0.50400000000E-02 0. -1.
    8880023    1    1    2    0    0 -0.65470900195E+03 -0.28104155609E+03 -0.23713707409E+04  0.25621939096E+04  0.65864270000E+03 0. -1.
    8880022    1    1    2    0    0  0.65470900195E+03  0.28104155609E+03  0.28506226895E+03  0.78248347182E+03  0.15294330000E+03 0.  0.
<mgrwt>
<rscale>  0 0.90325593E+03</rscale>
<asrwt>0</asrwt>
<pdfrwt beam="1">  1        1 0.41776814E+00 0.97027751E+03</pdfrwt>
<pdfrwt beam="2">  1       -1 0.96797610E-01 0.97027751E+03</pdfrwt>
<totfact> 0.10092394E+00</totfact>
</mgrwt>
</event>
<event>
 4    5  0.7176259E-008  0.6741463E+03  0.7818608E-02  0.1012850E+00
          1   -1    0    0  501    0  0.00000000000E+00  0.00000000000E+00  0.51764185986E+03  0.51764185988E+03  0.50400000000E-02 0. -1.
         -1   -1    0    0    0  501 -0.00000000000E+00 -0.00000000000E+00 -0.88302484144E+03  0.88302484146E+03  0.50400000000E-02 0.  1.
    8880023    1    1    2    0    0 -0.13972778496E+03  0.33752016195E+02  0.27400955318E+03  0.72770494982E+03  0.65864270000E+03 0. -1.
    8880022    1    1    2    0    0  0.13972778496E+03 -0.33752016195E+02 -0.63939253477E+03  0.67296175153E+03  0.15294330000E+03 0.  0.
<mgrwt>
<rscale>  0 0.50357558E+03</rscale>
<asrwt>0</asrwt>
<pdfrwt beam="1">  1        1 0.79637209E-01 0.67414632E+03</pdfrwt>
<pdfrwt beam="2">  1       -1 0.13584998E+00 0.67414632E+03</pdfrwt>
<totfact> 0.19817044E+01</totfact>
</mgrwt>
</event>
<event>
 4    5  0.7176259E-008  0.1166758E+04  0.7818608E-02  0.9190133E-01
          1   -1    0    0  501    0  0.00000000000E+00  0.00000000000E+00  0.10654867033E+04  0.10654867033E+04  0.50400000000E-02 0. -1.
         -1   -1    0    0    0  501 -0.00000000000E+00 -0.00000000000E+00 -0.11906985733E+04  0.11906985733E+04  0.50400000000E-02 0.  1.
    8880023    1    1    2    0    0  0.55716557581E+03  0.78554440885E+03  0.28051270849E+03  0.12000046179E+04  0.65864270000E+03 0.  0.
    8880022    1    1    2    0    0 -0.55716557581E+03 -0.78554440885E+03 -0.40572457853E+03  0.10561806587E+04  0.15294330000E+03 0. -1.
<mgrwt>
<rscale>  0 0.11155850E+04</rscale>
<asrwt>0</asrwt>
<pdfrwt beam="1">  1        1 0.16392103E+00 0.11667578E+04</pdfrwt>
<pdfrwt beam="2">  1       -1 0.18318440E+00 0.11667578E+04</pdfrwt>
<totfact> 0.26174851E+00</totfact>
</mgrwt>
</event>
<event>
 4    5  0.7176259E-008  0.1403227E+04  0.7818608E-02  0.8981180E-01
         -1   -1    0    0    0  501 -0.00000000000E+00  0.00000000000E+00  0.10754091564E+04  0.10754091565E+04  0.50400000000E-02 0.  1.
          1   -1    0    0  501    0  0.00000000000E+00 -0.00000000000E+00 -0.18124983442E+04  0.18124983442E+04  0.50400000000E-02 0. -1.
    8880023    1    1    2    0    0 -0.80558261949E+03 -0.94141982592E+03 -0.83964648368E+03  0.16352526011E+04  0.65864270000E+03 0.  0.
    8880022    1    1    2    0    0  0.80558261949E+03  0.94141982592E+03  0.10255729595E+03  0.12526548996E+04  0.15294330000E+03 0.  0.
<mgrwt>
<rscale>  0 0.13628203E+04</rscale>
<asrwt>0</asrwt>
<pdfrwt beam="1">  1        1 0.27884590E+00 0.14032266E+04</pdfrwt>
<pdfrwt beam="2">  1       -1 0.16544756E+00 0.14032266E+04</pdfrwt>
<totfact> 0.10182018E+00</totfact>
</mgrwt>
</event>
<event>
 4    5  0.7176259E-008  0.1261922E+04  0.7818608E-02  0.9099160E-01
         -1   -1    0    0    0  501 -0.00000000000E+00  0.00000000000E+00  0.67058044940E+03  0.67058044942E+03  0.50400000000E-02 0.  1.
          1   -1    0    0  501    0  0.00000000000E+00 -0.00000000000E+00 -0.31951037574E+04  0.31951037574E+04  0.50400000000E-02 0. -1.
    8880023    1    1    2    0    0 -0.52558775896E+03 -0.93935901065E+03 -0.24740567853E+04  0.27773017528E+04  0.65864270000E+03 0.  0.
    8880022    1    1    2    0    0  0.52558775896E+03  0.93935901065E+03 -0.50466522729E+02  0.10883824540E+04  0.15294330000E+03 0.  0.
<mgrwt>
<rscale>  0 0.12157745E+04</rscale>
<asrwt>0</asrwt>
<pdfrwt beam="1">  1        1 0.49155442E+00 0.12619224E+04</pdfrwt>
<pdfrwt beam="2">  1       -1 0.10316622E+00 0.12619224E+04</pdfrwt>
<totfact> 0.37632145E-01</totfact>
</mgrwt>
</event>
<event>
 4    5  0.7176259E-008  0.1004202E+04  0.7818608E-02  0.9376081E-01
          1   -1    0    0  501    0  0.00000000000E+00  0.00000000000E+00  0.23498272964E+04  0.23498272964E+04  0.50400000000E-02 0. -1.
         -1   -1    0    0    0  501 -0.00000000000E+00 -0.00000000000E+00 -0.45046105535E+03  0.45046105538E+03  0.50400000000E-02 0.  1.
    8880023    1    1    2    0    0  0.61526696912E+03  0.44278442052E+03  0.17426212431E+04  0.20112559483E+04  0.65864270000E+03 0.  1.
    8880022    1    1    2    0    0 -0.61526696912E+03 -0.44278442052E+03  0.15674499794E+03  0.78903240348E+03  0.15294330000E+03 0.  0.
<mgrwt>
<rscale>  0 0.94070565E+03</rscale>
<asrwt>0</asrwt>
<pdfrwt beam="1">  1        1 0.36151189E+00 0.10042020E+04</pdfrwt>
<pdfrwt beam="2">  1       -1 0.69301702E-01 0.10042020E+04</pdfrwt>
<totfact> 0.36805094E+00</totfact>
</mgrwt>
</event>
<event>
 4    5  0.7176259E-008  0.1027931E+04  0.7818608E-02  0.9345895E-01
         -1   -1    0    0    0  501 -0.00000000000E+00  0.00000000000E+00  0.11018586490E+04  0.11018586490E+04  0.50400000000E-02 0.  1.
          1   -1    0    0  501    0  0.00000000000E+00 -0.00000000000E+00 -0.15037330511E+04  0.15037330511E+04  0.50400000000E-02 0. -1.
    8880023    1    1    2    0    0  0.78093345286E+03  0.11390459918E+03 -0.11253044646E+04  0.15241232430E+04  0.65864270000E+03 0. -1.
    8880022    1    1    2    0    0 -0.78093345286E+03 -0.11390459918E+03  0.72343006249E+03  0.10814684572E+04  0.15294330000E+03 0.  0.
<mgrwt>
<rscale>  0 0.96665316E+03</rscale>
<asrwt>0</asrwt>
<pdfrwt beam="1">  1        1 0.23134355E+00 0.10279307E+04</pdfrwt>
<pdfrwt beam="2">  1       -1 0.16951672E+00 0.10279307E+04</pdfrwt>
<totfact> 0.16164964E+00</totfact>
</mgrwt>
</event>
<event>
 4    5  0.7176259E-008  0.1304185E+04  0.7818608E-02  0.9061954E-01
         -1   -1    0    0    0  501 -0.00000000000E+00  0.00000000000E+00  0.10720268268E+04  0.10720268268E+04  0.50400000000E-02 0.  1.
          1   -1    0    0  501    0  0.00000000000E+00 -0.00000000000E+00 -0.16531871438E+04  0.16531871438E+04  0.50400000000E-02 0. -1.
    8880023    1    1    2    0    0 -0.11170797805E+04 -0.13864475649E+03 -0.85143495872E+03  0.15575112519E+04  0.65864270000E+03 0.  0.
    8880022    1    1    2    0    0  0.11170797805E+04  0.13864475649E+03  0.27027464166E+03  0.11677027188E+04  0.15294330000E+03 0.  0.
<mgrwt>
<rscale>  0 0.12599360E+04</rscale>
<asrwt>0</asrwt>
<pdfrwt beam="1">  1        1 0.25433648E+00 0.13041855E+04</pdfrwt>
<pdfrwt beam="2">  1       -1 0.16492720E+00 0.13041855E+04</pdfrwt>
<totfact> 0.13338703E+00</totfact>
</mgrwt>
</event>
<event>
 4    5  0.7176259E-008  0.1225300E+04  0.7818608E-02  0.9132913E-01
         -1   -1    0    0    0  501 -0.00000000000E+00  0.00000000000E+00  0.10534536186E+04  0.10534536186E+04  0.50400000000E-02 0.  1.
          1   -1    0    0  501    0  0.00000000000E+00 -0.00000000000E+00 -0.25471942147E+04  0.25471942147E+04  0.50400000000E-02 0. -1.
    8880023    1    1    2    0    0 -0.10286569286E+04  0.97032686012E+02  0.52083886112E+03  0.13314029234E+04  0.65864270000E+03 0.  0.
    8880022    1    1    2    0    0  0.10286569286E+04 -0.97032686012E+02 -0.20145794573E+04  0.22692449100E+04  0.15294330000E+03 0.  0.
<mgrwt>
<rscale>  0 0.11773541E+04</rscale>
<asrwt>0</asrwt>
<pdfrwt beam="1">  1        1 0.39187603E+00 0.12253002E+04</pdfrwt>
<pdfrwt beam="2">  1       -1 0.16206979E+00 0.12253002E+04</pdfrwt>
<totfact> 0.34813362E-01</totfact>
</mgrwt>
</event>
<event>
 4    5  0.7176259E-008  0.1082677E+04  0.7818608E-02  0.9280592E-01
          1   -1    0    0  501    0  0.00000000000E+00  0.00000000000E+00  0.15141964915E+04  0.15141964915E+04  0.50400000000E-02 0. -1.
         -1   -1    0    0    0  501 -0.00000000000E+00 -0.00000000000E+00 -0.10905392126E+04  0.10905392126E+04  0.50400000000E-02 0.  1.
    8880023    1    1    2    0    0  0.38967503839E+03 -0.76585466341E+03  0.10672814606E+04  0.15202894209E+04  0.65864270000E+03 0.  0.
    8880022    1    1    2    0    0 -0.38967503839E+03  0.76585466341E+03 -0.64362418166E+03  0.10844462832E+04  0.15294330000E+03 0.  0.
<mgrwt>
<rscale>  0 0.10258938E+04</rscale>
<asrwt>0</asrwt>
<pdfrwt beam="1">  1        1 0.23295331E+00 0.10826773E+04</pdfrwt>
<pdfrwt beam="2">  1       -1 0.16777526E+00 0.10826773E+04</pdfrwt>
<totfact> 0.16256049E+00</totfact>
</mgrwt>
</event>
<event>
 4    5  0.7176259E-008  0.9610015E+03  0.7818608E-02  0.9434459E-01
          1   -1    0    0  501    0  0.00000000000E+00  0.00000000000E+00  0.12238189243E+04  0.12238189243E+04  0.50400000000E-02 0. -1.
         -1   -1    0    0    0  501 -0.00000000000E+00 -0.00000000000E+00 -0.62109769164E+03  0.62109769166E+03  0.50400000000E-02 0.  1.
    8880023    1    1    2    0    0 -0.47885794265E+03  0.51030256852E+03  0.59163076108E+03  0.11285170820E+04  0.65864270000E+03 0.  1.
    8880022    1    1    2    0    0  0.47885794265E+03 -0.51030256852E+03  0.11090471573E+02  0.71639953395E+03  0.15294330000E+03 0.  0.
<mgrwt>
<rscale>  0 0.89293296E+03</rscale>
<asrwt>0</asrwt>
<pdfrwt beam="1">  1        1 0.18827984E+00 0.96100148E+03</pdfrwt>
<pdfrwt beam="2">  1       -1 0.95553491E-01 0.96100148E+03</pdfrwt>
<totfact> 0.10935041E+01</totfact>
</mgrwt>
</event>
